The alkali metal is Li
scale=2
magnetization=0.76
--------------------------------------------------------------------------
The library attempted to open the following supporting CUDA libraries,
but each of them failed.  CUDA-aware support is disabled.
libcuda.so.1: cannot open shared object file: No such file or directory
libcuda.dylib: cannot open shared object file: No such file or directory
/usr/lib64/libcuda.so.1: cannot open shared object file: No such file or directory
/usr/lib64/libcuda.dylib: cannot open shared object file: No such file or directory
If you are not interested in CUDA-aware support, then run with
--mca opal_warn_on_missing_libcuda 0 to suppress this message.  If you are interested
in CUDA-aware support, then try setting LD_LIBRARY_PATH to the location
of libcuda.so.1 to get passed this issue.
--------------------------------------------------------------------------
--------------------------------------------------------------------------
No OpenFabrics connection schemes reported that they were able to be
used on a specific port.  As such, the openib BTL (OpenFabrics
support) will be disabled for this port.

  Local host:           d-5-12-1
  Local device:         mlx5_1
  Local port:           1
  CPCs attempted:       rdmacm, udcm
--------------------------------------------------------------------------

*************** JDFTx 1.6.0 (git hash 42ebbcc2) ***************

Start date and time: Sat Feb  5 23:08:01 2022
Executable jdftx with command-line: -i Alkali.in
Running on hosts (process indices):  d-5-12-1 (0-18)
Divided in process groups (process indices):  0 (0)  1 (1)  2 (2)  3 (3)  4 (4)  5 (5)  6 (6)  7 (7)  8 (8)  9 (9)  10 (10)  11 (11)  12 (12)  13 (13)  14 (14)  15 (15)  16 (16)  17 (17)  18 (18)
Resource initialization completed at t[s]:      0.00
Run totals: 19 processes, 48 threads, 0 GPUs


Input parsed successfully to the following command list (including defaults):

basis kpoint-dependent
coords-type Lattice
core-overlap-check vector
coulomb-interaction Slab 001
davidson-band-ratio 1.1
dump End None
dump-name $INPUT.$VAR
elec-cutoff 20
elec-eigen-algo Davidson
elec-ex-corr gga-PBE
elec-initial-magnetization 0.760000 yes
elec-smearing Fermi 1e-05
electronic-minimize  \
	dirUpdateScheme      FletcherReeves \
	linminMethod         DirUpdateRecommended \
	nIterations          100 \
	history              15 \
	knormThreshold       0 \
	energyDiffThreshold  1e-08 \
	nEnergyDiff          2 \
	alphaTstart          1 \
	alphaTmin            1e-10 \
	updateTestStepSize   yes \
	alphaTreduceFactor   0.1 \
	alphaTincreaseFactor 3 \
	nAlphaAdjustMax      3 \
	wolfeEnergy          0.0001 \
	wolfeGradient        0.9 \
	fdTest               no
electronic-scf  \
	nIterations	10000 \
	energyDiffThreshold	1e-08 \
	residualThreshold	1e-07 \
	mixFraction	0.5 \
	qMetric	0.8 \
	history	10 \
	nEigSteps	2 \
	eigDiffThreshold	1e-08 \
	mixedVariable	Density \
	qKerker	0.8 \
	qKappa	-1 \
	verbose	no \
	mixFractionMag	1.5
exchange-regularization WignerSeitzTruncated
fluid None
fluid-ex-corr (null) lda-PZ
fluid-gummel-loop 10 1.000000e-05
fluid-minimize  \
	dirUpdateScheme      PolakRibiere \
	linminMethod         DirUpdateRecommended \
	nIterations          100 \
	history              15 \
	knormThreshold       0 \
	energyDiffThreshold  0 \
	nEnergyDiff          2 \
	alphaTstart          1 \
	alphaTmin            1e-10 \
	updateTestStepSize   yes \
	alphaTreduceFactor   0.1 \
	alphaTincreaseFactor 3 \
	nAlphaAdjustMax      3 \
	wolfeEnergy          0.0001 \
	wolfeGradient        0.9 \
	fdTest               no
fluid-solvent H2O 55.338 ScalarEOS \
	epsBulk 78.4 \
	pMol 0.92466 \
	epsInf 1.77 \
	Pvap 1.06736e-10 \
	sigmaBulk 4.62e-05 \
	Rvdw 2.61727 \
	Res 1.42 \
	tauNuc 343133 \
	poleEl 15 7 1
forces-output-coords Positions
ion Li   0.000000000000000   0.000000000000000   0.000000000000000 0
ion-species SG15/$ID_ONCV_PBE.upf
ion-width 0
ionic-minimize  \
	dirUpdateScheme      L-BFGS \
	linminMethod         DirUpdateRecommended \
	nIterations          0 \
	history              15 \
	knormThreshold       0.0001 \
	energyDiffThreshold  1e-06 \
	nEnergyDiff          2 \
	alphaTstart          1 \
	alphaTmin            1e-10 \
	updateTestStepSize   yes \
	alphaTreduceFactor   0.1 \
	alphaTincreaseFactor 3 \
	nAlphaAdjustMax      3 \
	wolfeEnergy          0.0001 \
	wolfeGradient        0.9 \
	fdTest               no
kpoint   0.000000000000   0.000000000000   0.000000000000  1.00000000000000
kpoint-folding 12 12 1 
latt-move-scale 1 1 1
latt-scale 2 2 1 
lattice  \
	   4.727486978767153   -2.363743489383575    0.000000000000000  \
	  -0.000000000000000    4.094123819672498    0.000000000000000  \
	   0.000000000000000    0.000000000000000   40.000000000000000 
lattice-minimize  \
	dirUpdateScheme      L-BFGS \
	linminMethod         DirUpdateRecommended \
	nIterations          0 \
	history              15 \
	knormThreshold       0 \
	energyDiffThreshold  1e-06 \
	nEnergyDiff          2 \
	alphaTstart          1 \
	alphaTmin            1e-10 \
	updateTestStepSize   yes \
	alphaTreduceFactor   0.1 \
	alphaTincreaseFactor 3 \
	nAlphaAdjustMax      3 \
	wolfeEnergy          0.0001 \
	wolfeGradient        0.9 \
	fdTest               no
lcao-params -1 1e-06 1e-05
pcm-variant GLSSA13
spintype z-spin
subspace-rotation-factor 1 yes
symmetries automatic
symmetry-threshold 0.0001



---------- Setting up symmetries ----------

Found 24 point-group symmetries of the bravais lattice
Found 24 space-group symmetries with basis
Applied RMS atom displacement 0 bohrs to make symmetries exact.

---------- Initializing the Grid ----------
R = 
[      9.45497     -4.72749            0  ]
[            0      8.18825            0  ]
[            0            0           40  ]
unit cell volume = 3096.79
G =
[   0.664538   0.383671         -0  ]
[          0   0.767342         -0  ]
[         -0         -0    0.15708  ]
Minimum fftbox size, Smin = [  40  40  164  ]
Chosen fftbox size, S = [  40  40  168  ]

---------- Exchange Correlation functional ----------
Initalized PBE GGA exchange.
Initalized PBE GGA correlation.

---------- Setting up pseudopotentials ----------
Width of ionic core gaussian charges (only for fluid interactions / plotting) set to 0

Reading pseudopotential file '/home/gridsan/aligho/DFT/build-Nov24/pseudopotentials/SG15/Li_ONCV_PBE.upf':
  'Li' pseudopotential, 'PBE' functional
  Generated using ONCVPSP code by D. R. Hamann
  Author: Martin Schlipf and Francois Gygi  Date: 150915.
  3 valence electrons, 2 orbitals, 4 projectors, 1328 radial grid points, with lMax = 1
  Transforming local potential to a uniform radial grid of dG=0.02 with 1489 points.
  Transforming nonlocal projectors to a uniform radial grid of dG=0.02 with 432 points.
    1S    l: 0   occupation:  2.0   eigenvalue: -1.905623
    2S    l: 0   occupation:  1.0   eigenvalue: -0.105624
  Transforming atomic orbitals to a uniform radial grid of dG=0.02 with 432 points.
  WARNING: large normalization error in atomic orbital 1s (integral: 0.000000).
  Core radius for overlap checks: 1.63 bohrs.
  Reading pulay file /home/gridsan/aligho/DFT/build-Nov24/pseudopotentials/SG15/Li_ONCV_PBE.pulay ... using dE_dnG = -1.230239e-02 computed for Ecut = 20.

Initialized 1 species with 1 total atoms.

Folded 1 k-points by 12x12x1 to 144 k-points.

---------- Setting up k-points, bands, fillings ----------
Reduced to 19 k-points under symmetry. 
Computing the number of bands and number of electrons
Calculating initial fillings.
nElectrons:   3.000000   nBands: 3   nStates: 38

----- Setting up reduced wavefunction bases (one per k-point) -----
average nbasis = 13230.521 , ideal nbasis = 13229.709

---------- Setting up coulomb interaction ----------
Initialized slab truncation along lattice direction 001

---------- Setting up 2D ewald sum ----------
Optimum gaussian width for ewald sums = 5.249020 bohr.
Real space sums over 289 unit cells with max indices [  8  8  0  ]
Reciprocal space sums over 81 terms with max indices [  4  4  0  ]

---------- Allocating electronic variables ----------
Initializing wave functions:  linear combination of atomic orbitals
Note: number of bands (3) exceeds available atomic orbitals (2)
Li pseudo-atom occupations:   s ( 2 1 )
	FillingsUpdate:  mu: +0.315944106  nElectrons: 3.000000  magneticMoment: [ Abs: 0.76000  Tot: +0.76000 ]
LCAOMinimize: Iter:   0  F: -1.1553020836810426  |grad|_K:  5.745e-05  alpha:  1.000e+00
	FillingsUpdate:  mu: +0.315942951  nElectrons: 3.000000  magneticMoment: [ Abs: 0.76000  Tot: +0.76000 ]
LCAOMinimize: Iter:   1  F: -1.1553026778484539  |grad|_K:  1.107e-06  alpha:  1.053e+00  linmin: -1.467e-03  cgtest:  1.571e-02  t[s]:      3.98
[d-5-12-1:85126] 18 more processes have sent help message help-mpi-common-cuda.txt / dlopen failed
[d-5-12-1:85126] Set MCA parameter "orte_base_help_aggregate" to 0 to see all help / error messages
[d-5-12-1:85126] 18 more processes have sent help message help-mpi-btl-openib-cpc-base.txt / no cpcs for port
	FillingsUpdate:  mu: +0.315942957  nElectrons: 3.000000  magneticMoment: [ Abs: 0.76000  Tot: +0.76000 ]
LCAOMinimize: Iter:   2  F: -1.1553026780620799  |grad|_K:  3.978e-08  alpha:  1.021e+00  linmin:  5.239e-05  cgtest: -2.977e-03  t[s]:      5.01
LCAOMinimize: Converged (|Delta F|<1.000000e-06 for 2 iters).


---- Citations for features of the code used in this run ----

   Software package:
      R. Sundararaman, K. Letchworth-Weaver, K.A. Schwarz, D. Gunceler, Y. Ozhabes and T.A. Arias, 'JDFTx: software for joint density-functional theory', SoftwareX 6, 278 (2017)

   gga-PBE exchange-correlation functional:
      J.P. Perdew, K. Burke and M. Ernzerhof, Phys. Rev. Lett. 77, 3865 (1996)

   Pseudopotentials:
      M Schlipf and F Gygi, Comput. Phys. Commun. 196, 36 (2015)

   Truncated Coulomb potentials:
      R. Sundararaman and T.A. Arias, Phys. Rev. B 87, 165122 (2013)

This list may not be complete. Please suggest additional citations or
report any other bugs at https://github.com/shankar1729/jdftx/issues

Initialization completed successfully at t[s]:      5.07


-------- Electronic minimization -----------
Will mix electronic density at each iteration.
	FillingsUpdate:  mu: +0.315942957  nElectrons: 3.000000  magneticMoment: [ Abs: 0.76000  Tot: +0.76000 ]
	FillingsUpdate:  mu: -0.999457120  nElectrons: 3.000000  magneticMoment: [ Abs: 0.76000  Tot: +0.76000 ]
SCF: Cycle:  0   F: -6.833558150130221   dF: -5.678e+00   |Residual|: 1.173e+00   |deigs|: 4.169e+00  t[s]:      6.77
	FillingsUpdate:  mu: -0.879671097  nElectrons: 3.000000  magneticMoment: [ Abs: 1.20974  Tot: +0.76000 ]
SCF: Cycle:  1   F: -6.930468655629369   dF: -9.691e-02   |Residual|: 7.767e-01   |deigs|: 2.365e-01  t[s]:      8.06
	FillingsUpdate:  mu: -0.682107060  nElectrons: 3.000000  magneticMoment: [ Abs: 1.54199  Tot: +0.76000 ]
SCF: Cycle:  2   F: -7.042582220783880   dF: -1.121e-01   |Residual|: 4.149e-01   |deigs|: 7.718e-01  t[s]:      9.40
	FillingsUpdate:  mu: -0.692415306  nElectrons: 3.000000  magneticMoment: [ Abs: 1.26589  Tot: +0.76000 ]
SCF: Cycle:  3   F: -7.050234006544321   dF: -7.652e-03   |Residual|: 1.791e-01   |deigs|: 1.342e-01  t[s]:     10.77
	FillingsUpdate:  mu: -0.632659488  nElectrons: 3.000000  magneticMoment: [ Abs: 0.98484  Tot: +0.76000 ]
SCF: Cycle:  4   F: -7.050744852326294   dF: -5.108e-04   |Residual|: 4.538e-02   |deigs|: 4.331e-02  t[s]:     12.21
	FillingsUpdate:  mu: -0.610751974  nElectrons: 3.000000  magneticMoment: [ Abs: 0.96052  Tot: +0.76000 ]
SCF: Cycle:  5   F: -7.051641884587191   dF: -8.970e-04   |Residual|: 6.841e-02   |deigs|: 1.852e-02  t[s]:     13.59
	FillingsUpdate:  mu: -0.465702012  nElectrons: 3.000000  magneticMoment: [ Abs: 1.06859  Tot: +0.76000 ]
SCF: Cycle:  6   F: -7.056317713029211   dF: -4.676e-03   |Residual|: 9.867e-02   |deigs|: 1.550e-01  t[s]:     15.06
	FillingsUpdate:  mu: -0.450165167  nElectrons: 3.000000  magneticMoment: [ Abs: 1.00355  Tot: +0.76000 ]
SCF: Cycle:  7   F: -7.057062681802818   dF: -7.450e-04   |Residual|: 3.653e-02   |deigs|: 4.359e-02  t[s]:     16.51
	FillingsUpdate:  mu: -0.414908765  nElectrons: 3.000000  magneticMoment: [ Abs: 0.95549  Tot: +0.76000 ]
SCF: Cycle:  8   F: -7.059020047329593   dF: -1.957e-03   |Residual|: 4.358e-02   |deigs|: 3.709e-02  t[s]:     17.97
	FillingsUpdate:  mu: -0.373179229  nElectrons: 3.000000  magneticMoment: [ Abs: 0.89795  Tot: +0.76000 ]
SCF: Cycle:  9   F: -7.060848479831813   dF: -1.828e-03   |Residual|: 2.448e-02   |deigs|: 3.487e-02  t[s]:     19.45
	FillingsUpdate:  mu: -0.340313829  nElectrons: 3.000000  magneticMoment: [ Abs: 0.89187  Tot: +0.76000 ]
SCF: Cycle: 10   F: -7.061620309174351   dF: -7.718e-04   |Residual|: 2.622e-02   |deigs|: 2.829e-02  t[s]:     20.99
	FillingsUpdate:  mu: -0.298367615  nElectrons: 3.000000  magneticMoment: [ Abs: 0.95127  Tot: +0.76000 ]
SCF: Cycle: 11   F: -7.062011381029681   dF: -3.911e-04   |Residual|: 1.727e-02   |deigs|: 4.594e-02  t[s]:     22.53
	FillingsUpdate:  mu: -0.259540819  nElectrons: 3.000000  magneticMoment: [ Abs: 0.96740  Tot: +0.76000 ]
SCF: Cycle: 12   F: -7.062349293050464   dF: -3.379e-04   |Residual|: 1.381e-02   |deigs|: 4.077e-02  t[s]:     24.12
	FillingsUpdate:  mu: -0.215371664  nElectrons: 3.000000  magneticMoment: [ Abs: 0.93967  Tot: +0.76000 ]
SCF: Cycle: 13   F: -7.062622753456538   dF: -2.735e-04   |Residual|: 1.196e-02   |deigs|: 4.322e-02  t[s]:     25.67
	FillingsUpdate:  mu: -0.166642660  nElectrons: 3.000000  magneticMoment: [ Abs: 0.87741  Tot: +0.76000 ]
SCF: Cycle: 14   F: -7.062595878414945   dF: +2.688e-05   |Residual|: 9.894e-03   |deigs|: 4.957e-02  t[s]:     27.20
	FillingsUpdate:  mu: -0.132630015  nElectrons: 3.000000  magneticMoment: [ Abs: 0.84992  Tot: +0.76000 ]
SCF: Cycle: 15   F: -7.062708596009013   dF: -1.127e-04   |Residual|: 7.310e-03   |deigs|: 3.426e-02  t[s]:     28.73
	FillingsUpdate:  mu: -0.119326585  nElectrons: 3.000000  magneticMoment: [ Abs: 0.83183  Tot: +0.76000 ]
SCF: Cycle: 16   F: -7.062987997531994   dF: -2.794e-04   |Residual|: 5.664e-03   |deigs|: 1.373e-02  t[s]:     30.28
	FillingsUpdate:  mu: -0.110797664  nElectrons: 3.000000  magneticMoment: [ Abs: 0.81232  Tot: +0.76000 ]
SCF: Cycle: 17   F: -7.063197841183003   dF: -2.098e-04   |Residual|: 3.519e-03   |deigs|: 9.346e-03  t[s]:     31.82
	FillingsUpdate:  mu: -0.108175363  nElectrons: 3.000000  magneticMoment: [ Abs: 0.79196  Tot: +0.76000 ]
SCF: Cycle: 18   F: -7.063268674314347   dF: -7.083e-05   |Residual|: 2.150e-03   |deigs|: 3.176e-03  t[s]:     33.35
	FillingsUpdate:  mu: -0.108142718  nElectrons: 3.000000  magneticMoment: [ Abs: 0.77887  Tot: +0.76000 ]
SCF: Cycle: 19   F: -7.063292549476315   dF: -2.388e-05   |Residual|: 1.377e-03   |deigs|: 1.496e-03  t[s]:     34.92
	FillingsUpdate:  mu: -0.108964520  nElectrons: 3.000000  magneticMoment: [ Abs: 0.77130  Tot: +0.76000 ]
SCF: Cycle: 20   F: -7.063304821771502   dF: -1.227e-05   |Residual|: 1.017e-03   |deigs|: 1.084e-03  t[s]:     36.46
	FillingsUpdate:  mu: -0.108176427  nElectrons: 3.000000  magneticMoment: [ Abs: 0.76969  Tot: +0.76000 ]
SCF: Cycle: 21   F: -7.063312613406399   dF: -7.792e-06   |Residual|: 8.064e-04   |deigs|: 8.700e-04  t[s]:     38.02
	FillingsUpdate:  mu: -0.107308894  nElectrons: 3.000000  magneticMoment: [ Abs: 0.76682  Tot: +0.76000 ]
SCF: Cycle: 22   F: -7.063311751751786   dF: +8.617e-07   |Residual|: 5.791e-04   |deigs|: 1.161e-03  t[s]:     39.58
	FillingsUpdate:  mu: -0.106679691  nElectrons: 3.000000  magneticMoment: [ Abs: 0.76445  Tot: +0.76000 ]
SCF: Cycle: 23   F: -7.063314143011084   dF: -2.391e-06   |Residual|: 4.700e-04   |deigs|: 9.018e-04  t[s]:     41.13
	FillingsUpdate:  mu: -0.106492971  nElectrons: 3.000000  magneticMoment: [ Abs: 0.76294  Tot: +0.76000 ]
SCF: Cycle: 24   F: -7.063314089787117   dF: +5.322e-08   |Residual|: 3.347e-04   |deigs|: 1.866e-04  t[s]:     42.67
	FillingsUpdate:  mu: -0.106372882  nElectrons: 3.000000  magneticMoment: [ Abs: 0.76237  Tot: +0.76000 ]
SCF: Cycle: 25   F: -7.063314959210777   dF: -8.694e-07   |Residual|: 2.349e-04   |deigs|: 1.417e-04  t[s]:     44.28
	FillingsUpdate:  mu: -0.106261095  nElectrons: 3.000000  magneticMoment: [ Abs: 0.76132  Tot: +0.76000 ]
SCF: Cycle: 26   F: -7.063315499079621   dF: -5.399e-07   |Residual|: 1.551e-04   |deigs|: 1.007e-04  t[s]:     45.78
	FillingsUpdate:  mu: -0.106261878  nElectrons: 3.000000  magneticMoment: [ Abs: 0.76072  Tot: +0.76000 ]
SCF: Cycle: 27   F: -7.063315730152781   dF: -2.311e-07   |Residual|: 7.635e-05   |deigs|: 8.652e-05  t[s]:     47.29
	FillingsUpdate:  mu: -0.106291448  nElectrons: 3.000000  magneticMoment: [ Abs: 0.76044  Tot: +0.76000 ]
SCF: Cycle: 28   F: -7.063315831437932   dF: -1.013e-07   |Residual|: 4.870e-05   |deigs|: 4.372e-05  t[s]:     48.81
	FillingsUpdate:  mu: -0.106313392  nElectrons: 3.000000  magneticMoment: [ Abs: 0.76020  Tot: +0.76000 ]
SCF: Cycle: 29   F: -7.063315861280005   dF: -2.984e-08   |Residual|: 2.331e-05   |deigs|: 2.514e-05  t[s]:     50.28
	FillingsUpdate:  mu: -0.106339612  nElectrons: 3.000000  magneticMoment: [ Abs: 0.76015  Tot: +0.76000 ]
SCF: Cycle: 30   F: -7.063315869349470   dF: -8.069e-09   |Residual|: 1.748e-05   |deigs|: 2.402e-05  t[s]:     51.79
	FillingsUpdate:  mu: -0.106377303  nElectrons: 3.000000  magneticMoment: [ Abs: 0.76012  Tot: +0.76000 ]
SCF: Cycle: 31   F: -7.063315870811145   dF: -1.462e-09   |Residual|: 1.347e-05   |deigs|: 3.657e-05  t[s]:     53.33
SCF: Converged (|Delta E|<1.000000e-08 for 2 iters).


# Ionic positions in lattice coordinates:
ion Li   0.000000000000000   0.000000000000000   0.000000000000000 0

# Forces in Lattice coordinates:
force Li   0.000000000000000  -0.000000000000000   0.000000000000000 0

# Energy components:
   Eewald =       -2.0053362333702967
       EH =        1.5410722381727624
     Eloc =       -6.2037958553108119
      Enl =       -3.5898648721101463
   Epulay =        0.0000032255226020
      Exc =       -1.5437851895633212
       KE =        4.7383911301111699
-------------------------------------
     Etot =       -7.0633155565480408
       TS =        0.0000003142631044
-------------------------------------
        F =       -7.0633158708111452

IonicMinimize: Iter:   0  F: -7.063315870811145  |grad|_K:  0.000e+00  t[s]:     53.40
IonicMinimize: Converged (|grad|_K<1.000000e-04).

#--- Lowdin population analysis ---
# oxidation-state Li +2.235
# magnetic-moments Li +0.530

End date and time: Sat Feb  5 23:08:55 2022  (Duration: 0-0:00:53.41)
Done!
scale=3
magnetization=0.76
--------------------------------------------------------------------------
The library attempted to open the following supporting CUDA libraries,
but each of them failed.  CUDA-aware support is disabled.
libcuda.so.1: cannot open shared object file: No such file or directory
libcuda.dylib: cannot open shared object file: No such file or directory
/usr/lib64/libcuda.so.1: cannot open shared object file: No such file or directory
/usr/lib64/libcuda.dylib: cannot open shared object file: No such file or directory
If you are not interested in CUDA-aware support, then run with
--mca opal_warn_on_missing_libcuda 0 to suppress this message.  If you are interested
in CUDA-aware support, then try setting LD_LIBRARY_PATH to the location
of libcuda.so.1 to get passed this issue.
--------------------------------------------------------------------------
--------------------------------------------------------------------------
No OpenFabrics connection schemes reported that they were able to be
used on a specific port.  As such, the openib BTL (OpenFabrics
support) will be disabled for this port.

  Local host:           d-5-12-1
  Local device:         mlx5_1
  Local port:           1
  CPCs attempted:       rdmacm, udcm
--------------------------------------------------------------------------

*************** JDFTx 1.6.0 (git hash 42ebbcc2) ***************

Start date and time: Sat Feb  5 23:08:56 2022
Executable jdftx with command-line: -i Alkali.in
Running on hosts (process indices):  d-5-12-1 (0-18)
Divided in process groups (process indices):  0 (0)  1 (1)  2 (2)  3 (3)  4 (4)  5 (5)  6 (6)  7 (7)  8 (8)  9 (9)  10 (10)  11 (11)  12 (12)  13 (13)  14 (14)  15 (15)  16 (16)  17 (17)  18 (18)
Resource initialization completed at t[s]:      0.00
Run totals: 19 processes, 48 threads, 0 GPUs


Input parsed successfully to the following command list (including defaults):

basis kpoint-dependent
coords-type Lattice
core-overlap-check vector
coulomb-interaction Slab 001
davidson-band-ratio 1.1
dump End None
dump-name $INPUT.$VAR
elec-cutoff 20
elec-eigen-algo Davidson
elec-ex-corr gga-PBE
elec-initial-magnetization 0.760000 yes
elec-smearing Fermi 1e-05
electronic-minimize  \
	dirUpdateScheme      FletcherReeves \
	linminMethod         DirUpdateRecommended \
	nIterations          100 \
	history              15 \
	knormThreshold       0 \
	energyDiffThreshold  1e-08 \
	nEnergyDiff          2 \
	alphaTstart          1 \
	alphaTmin            1e-10 \
	updateTestStepSize   yes \
	alphaTreduceFactor   0.1 \
	alphaTincreaseFactor 3 \
	nAlphaAdjustMax      3 \
	wolfeEnergy          0.0001 \
	wolfeGradient        0.9 \
	fdTest               no
electronic-scf  \
	nIterations	10000 \
	energyDiffThreshold	1e-08 \
	residualThreshold	1e-07 \
	mixFraction	0.5 \
	qMetric	0.8 \
	history	10 \
	nEigSteps	2 \
	eigDiffThreshold	1e-08 \
	mixedVariable	Density \
	qKerker	0.8 \
	qKappa	-1 \
	verbose	no \
	mixFractionMag	1.5
exchange-regularization WignerSeitzTruncated
fluid None
fluid-ex-corr (null) lda-PZ
fluid-gummel-loop 10 1.000000e-05
fluid-minimize  \
	dirUpdateScheme      PolakRibiere \
	linminMethod         DirUpdateRecommended \
	nIterations          100 \
	history              15 \
	knormThreshold       0 \
	energyDiffThreshold  0 \
	nEnergyDiff          2 \
	alphaTstart          1 \
	alphaTmin            1e-10 \
	updateTestStepSize   yes \
	alphaTreduceFactor   0.1 \
	alphaTincreaseFactor 3 \
	nAlphaAdjustMax      3 \
	wolfeEnergy          0.0001 \
	wolfeGradient        0.9 \
	fdTest               no
fluid-solvent H2O 55.338 ScalarEOS \
	epsBulk 78.4 \
	pMol 0.92466 \
	epsInf 1.77 \
	Pvap 1.06736e-10 \
	sigmaBulk 4.62e-05 \
	Rvdw 2.61727 \
	Res 1.42 \
	tauNuc 343133 \
	poleEl 15 7 1
forces-output-coords Positions
ion Li   0.000000000000000   0.000000000000000   0.000000000000000 0
ion-species SG15/$ID_ONCV_PBE.upf
ion-width 0
ionic-minimize  \
	dirUpdateScheme      L-BFGS \
	linminMethod         DirUpdateRecommended \
	nIterations          0 \
	history              15 \
	knormThreshold       0.0001 \
	energyDiffThreshold  1e-06 \
	nEnergyDiff          2 \
	alphaTstart          1 \
	alphaTmin            1e-10 \
	updateTestStepSize   yes \
	alphaTreduceFactor   0.1 \
	alphaTincreaseFactor 3 \
	nAlphaAdjustMax      3 \
	wolfeEnergy          0.0001 \
	wolfeGradient        0.9 \
	fdTest               no
kpoint   0.000000000000   0.000000000000   0.000000000000  1.00000000000000
kpoint-folding 12 12 1 
latt-move-scale 1 1 1
latt-scale 3 3 1 
lattice  \
	   4.727486978767153   -2.363743489383575    0.000000000000000  \
	  -0.000000000000000    4.094123819672498    0.000000000000000  \
	   0.000000000000000    0.000000000000000   40.000000000000000 
lattice-minimize  \
	dirUpdateScheme      L-BFGS \
	linminMethod         DirUpdateRecommended \
	nIterations          0 \
	history              15 \
	knormThreshold       0 \
	energyDiffThreshold  1e-06 \
	nEnergyDiff          2 \
	alphaTstart          1 \
	alphaTmin            1e-10 \
	updateTestStepSize   yes \
	alphaTreduceFactor   0.1 \
	alphaTincreaseFactor 3 \
	nAlphaAdjustMax      3 \
	wolfeEnergy          0.0001 \
	wolfeGradient        0.9 \
	fdTest               no
lcao-params -1 1e-06 1e-05
pcm-variant GLSSA13
spintype z-spin
subspace-rotation-factor 1 yes
symmetries automatic
symmetry-threshold 0.0001



---------- Setting up symmetries ----------

Found 24 point-group symmetries of the bravais lattice
Found 24 space-group symmetries with basis
Applied RMS atom displacement 0 bohrs to make symmetries exact.

---------- Initializing the Grid ----------
R = 
[      14.1825     -7.09123            0  ]
[            0      12.2824            0  ]
[            0            0           40  ]
unit cell volume = 6967.77
G =
[   0.443025   0.255781         -0  ]
[          0   0.511561         -0  ]
[         -0         -0    0.15708  ]
Minimum fftbox size, Smin = [  60  60  164  ]
Chosen fftbox size, S = [  60  60  168  ]

---------- Exchange Correlation functional ----------
Initalized PBE GGA exchange.
Initalized PBE GGA correlation.

---------- Setting up pseudopotentials ----------
Width of ionic core gaussian charges (only for fluid interactions / plotting) set to 0

Reading pseudopotential file '/home/gridsan/aligho/DFT/build-Nov24/pseudopotentials/SG15/Li_ONCV_PBE.upf':
  'Li' pseudopotential, 'PBE' functional
  Generated using ONCVPSP code by D. R. Hamann
  Author: Martin Schlipf and Francois Gygi  Date: 150915.
  3 valence electrons, 2 orbitals, 4 projectors, 1328 radial grid points, with lMax = 1
  Transforming local potential to a uniform radial grid of dG=0.02 with 1489 points.
  Transforming nonlocal projectors to a uniform radial grid of dG=0.02 with 432 points.
    1S    l: 0   occupation:  2.0   eigenvalue: -1.905623
    2S    l: 0   occupation:  1.0   eigenvalue: -0.105624
  Transforming atomic orbitals to a uniform radial grid of dG=0.02 with 432 points.
  WARNING: large normalization error in atomic orbital 1s (integral: 0.000000).
  Core radius for overlap checks: 1.63 bohrs.
  Reading pulay file /home/gridsan/aligho/DFT/build-Nov24/pseudopotentials/SG15/Li_ONCV_PBE.pulay ... using dE_dnG = -1.230239e-02 computed for Ecut = 20.

Initialized 1 species with 1 total atoms.

Folded 1 k-points by 12x12x1 to 144 k-points.

---------- Setting up k-points, bands, fillings ----------
Reduced to 19 k-points under symmetry. 
Computing the number of bands and number of electrons
Calculating initial fillings.
nElectrons:   3.000000   nBands: 3   nStates: 38

----- Setting up reduced wavefunction bases (one per k-point) -----
average nbasis = 29766.104 , ideal nbasis = 29766.845

---------- Setting up coulomb interaction ----------
Initialized slab truncation along lattice direction 001

---------- Setting up 2D ewald sum ----------
Optimum gaussian width for ewald sums = 7.873530 bohr.
Real space sums over 289 unit cells with max indices [  8  8  0  ]
Reciprocal space sums over 81 terms with max indices [  4  4  0  ]

---------- Allocating electronic variables ----------
Initializing wave functions:  linear combination of atomic orbitals
Note: number of bands (3) exceeds available atomic orbitals (2)
Li pseudo-atom occupations:   s ( 2 1 )
[d-5-12-1:34414] 18 more processes have sent help message help-mpi-common-cuda.txt / dlopen failed
[d-5-12-1:34414] Set MCA parameter "orte_base_help_aggregate" to 0 to see all help / error messages
[d-5-12-1:34414] 18 more processes have sent help message help-mpi-btl-openib-cpc-base.txt / no cpcs for port
	FillingsUpdate:  mu: +0.360416210  nElectrons: 3.000000  magneticMoment: [ Abs: 0.76000  Tot: +0.76000 ]
LCAOMinimize: Iter:   0  F: -1.2828755892867869  |grad|_K:  4.577e-05  alpha:  1.000e+00
	FillingsUpdate:  mu: +0.360415917  nElectrons: 3.000000  magneticMoment: [ Abs: 0.76000  Tot: +0.76000 ]
LCAOMinimize: Iter:   1  F: -1.2828759687172735  |grad|_K:  2.995e-07  alpha:  1.059e+00  linmin: -3.419e-03  cgtest:  1.395e-02  t[s]:      7.57
LCAOMinimize: Encountered beta<0, resetting CG.
	FillingsUpdate:  mu: +0.360415918  nElectrons: 3.000000  magneticMoment: [ Abs: 0.76000  Tot: +0.76000 ]
LCAOMinimize: Iter:   2  F: -1.2828759687354807  |grad|_K:  8.391e-08  alpha:  1.335e+00  linmin:  2.638e-02  cgtest: -9.771e-01  t[s]:      9.57
LCAOMinimize: Converged (|Delta F|<1.000000e-06 for 2 iters).


---- Citations for features of the code used in this run ----

   Software package:
      R. Sundararaman, K. Letchworth-Weaver, K.A. Schwarz, D. Gunceler, Y. Ozhabes and T.A. Arias, 'JDFTx: software for joint density-functional theory', SoftwareX 6, 278 (2017)

   gga-PBE exchange-correlation functional:
      J.P. Perdew, K. Burke and M. Ernzerhof, Phys. Rev. Lett. 77, 3865 (1996)

   Pseudopotentials:
      M Schlipf and F Gygi, Comput. Phys. Commun. 196, 36 (2015)

   Truncated Coulomb potentials:
      R. Sundararaman and T.A. Arias, Phys. Rev. B 87, 165122 (2013)

This list may not be complete. Please suggest additional citations or
report any other bugs at https://github.com/shankar1729/jdftx/issues

Initialization completed successfully at t[s]:      9.66


-------- Electronic minimization -----------
Will mix electronic density at each iteration.
	FillingsUpdate:  mu: +0.360415918  nElectrons: 3.000000  magneticMoment: [ Abs: 0.76000  Tot: +0.76000 ]
	FillingsUpdate:  mu: -0.693799763  nElectrons: 3.000000  magneticMoment: [ Abs: 0.76000  Tot: +0.76000 ]
SCF: Cycle:  0   F: -6.882971726053384   dF: -5.600e+00   |Residual|: 1.224e+00   |deigs|: 4.156e+00  t[s]:     13.16
	FillingsUpdate:  mu: -0.569627521  nElectrons: 3.000000  magneticMoment: [ Abs: 1.21473  Tot: +0.76000 ]
SCF: Cycle:  1   F: -6.916858966872106   dF: -3.389e-02   |Residual|: 7.654e-01   |deigs|: 2.737e-01  t[s]:     15.90
	FillingsUpdate:  mu: -0.375612544  nElectrons: 3.000000  magneticMoment: [ Abs: 1.66799  Tot: +0.76000 ]
SCF: Cycle:  2   F: -7.039276311173541   dF: -1.224e-01   |Residual|: 3.336e-01   |deigs|: 7.085e-01  t[s]:     18.69
	FillingsUpdate:  mu: -0.383046638  nElectrons: 3.000000  magneticMoment: [ Abs: 1.47419  Tot: +0.76000 ]
SCF: Cycle:  3   F: -7.040753775753890   dF: -1.477e-03   |Residual|: 1.695e-01   |deigs|: 8.826e-02  t[s]:     21.57
	FillingsUpdate:  mu: -0.335215851  nElectrons: 3.000000  magneticMoment: [ Abs: 1.21293  Tot: +0.76000 ]
SCF: Cycle:  4   F: -7.044213997463673   dF: -3.460e-03   |Residual|: 3.867e-02   |deigs|: 3.984e-02  t[s]:     24.50
	FillingsUpdate:  mu: -0.312486462  nElectrons: 3.000000  magneticMoment: [ Abs: 1.12327  Tot: +0.76000 ]
SCF: Cycle:  5   F: -7.044968736085320   dF: -7.547e-04   |Residual|: 6.720e-02   |deigs|: 2.267e-02  t[s]:     27.46
	FillingsUpdate:  mu: -0.281224469  nElectrons: 3.000000  magneticMoment: [ Abs: 0.94725  Tot: +0.76000 ]
SCF: Cycle:  6   F: -7.046646172485232   dF: -1.677e-03   |Residual|: 4.110e-02   |deigs|: 5.483e-02  t[s]:     30.47
	FillingsUpdate:  mu: -0.263182261  nElectrons: 3.000000  magneticMoment: [ Abs: 0.90753  Tot: +0.76000 ]
SCF: Cycle:  7   F: -7.048425333407287   dF: -1.779e-03   |Residual|: 2.987e-02   |deigs|: 3.949e-02  t[s]:     33.61
	FillingsUpdate:  mu: -0.255238375  nElectrons: 3.000000  magneticMoment: [ Abs: 0.87346  Tot: +0.76000 ]
SCF: Cycle:  8   F: -7.049031701915797   dF: -6.064e-04   |Residual|: 5.595e-02   |deigs|: 1.392e-02  t[s]:     36.73
	FillingsUpdate:  mu: -0.235917751  nElectrons: 3.000000  magneticMoment: [ Abs: 0.83365  Tot: +0.76000 ]
SCF: Cycle:  9   F: -7.049996236789871   dF: -9.645e-04   |Residual|: 1.646e-02   |deigs|: 1.787e-02  t[s]:     39.96
	FillingsUpdate:  mu: -0.207724374  nElectrons: 3.000000  magneticMoment: [ Abs: 0.90051  Tot: +0.76000 ]
SCF: Cycle: 10   F: -7.050399342725957   dF: -4.031e-04   |Residual|: 6.903e-02   |deigs|: 2.452e-02  t[s]:     43.21
	FillingsUpdate:  mu: -0.190622746  nElectrons: 3.000000  magneticMoment: [ Abs: 0.93674  Tot: +0.76000 ]
SCF: Cycle: 11   F: -7.050589750658012   dF: -1.904e-04   |Residual|: 1.260e-02   |deigs|: 2.830e-02  t[s]:     46.47
	FillingsUpdate:  mu: -0.173922961  nElectrons: 3.000000  magneticMoment: [ Abs: 0.95626  Tot: +0.76000 ]
SCF: Cycle: 12   F: -7.050786101279754   dF: -1.964e-04   |Residual|: 9.966e-03   |deigs|: 1.722e-02  t[s]:     49.77
	FillingsUpdate:  mu: -0.150110373  nElectrons: 3.000000  magneticMoment: [ Abs: 0.94804  Tot: +0.76000 ]
SCF: Cycle: 13   F: -7.050691377707200   dF: +9.472e-05   |Residual|: 7.922e-03   |deigs|: 2.529e-02  t[s]:     53.10
	FillingsUpdate:  mu: -0.136787450  nElectrons: 3.000000  magneticMoment: [ Abs: 0.91526  Tot: +0.76000 ]
SCF: Cycle: 14   F: -7.050721191705074   dF: -2.981e-05   |Residual|: 7.754e-03   |deigs|: 1.453e-02  t[s]:     56.42
	FillingsUpdate:  mu: -0.124709822  nElectrons: 3.000000  magneticMoment: [ Abs: 0.88818  Tot: +0.76000 ]
SCF: Cycle: 15   F: -7.050867086357586   dF: -1.459e-04   |Residual|: 6.850e-03   |deigs|: 1.263e-02  t[s]:     59.70
	FillingsUpdate:  mu: -0.112442076  nElectrons: 3.000000  magneticMoment: [ Abs: 0.83828  Tot: +0.76000 ]
SCF: Cycle: 16   F: -7.051158792698071   dF: -2.917e-04   |Residual|: 4.430e-03   |deigs|: 1.291e-02  t[s]:     63.04
	FillingsUpdate:  mu: -0.104621065  nElectrons: 3.000000  magneticMoment: [ Abs: 0.80397  Tot: +0.76000 ]
SCF: Cycle: 17   F: -7.051306805554401   dF: -1.480e-04   |Residual|: 2.955e-03   |deigs|: 8.855e-03  t[s]:     66.39
	FillingsUpdate:  mu: -0.102607710  nElectrons: 3.000000  magneticMoment: [ Abs: 0.79462  Tot: +0.76000 ]
SCF: Cycle: 18   F: -7.051352792567801   dF: -4.599e-05   |Residual|: 2.140e-03   |deigs|: 2.586e-03  t[s]:     69.69
	FillingsUpdate:  mu: -0.101843881  nElectrons: 3.000000  magneticMoment: [ Abs: 0.79008  Tot: +0.76000 ]
SCF: Cycle: 19   F: -7.051385721849908   dF: -3.293e-05   |Residual|: 1.395e-03   |deigs|: 1.218e-03  t[s]:     72.96
	FillingsUpdate:  mu: -0.101364652  nElectrons: 3.000000  magneticMoment: [ Abs: 0.78642  Tot: +0.76000 ]
SCF: Cycle: 20   F: -7.051413333352534   dF: -2.761e-05   |Residual|: 8.455e-04   |deigs|: 9.337e-04  t[s]:     76.20
	FillingsUpdate:  mu: -0.101960403  nElectrons: 3.000000  magneticMoment: [ Abs: 0.78045  Tot: +0.76000 ]
SCF: Cycle: 21   F: -7.051424182586797   dF: -1.085e-05   |Residual|: 5.895e-04   |deigs|: 6.415e-04  t[s]:     79.48
	FillingsUpdate:  mu: -0.102078769  nElectrons: 3.000000  magneticMoment: [ Abs: 0.77554  Tot: +0.76000 ]
SCF: Cycle: 22   F: -7.051430216440369   dF: -6.034e-06   |Residual|: 3.832e-04   |deigs|: 2.595e-04  t[s]:     82.72
	FillingsUpdate:  mu: -0.102654022  nElectrons: 3.000000  magneticMoment: [ Abs: 0.76867  Tot: +0.76000 ]
SCF: Cycle: 23   F: -7.051429413659047   dF: +8.028e-07   |Residual|: 3.344e-04   |deigs|: 6.381e-04  t[s]:     85.96
	FillingsUpdate:  mu: -0.103063800  nElectrons: 3.000000  magneticMoment: [ Abs: 0.76385  Tot: +0.76000 ]
SCF: Cycle: 24   F: -7.051433113901586   dF: -3.700e-06   |Residual|: 2.388e-04   |deigs|: 5.256e-04  t[s]:     89.24
	FillingsUpdate:  mu: -0.103227753  nElectrons: 3.000000  magneticMoment: [ Abs: 0.76162  Tot: +0.76000 ]
SCF: Cycle: 25   F: -7.051433503209828   dF: -3.893e-07   |Residual|: 1.790e-04   |deigs|: 2.630e-04  t[s]:     92.47
	FillingsUpdate:  mu: -0.103380000  nElectrons: 3.000000  magneticMoment: [ Abs: 0.76061  Tot: +0.76000 ]
SCF: Cycle: 26   F: -7.051434357664098   dF: -8.545e-07   |Residual|: 1.136e-04   |deigs|: 2.477e-04  t[s]:     95.70
	FillingsUpdate:  mu: -0.103433829  nElectrons: 3.000000  magneticMoment: [ Abs: 0.76046  Tot: +0.76000 ]
SCF: Cycle: 27   F: -7.051434626771552   dF: -2.691e-07   |Residual|: 7.544e-05   |deigs|: 1.118e-04  t[s]:     98.95
	FillingsUpdate:  mu: -0.103428864  nElectrons: 3.000000  magneticMoment: [ Abs: 0.76037  Tot: +0.76000 ]
SCF: Cycle: 28   F: -7.051434751841987   dF: -1.251e-07   |Residual|: 6.193e-05   |deigs|: 5.999e-05  t[s]:    102.19
	FillingsUpdate:  mu: -0.103407547  nElectrons: 3.000000  magneticMoment: [ Abs: 0.76033  Tot: +0.76000 ]
SCF: Cycle: 29   F: -7.051434735241763   dF: +1.660e-08   |Residual|: 5.218e-05   |deigs|: 4.814e-05  t[s]:    105.53
	FillingsUpdate:  mu: -0.103301377  nElectrons: 3.000000  magneticMoment: [ Abs: 0.76028  Tot: +0.76000 ]
SCF: Cycle: 30   F: -7.051434771096720   dF: -3.585e-08   |Residual|: 3.578e-05   |deigs|: 1.234e-04  t[s]:    108.83
	FillingsUpdate:  mu: -0.103255149  nElectrons: 3.000000  magneticMoment: [ Abs: 0.76014  Tot: +0.76000 ]
SCF: Cycle: 31   F: -7.051434807954732   dF: -3.686e-08   |Residual|: 2.181e-05   |deigs|: 5.062e-05  t[s]:    112.05
	FillingsUpdate:  mu: -0.103238038  nElectrons: 3.000000  magneticMoment: [ Abs: 0.76005  Tot: +0.76000 ]
SCF: Cycle: 32   F: -7.051434853856348   dF: -4.590e-08   |Residual|: 1.418e-05   |deigs|: 2.335e-05  t[s]:    115.30
	FillingsUpdate:  mu: -0.103231671  nElectrons: 3.000000  magneticMoment: [ Abs: 0.76002  Tot: +0.76000 ]
SCF: Cycle: 33   F: -7.051434868683399   dF: -1.483e-08   |Residual|: 1.030e-05   |deigs|: 1.370e-05  t[s]:    118.57
	FillingsUpdate:  mu: -0.103220351  nElectrons: 3.000000  magneticMoment: [ Abs: 0.76001  Tot: +0.76000 ]
SCF: Cycle: 34   F: -7.051434873817802   dF: -5.134e-09   |Residual|: 6.791e-06   |deigs|: 1.391e-05  t[s]:    121.95
	FillingsUpdate:  mu: -0.103210753  nElectrons: 3.000000  magneticMoment: [ Abs: 0.76001  Tot: +0.76000 ]
SCF: Cycle: 35   F: -7.051434875818962   dF: -2.001e-09   |Residual|: 4.517e-06   |deigs|: 1.125e-05  t[s]:    125.30
SCF: Converged (|Delta E|<1.000000e-08 for 2 iters).


# Ionic positions in lattice coordinates:
ion Li   0.000000000000000   0.000000000000000   0.000000000000000 0

# Forces in Lattice coordinates:
force Li   0.000000000000000   0.000000000000000   0.000000000000000 0

# Energy components:
   Eewald =       -1.3368908222468645
       EH =        2.2186864361245315
     Eloc =       -7.5634473512542097
      Enl =       -3.6042299876793713
   Epulay =       -0.0000013080581827
      Exc =       -1.5416253611861275
       KE =        4.7760740551168066
-------------------------------------
     Etot =       -7.0514343391834178
       TS =        0.0000005366355437
-------------------------------------
        F =       -7.0514348758189618

IonicMinimize: Iter:   0  F: -7.051434875818962  |grad|_K:  0.000e+00  t[s]:    125.44
IonicMinimize: Converged (|grad|_K<1.000000e-04).

#--- Lowdin population analysis ---
# oxidation-state Li +2.077
# magnetic-moments Li +0.701

End date and time: Sat Feb  5 23:11:01 2022  (Duration: 0-0:02:05.47)
Done!
scale=4
magnetization=0.76
--------------------------------------------------------------------------
The library attempted to open the following supporting CUDA libraries,
but each of them failed.  CUDA-aware support is disabled.
libcuda.so.1: cannot open shared object file: No such file or directory
libcuda.dylib: cannot open shared object file: No such file or directory
/usr/lib64/libcuda.so.1: cannot open shared object file: No such file or directory
/usr/lib64/libcuda.dylib: cannot open shared object file: No such file or directory
If you are not interested in CUDA-aware support, then run with
--mca opal_warn_on_missing_libcuda 0 to suppress this message.  If you are interested
in CUDA-aware support, then try setting LD_LIBRARY_PATH to the location
of libcuda.so.1 to get passed this issue.
--------------------------------------------------------------------------
--------------------------------------------------------------------------
No OpenFabrics connection schemes reported that they were able to be
used on a specific port.  As such, the openib BTL (OpenFabrics
support) will be disabled for this port.

  Local host:           d-5-12-1
  Local device:         mlx5_1
  Local port:           1
  CPCs attempted:       rdmacm, udcm
--------------------------------------------------------------------------

*************** JDFTx 1.6.0 (git hash 42ebbcc2) ***************

Start date and time: Sat Feb  5 23:11:02 2022
Executable jdftx with command-line: -i Alkali.in
Running on hosts (process indices):  d-5-12-1 (0-18)
Divided in process groups (process indices):  0 (0)  1 (1)  2 (2)  3 (3)  4 (4)  5 (5)  6 (6)  7 (7)  8 (8)  9 (9)  10 (10)  11 (11)  12 (12)  13 (13)  14 (14)  15 (15)  16 (16)  17 (17)  18 (18)
Resource initialization completed at t[s]:      0.00
Run totals: 19 processes, 48 threads, 0 GPUs


Input parsed successfully to the following command list (including defaults):

basis kpoint-dependent
coords-type Lattice
core-overlap-check vector
coulomb-interaction Slab 001
davidson-band-ratio 1.1
dump End None
dump-name $INPUT.$VAR
elec-cutoff 20
elec-eigen-algo Davidson
elec-ex-corr gga-PBE
elec-initial-magnetization 0.760000 yes
elec-smearing Fermi 1e-05
electronic-minimize  \
	dirUpdateScheme      FletcherReeves \
	linminMethod         DirUpdateRecommended \
	nIterations          100 \
	history              15 \
	knormThreshold       0 \
	energyDiffThreshold  1e-08 \
	nEnergyDiff          2 \
	alphaTstart          1 \
	alphaTmin            1e-10 \
	updateTestStepSize   yes \
	alphaTreduceFactor   0.1 \
	alphaTincreaseFactor 3 \
	nAlphaAdjustMax      3 \
	wolfeEnergy          0.0001 \
	wolfeGradient        0.9 \
	fdTest               no
electronic-scf  \
	nIterations	10000 \
	energyDiffThreshold	1e-08 \
	residualThreshold	1e-07 \
	mixFraction	0.5 \
	qMetric	0.8 \
	history	10 \
	nEigSteps	2 \
	eigDiffThreshold	1e-08 \
	mixedVariable	Density \
	qKerker	0.8 \
	qKappa	-1 \
	verbose	no \
	mixFractionMag	1.5
exchange-regularization WignerSeitzTruncated
fluid None
fluid-ex-corr (null) lda-PZ
fluid-gummel-loop 10 1.000000e-05
fluid-minimize  \
	dirUpdateScheme      PolakRibiere \
	linminMethod         DirUpdateRecommended \
	nIterations          100 \
	history              15 \
	knormThreshold       0 \
	energyDiffThreshold  0 \
	nEnergyDiff          2 \
	alphaTstart          1 \
	alphaTmin            1e-10 \
	updateTestStepSize   yes \
	alphaTreduceFactor   0.1 \
	alphaTincreaseFactor 3 \
	nAlphaAdjustMax      3 \
	wolfeEnergy          0.0001 \
	wolfeGradient        0.9 \
	fdTest               no
fluid-solvent H2O 55.338 ScalarEOS \
	epsBulk 78.4 \
	pMol 0.92466 \
	epsInf 1.77 \
	Pvap 1.06736e-10 \
	sigmaBulk 4.62e-05 \
	Rvdw 2.61727 \
	Res 1.42 \
	tauNuc 343133 \
	poleEl 15 7 1
forces-output-coords Positions
ion Li   0.000000000000000   0.000000000000000   0.000000000000000 0
ion-species SG15/$ID_ONCV_PBE.upf
ion-width 0
ionic-minimize  \
	dirUpdateScheme      L-BFGS \
	linminMethod         DirUpdateRecommended \
	nIterations          0 \
	history              15 \
	knormThreshold       0.0001 \
	energyDiffThreshold  1e-06 \
	nEnergyDiff          2 \
	alphaTstart          1 \
	alphaTmin            1e-10 \
	updateTestStepSize   yes \
	alphaTreduceFactor   0.1 \
	alphaTincreaseFactor 3 \
	nAlphaAdjustMax      3 \
	wolfeEnergy          0.0001 \
	wolfeGradient        0.9 \
	fdTest               no
kpoint   0.000000000000   0.000000000000   0.000000000000  1.00000000000000
kpoint-folding 12 12 1 
latt-move-scale 1 1 1
latt-scale 4 4 1 
lattice  \
	   4.727486978767153   -2.363743489383575    0.000000000000000  \
	  -0.000000000000000    4.094123819672498    0.000000000000000  \
	   0.000000000000000    0.000000000000000   40.000000000000000 
lattice-minimize  \
	dirUpdateScheme      L-BFGS \
	linminMethod         DirUpdateRecommended \
	nIterations          0 \
	history              15 \
	knormThreshold       0 \
	energyDiffThreshold  1e-06 \
	nEnergyDiff          2 \
	alphaTstart          1 \
	alphaTmin            1e-10 \
	updateTestStepSize   yes \
	alphaTreduceFactor   0.1 \
	alphaTincreaseFactor 3 \
	nAlphaAdjustMax      3 \
	wolfeEnergy          0.0001 \
	wolfeGradient        0.9 \
	fdTest               no
lcao-params -1 1e-06 1e-05
pcm-variant GLSSA13
spintype z-spin
subspace-rotation-factor 1 yes
symmetries automatic
symmetry-threshold 0.0001



---------- Setting up symmetries ----------

Found 24 point-group symmetries of the bravais lattice
Found 24 space-group symmetries with basis
Applied RMS atom displacement 0 bohrs to make symmetries exact.

---------- Initializing the Grid ----------
R = 
[      18.9099     -9.45497            0  ]
[            0      16.3765            0  ]
[            0            0           40  ]
unit cell volume = 12387.1
G =
[   0.332269   0.191835         -0  ]
[          0   0.383671         -0  ]
[         -0         -0    0.15708  ]
Minimum fftbox size, Smin = [  80  80  164  ]
Chosen fftbox size, S = [  80  80  168  ]

---------- Exchange Correlation functional ----------
Initalized PBE GGA exchange.
Initalized PBE GGA correlation.

---------- Setting up pseudopotentials ----------
Width of ionic core gaussian charges (only for fluid interactions / plotting) set to 0

Reading pseudopotential file '/home/gridsan/aligho/DFT/build-Nov24/pseudopotentials/SG15/Li_ONCV_PBE.upf':
  'Li' pseudopotential, 'PBE' functional
  Generated using ONCVPSP code by D. R. Hamann
  Author: Martin Schlipf and Francois Gygi  Date: 150915.
  3 valence electrons, 2 orbitals, 4 projectors, 1328 radial grid points, with lMax = 1
  Transforming local potential to a uniform radial grid of dG=0.02 with 1489 points.
  Transforming nonlocal projectors to a uniform radial grid of dG=0.02 with 432 points.
    1S    l: 0   occupation:  2.0   eigenvalue: -1.905623
    2S    l: 0   occupation:  1.0   eigenvalue: -0.105624
  Transforming atomic orbitals to a uniform radial grid of dG=0.02 with 432 points.
  WARNING: large normalization error in atomic orbital 1s (integral: 0.000000).
  Core radius for overlap checks: 1.63 bohrs.
  Reading pulay file /home/gridsan/aligho/DFT/build-Nov24/pseudopotentials/SG15/Li_ONCV_PBE.pulay ... using dE_dnG = -1.230239e-02 computed for Ecut = 20.

Initialized 1 species with 1 total atoms.

Folded 1 k-points by 12x12x1 to 144 k-points.

---------- Setting up k-points, bands, fillings ----------
Reduced to 19 k-points under symmetry. 
Computing the number of bands and number of electrons
Calculating initial fillings.
nElectrons:   3.000000   nBands: 3   nStates: 38

----- Setting up reduced wavefunction bases (one per k-point) -----
average nbasis = 52924.021 , ideal nbasis = 52918.836

---------- Setting up coulomb interaction ----------
Initialized slab truncation along lattice direction 001

---------- Setting up 2D ewald sum ----------
Optimum gaussian width for ewald sums = 10.498040 bohr.
Real space sums over 289 unit cells with max indices [  8  8  0  ]
Reciprocal space sums over 81 terms with max indices [  4  4  0  ]

---------- Allocating electronic variables ----------
Initializing wave functions:  linear combination of atomic orbitals
Note: number of bands (3) exceeds available atomic orbitals (2)
Li pseudo-atom occupations:   s ( 2 1 )
[d-5-12-1:37252] 18 more processes have sent help message help-mpi-common-cuda.txt / dlopen failed
[d-5-12-1:37252] Set MCA parameter "orte_base_help_aggregate" to 0 to see all help / error messages
[d-5-12-1:37252] 18 more processes have sent help message help-mpi-btl-openib-cpc-base.txt / no cpcs for port
	FillingsUpdate:  mu: +0.361590600  nElectrons: 3.000000  magneticMoment: [ Abs: 0.76000  Tot: +0.76000 ]
LCAOMinimize: Iter:   0  F: -1.3067144930426087  |grad|_K:  3.988e-05  alpha:  1.000e+00
	FillingsUpdate:  mu: +0.361590166  nElectrons: 3.000000  magneticMoment: [ Abs: 0.76000  Tot: +0.76000 ]
LCAOMinimize: Iter:   1  F: -1.3067147810590594  |grad|_K:  1.740e-07  alpha:  1.059e+00  linmin: -6.070e-03  cgtest:  1.758e-02  t[s]:     12.77
LCAOMinimize: Encountered beta<0, resetting CG.
	FillingsUpdate:  mu: +0.361590166  nElectrons: 3.000000  magneticMoment: [ Abs: 0.76000  Tot: +0.76000 ]
LCAOMinimize: Iter:   2  F: -1.3067147810615118  |grad|_K:  4.483e-08  alpha:  7.879e-01  linmin: -3.738e-02  cgtest:  9.913e-01  t[s]:     16.10
LCAOMinimize: Encountered beta<0, resetting CG.
LCAOMinimize: Converged (|Delta F|<1.000000e-06 for 2 iters).


---- Citations for features of the code used in this run ----

   Software package:
      R. Sundararaman, K. Letchworth-Weaver, K.A. Schwarz, D. Gunceler, Y. Ozhabes and T.A. Arias, 'JDFTx: software for joint density-functional theory', SoftwareX 6, 278 (2017)

   gga-PBE exchange-correlation functional:
      J.P. Perdew, K. Burke and M. Ernzerhof, Phys. Rev. Lett. 77, 3865 (1996)

   Pseudopotentials:
      M Schlipf and F Gygi, Comput. Phys. Commun. 196, 36 (2015)

   Truncated Coulomb potentials:
      R. Sundararaman and T.A. Arias, Phys. Rev. B 87, 165122 (2013)

This list may not be complete. Please suggest additional citations or
report any other bugs at https://github.com/shankar1729/jdftx/issues

Initialization completed successfully at t[s]:     16.24


-------- Electronic minimization -----------
Will mix electronic density at each iteration.
	FillingsUpdate:  mu: +0.361590166  nElectrons: 3.000000  magneticMoment: [ Abs: 0.76000  Tot: +0.76000 ]
	FillingsUpdate:  mu: -0.610634694  nElectrons: 3.000000  magneticMoment: [ Abs: 0.76000  Tot: +0.76000 ]
SCF: Cycle:  0   F: -6.883472778441449   dF: -5.577e+00   |Residual|: 1.230e+00   |deigs|: 4.155e+00  t[s]:     21.85
	FillingsUpdate:  mu: -0.484478476  nElectrons: 3.000000  magneticMoment: [ Abs: 1.30237  Tot: +0.76000 ]
SCF: Cycle:  1   F: -6.915689293099999   dF: -3.222e-02   |Residual|: 7.638e-01   |deigs|: 2.763e-01  t[s]:     26.34
	FillingsUpdate:  mu: -0.284956055  nElectrons: 3.000000  magneticMoment: [ Abs: 1.68548  Tot: +0.76000 ]
SCF: Cycle:  2   F: -7.037949109604321   dF: -1.223e-01   |Residual|: 3.214e-01   |deigs|: 7.023e-01  t[s]:     30.97
	FillingsUpdate:  mu: -0.291071575  nElectrons: 3.000000  magneticMoment: [ Abs: 1.48308  Tot: +0.76000 ]
SCF: Cycle:  3   F: -7.038142024198262   dF: -1.929e-04   |Residual|: 1.626e-01   |deigs|: 8.496e-02  t[s]:     35.76
	FillingsUpdate:  mu: -0.238090305  nElectrons: 3.000000  magneticMoment: [ Abs: 1.28537  Tot: +0.76000 ]
SCF: Cycle:  4   F: -7.042935150775526   dF: -4.793e-03   |Residual|: 4.001e-02   |deigs|: 4.876e-02  t[s]:     40.62
	FillingsUpdate:  mu: -0.221507496  nElectrons: 3.000000  magneticMoment: [ Abs: 1.25906  Tot: +0.76000 ]
SCF: Cycle:  5   F: -7.044298341532405   dF: -1.363e-03   |Residual|: 6.691e-02   |deigs|: 1.641e-02  t[s]:     45.60
	FillingsUpdate:  mu: -0.199973412  nElectrons: 3.000000  magneticMoment: [ Abs: 1.08184  Tot: +0.76000 ]
SCF: Cycle:  6   F: -7.046023724566426   dF: -1.725e-03   |Residual|: 2.811e-02   |deigs|: 4.410e-02  t[s]:     50.81
	FillingsUpdate:  mu: -0.183790371  nElectrons: 3.000000  magneticMoment: [ Abs: 0.98880  Tot: +0.76000 ]
SCF: Cycle:  7   F: -7.047935948235533   dF: -1.912e-03   |Residual|: 3.588e-02   |deigs|: 4.031e-02  t[s]:     55.96
	FillingsUpdate:  mu: -0.181583137  nElectrons: 3.000000  magneticMoment: [ Abs: 0.92556  Tot: +0.76000 ]
SCF: Cycle:  8   F: -7.048622458648368   dF: -6.865e-04   |Residual|: 3.281e-02   |deigs|: 2.863e-03  t[s]:     61.28
	FillingsUpdate:  mu: -0.178959158  nElectrons: 3.000000  magneticMoment: [ Abs: 0.87121  Tot: +0.76000 ]
SCF: Cycle:  9   F: -7.049289827790460   dF: -6.674e-04   |Residual|: 1.313e-02   |deigs|: 1.476e-02  t[s]:     66.77
	FillingsUpdate:  mu: -0.167949256  nElectrons: 3.000000  magneticMoment: [ Abs: 0.80192  Tot: +0.76000 ]
SCF: Cycle: 10   F: -7.049583842502643   dF: -2.940e-04   |Residual|: 3.503e-02   |deigs|: 9.391e-03  t[s]:     72.28
	FillingsUpdate:  mu: -0.157784507  nElectrons: 3.000000  magneticMoment: [ Abs: 0.83029  Tot: +0.76000 ]
SCF: Cycle: 11   F: -7.049605317266949   dF: -2.147e-05   |Residual|: 9.708e-03   |deigs|: 1.692e-02  t[s]:     77.84
	FillingsUpdate:  mu: -0.146065314  nElectrons: 3.000000  magneticMoment: [ Abs: 0.87957  Tot: +0.76000 ]
SCF: Cycle: 12   F: -7.049804622667429   dF: -1.993e-04   |Residual|: 1.093e-02   |deigs|: 9.615e-03  t[s]:     83.40
	FillingsUpdate:  mu: -0.127550472  nElectrons: 3.000000  magneticMoment: [ Abs: 0.92955  Tot: +0.76000 ]
SCF: Cycle: 13   F: -7.049965719334541   dF: -1.611e-04   |Residual|: 6.421e-03   |deigs|: 2.255e-02  t[s]:     89.01
	FillingsUpdate:  mu: -0.117984367  nElectrons: 3.000000  magneticMoment: [ Abs: 0.92771  Tot: +0.76000 ]
SCF: Cycle: 14   F: -7.049880679259314   dF: +8.504e-05   |Residual|: 5.665e-03   |deigs|: 9.904e-03  t[s]:     94.55
	FillingsUpdate:  mu: -0.113756699  nElectrons: 3.000000  magneticMoment: [ Abs: 0.91405  Tot: +0.76000 ]
SCF: Cycle: 15   F: -7.049955818634233   dF: -7.514e-05   |Residual|: 4.425e-03   |deigs|: 4.824e-03  t[s]:    100.05
	FillingsUpdate:  mu: -0.110252132  nElectrons: 3.000000  magneticMoment: [ Abs: 0.88253  Tot: +0.76000 ]
SCF: Cycle: 16   F: -7.050009919832410   dF: -5.410e-05   |Residual|: 3.513e-03   |deigs|: 4.079e-03  t[s]:    105.56
	FillingsUpdate:  mu: -0.106678111  nElectrons: 3.000000  magneticMoment: [ Abs: 0.84793  Tot: +0.76000 ]
SCF: Cycle: 17   F: -7.050002543625466   dF: +7.376e-06   |Residual|: 3.066e-03   |deigs|: 3.908e-03  t[s]:    111.07
	FillingsUpdate:  mu: -0.102262082  nElectrons: 3.000000  magneticMoment: [ Abs: 0.82704  Tot: +0.76000 ]
SCF: Cycle: 18   F: -7.050039494961257   dF: -3.695e-05   |Residual|: 2.218e-03   |deigs|: 5.096e-03  t[s]:    116.62
	FillingsUpdate:  mu: -0.101758245  nElectrons: 3.000000  magneticMoment: [ Abs: 0.80342  Tot: +0.76000 ]
SCF: Cycle: 19   F: -7.050087435983107   dF: -4.794e-05   |Residual|: 1.727e-03   |deigs|: 8.904e-04  t[s]:    122.12
	FillingsUpdate:  mu: -0.100469200  nElectrons: 3.000000  magneticMoment: [ Abs: 0.79385  Tot: +0.76000 ]
SCF: Cycle: 20   F: -7.050120406008223   dF: -3.297e-05   |Residual|: 1.173e-03   |deigs|: 1.510e-03  t[s]:    127.73
	FillingsUpdate:  mu: -0.100395279  nElectrons: 3.000000  magneticMoment: [ Abs: 0.78093  Tot: +0.76000 ]
SCF: Cycle: 21   F: -7.050138835165837   dF: -1.843e-05   |Residual|: 8.743e-04   |deigs|: 5.863e-04  t[s]:    133.26
	FillingsUpdate:  mu: -0.100803258  nElectrons: 3.000000  magneticMoment: [ Abs: 0.77141  Tot: +0.76000 ]
SCF: Cycle: 22   F: -7.050142445709631   dF: -3.611e-06   |Residual|: 6.626e-04   |deigs|: 4.220e-04  t[s]:    138.83
	FillingsUpdate:  mu: -0.100992691  nElectrons: 3.000000  magneticMoment: [ Abs: 0.76390  Tot: +0.76000 ]
SCF: Cycle: 23   F: -7.050149672526278   dF: -7.227e-06   |Residual|: 4.216e-04   |deigs|: 4.494e-04  t[s]:    144.36
	FillingsUpdate:  mu: -0.101241308  nElectrons: 3.000000  magneticMoment: [ Abs: 0.76191  Tot: +0.76000 ]
SCF: Cycle: 24   F: -7.050152032143976   dF: -2.360e-06   |Residual|: 3.027e-04   |deigs|: 3.786e-04  t[s]:    149.88
	FillingsUpdate:  mu: -0.101088165  nElectrons: 3.000000  magneticMoment: [ Abs: 0.76177  Tot: +0.76000 ]
SCF: Cycle: 25   F: -7.050154142853978   dF: -2.111e-06   |Residual|: 1.465e-04   |deigs|: 2.966e-04  t[s]:    155.39
	FillingsUpdate:  mu: -0.100984963  nElectrons: 3.000000  magneticMoment: [ Abs: 0.76130  Tot: +0.76000 ]
SCF: Cycle: 26   F: -7.050154700322457   dF: -5.575e-07   |Residual|: 1.036e-04   |deigs|: 1.052e-04  t[s]:    160.92
	FillingsUpdate:  mu: -0.100932487  nElectrons: 3.000000  magneticMoment: [ Abs: 0.76099  Tot: +0.76000 ]
SCF: Cycle: 27   F: -7.050154712075294   dF: -1.175e-08   |Residual|: 8.038e-05   |deigs|: 7.200e-05  t[s]:    166.51
	FillingsUpdate:  mu: -0.100865356  nElectrons: 3.000000  magneticMoment: [ Abs: 0.76075  Tot: +0.76000 ]
SCF: Cycle: 28   F: -7.050154794903422   dF: -8.283e-08   |Residual|: 5.520e-05   |deigs|: 7.217e-05  t[s]:    172.12
	FillingsUpdate:  mu: -0.100857152  nElectrons: 3.000000  magneticMoment: [ Abs: 0.76042  Tot: +0.76000 ]
SCF: Cycle: 29   F: -7.050154822435981   dF: -2.753e-08   |Residual|: 4.009e-05   |deigs|: 3.627e-05  t[s]:    177.57
	FillingsUpdate:  mu: -0.100882416  nElectrons: 3.000000  magneticMoment: [ Abs: 0.76021  Tot: +0.76000 ]
SCF: Cycle: 30   F: -7.050154848976900   dF: -2.654e-08   |Residual|: 3.136e-05   |deigs|: 4.292e-05  t[s]:    183.10
	FillingsUpdate:  mu: -0.100888661  nElectrons: 3.000000  magneticMoment: [ Abs: 0.76005  Tot: +0.76000 ]
SCF: Cycle: 31   F: -7.050154848685930   dF: +2.910e-10   |Residual|: 2.365e-05   |deigs|: 3.297e-05  t[s]:    188.62
	FillingsUpdate:  mu: -0.100910881  nElectrons: 3.000000  magneticMoment: [ Abs: 0.76001  Tot: +0.76000 ]
SCF: Cycle: 32   F: -7.050154880406665   dF: -3.172e-08   |Residual|: 1.739e-05   |deigs|: 3.854e-05  t[s]:    194.11
	FillingsUpdate:  mu: -0.100928465  nElectrons: 3.000000  magneticMoment: [ Abs: 0.76000  Tot: +0.76000 ]
SCF: Cycle: 33   F: -7.050154884024410   dF: -3.618e-09   |Residual|: 1.263e-05   |deigs|: 3.564e-05  t[s]:    199.71
	FillingsUpdate:  mu: -0.100934443  nElectrons: 3.000000  magneticMoment: [ Abs: 0.76000  Tot: +0.76000 ]
SCF: Cycle: 34   F: -7.050154887754278   dF: -3.730e-09   |Residual|: 9.935e-06   |deigs|: 2.914e-05  t[s]:    205.20
SCF: Converged (|Delta E|<1.000000e-08 for 2 iters).


# Ionic positions in lattice coordinates:
ion Li   0.000000000000000   0.000000000000000   0.000000000000000 0

# Forces in Lattice coordinates:
force Li   0.000000000000000   0.000000000000000   0.000000000000000 0

# Energy components:
   Eewald =       -1.0026681166851483
       EH =        2.5591274445259939
     Eloc =       -8.2400298475220524
      Enl =       -3.6052993981397026
   Epulay =        0.0000051497655618
      Exc =       -1.5430339162007438
       KE =        4.7817444197773140
-------------------------------------
     Etot =       -7.0501542644787767
       TS =        0.0000006232755019
-------------------------------------
        F =       -7.0501548877542781

IonicMinimize: Iter:   0  F: -7.050154887754278  |grad|_K:  0.000e+00  t[s]:    205.44
IonicMinimize: Converged (|grad|_K<1.000000e-04).

#--- Lowdin population analysis ---
# oxidation-state Li +2.068
# magnetic-moments Li +0.704

End date and time: Sat Feb  5 23:14:28 2022  (Duration: 0-0:03:25.48)
Done!
