The alkali metal is Li
scale=2
magnetization=0.72
--------------------------------------------------------------------------
The library attempted to open the following supporting CUDA libraries,
but each of them failed.  CUDA-aware support is disabled.
libcuda.so.1: cannot open shared object file: No such file or directory
libcuda.dylib: cannot open shared object file: No such file or directory
/usr/lib64/libcuda.so.1: cannot open shared object file: No such file or directory
/usr/lib64/libcuda.dylib: cannot open shared object file: No such file or directory
If you are not interested in CUDA-aware support, then run with
--mca opal_warn_on_missing_libcuda 0 to suppress this message.  If you are interested
in CUDA-aware support, then try setting LD_LIBRARY_PATH to the location
of libcuda.so.1 to get passed this issue.
--------------------------------------------------------------------------
--------------------------------------------------------------------------
No OpenFabrics connection schemes reported that they were able to be
used on a specific port.  As such, the openib BTL (OpenFabrics
support) will be disabled for this port.

  Local host:           d-3-11-1
  Local device:         mlx5_1
  Local port:           1
  CPCs attempted:       rdmacm, udcm
--------------------------------------------------------------------------

*************** JDFTx 1.6.0 (git hash 42ebbcc2) ***************

Start date and time: Sat Feb  5 23:07:22 2022
Executable jdftx with command-line: -i Alkali.in
Running on hosts (process indices):  d-3-11-1 (0-18)
Divided in process groups (process indices):  0 (0)  1 (1)  2 (2)  3 (3)  4 (4)  5 (5)  6 (6)  7 (7)  8 (8)  9 (9)  10 (10)  11 (11)  12 (12)  13 (13)  14 (14)  15 (15)  16 (16)  17 (17)  18 (18)
Resource initialization completed at t[s]:      0.00
Run totals: 19 processes, 48 threads, 0 GPUs


Input parsed successfully to the following command list (including defaults):

basis kpoint-dependent
coords-type Lattice
core-overlap-check vector
coulomb-interaction Slab 001
davidson-band-ratio 1.1
dump End None
dump-name $INPUT.$VAR
elec-cutoff 20
elec-eigen-algo Davidson
elec-ex-corr gga-PBE
elec-initial-magnetization 0.720000 yes
elec-smearing Fermi 1e-05
electronic-minimize  \
	dirUpdateScheme      FletcherReeves \
	linminMethod         DirUpdateRecommended \
	nIterations          100 \
	history              15 \
	knormThreshold       0 \
	energyDiffThreshold  1e-08 \
	nEnergyDiff          2 \
	alphaTstart          1 \
	alphaTmin            1e-10 \
	updateTestStepSize   yes \
	alphaTreduceFactor   0.1 \
	alphaTincreaseFactor 3 \
	nAlphaAdjustMax      3 \
	wolfeEnergy          0.0001 \
	wolfeGradient        0.9 \
	fdTest               no
electronic-scf  \
	nIterations	10000 \
	energyDiffThreshold	1e-08 \
	residualThreshold	1e-07 \
	mixFraction	0.5 \
	qMetric	0.8 \
	history	10 \
	nEigSteps	2 \
	eigDiffThreshold	1e-08 \
	mixedVariable	Density \
	qKerker	0.8 \
	qKappa	-1 \
	verbose	no \
	mixFractionMag	1.5
exchange-regularization WignerSeitzTruncated
fluid None
fluid-ex-corr (null) lda-PZ
fluid-gummel-loop 10 1.000000e-05
fluid-minimize  \
	dirUpdateScheme      PolakRibiere \
	linminMethod         DirUpdateRecommended \
	nIterations          100 \
	history              15 \
	knormThreshold       0 \
	energyDiffThreshold  0 \
	nEnergyDiff          2 \
	alphaTstart          1 \
	alphaTmin            1e-10 \
	updateTestStepSize   yes \
	alphaTreduceFactor   0.1 \
	alphaTincreaseFactor 3 \
	nAlphaAdjustMax      3 \
	wolfeEnergy          0.0001 \
	wolfeGradient        0.9 \
	fdTest               no
fluid-solvent H2O 55.338 ScalarEOS \
	epsBulk 78.4 \
	pMol 0.92466 \
	epsInf 1.77 \
	Pvap 1.06736e-10 \
	sigmaBulk 4.62e-05 \
	Rvdw 2.61727 \
	Res 1.42 \
	tauNuc 343133 \
	poleEl 15 7 1
forces-output-coords Positions
ion Li   0.000000000000000   0.000000000000000   0.000000000000000 0
ion-species SG15/$ID_ONCV_PBE.upf
ion-width 0
ionic-minimize  \
	dirUpdateScheme      L-BFGS \
	linminMethod         DirUpdateRecommended \
	nIterations          0 \
	history              15 \
	knormThreshold       0.0001 \
	energyDiffThreshold  1e-06 \
	nEnergyDiff          2 \
	alphaTstart          1 \
	alphaTmin            1e-10 \
	updateTestStepSize   yes \
	alphaTreduceFactor   0.1 \
	alphaTincreaseFactor 3 \
	nAlphaAdjustMax      3 \
	wolfeEnergy          0.0001 \
	wolfeGradient        0.9 \
	fdTest               no
kpoint   0.000000000000   0.000000000000   0.000000000000  1.00000000000000
kpoint-folding 12 12 1 
latt-move-scale 1 1 1
latt-scale 2 2 1 
lattice  \
	   4.727486978767153   -2.363743489383575    0.000000000000000  \
	  -0.000000000000000    4.094123819672498    0.000000000000000  \
	   0.000000000000000    0.000000000000000   40.000000000000000 
lattice-minimize  \
	dirUpdateScheme      L-BFGS \
	linminMethod         DirUpdateRecommended \
	nIterations          0 \
	history              15 \
	knormThreshold       0 \
	energyDiffThreshold  1e-06 \
	nEnergyDiff          2 \
	alphaTstart          1 \
	alphaTmin            1e-10 \
	updateTestStepSize   yes \
	alphaTreduceFactor   0.1 \
	alphaTincreaseFactor 3 \
	nAlphaAdjustMax      3 \
	wolfeEnergy          0.0001 \
	wolfeGradient        0.9 \
	fdTest               no
lcao-params -1 1e-06 1e-05
pcm-variant GLSSA13
spintype z-spin
subspace-rotation-factor 1 yes
symmetries automatic
symmetry-threshold 0.0001



---------- Setting up symmetries ----------

Found 24 point-group symmetries of the bravais lattice
Found 24 space-group symmetries with basis
Applied RMS atom displacement 0 bohrs to make symmetries exact.

---------- Initializing the Grid ----------
R = 
[      9.45497     -4.72749            0  ]
[            0      8.18825            0  ]
[            0            0           40  ]
unit cell volume = 3096.79
G =
[   0.664538   0.383671         -0  ]
[          0   0.767342         -0  ]
[         -0         -0    0.15708  ]
Minimum fftbox size, Smin = [  40  40  164  ]
Chosen fftbox size, S = [  40  40  168  ]

---------- Exchange Correlation functional ----------
Initalized PBE GGA exchange.
Initalized PBE GGA correlation.

---------- Setting up pseudopotentials ----------
Width of ionic core gaussian charges (only for fluid interactions / plotting) set to 0

Reading pseudopotential file '/home/gridsan/aligho/DFT/build-Nov24/pseudopotentials/SG15/Li_ONCV_PBE.upf':
  'Li' pseudopotential, 'PBE' functional
  Generated using ONCVPSP code by D. R. Hamann
  Author: Martin Schlipf and Francois Gygi  Date: 150915.
  3 valence electrons, 2 orbitals, 4 projectors, 1328 radial grid points, with lMax = 1
  Transforming local potential to a uniform radial grid of dG=0.02 with 1489 points.
  Transforming nonlocal projectors to a uniform radial grid of dG=0.02 with 432 points.
    1S    l: 0   occupation:  2.0   eigenvalue: -1.905623
    2S    l: 0   occupation:  1.0   eigenvalue: -0.105624
  Transforming atomic orbitals to a uniform radial grid of dG=0.02 with 432 points.
  WARNING: large normalization error in atomic orbital 1s (integral: 0.000000).
  Core radius for overlap checks: 1.63 bohrs.
  Reading pulay file /home/gridsan/aligho/DFT/build-Nov24/pseudopotentials/SG15/Li_ONCV_PBE.pulay ... using dE_dnG = -1.230239e-02 computed for Ecut = 20.

Initialized 1 species with 1 total atoms.

Folded 1 k-points by 12x12x1 to 144 k-points.

---------- Setting up k-points, bands, fillings ----------
Reduced to 19 k-points under symmetry. 
Computing the number of bands and number of electrons
Calculating initial fillings.
nElectrons:   3.000000   nBands: 3   nStates: 38

----- Setting up reduced wavefunction bases (one per k-point) -----
average nbasis = 13230.521 , ideal nbasis = 13229.709

---------- Setting up coulomb interaction ----------
Initialized slab truncation along lattice direction 001

---------- Setting up 2D ewald sum ----------
Optimum gaussian width for ewald sums = 5.249020 bohr.
Real space sums over 289 unit cells with max indices [  8  8  0  ]
Reciprocal space sums over 81 terms with max indices [  4  4  0  ]

---------- Allocating electronic variables ----------
Initializing wave functions:  linear combination of atomic orbitals
Note: number of bands (3) exceeds available atomic orbitals (2)
Li pseudo-atom occupations:   s ( 2 1 )
	FillingsUpdate:  mu: +0.315322563  nElectrons: 3.000000  magneticMoment: [ Abs: 0.72000  Tot: +0.72000 ]
LCAOMinimize: Iter:   0  F: -1.1578450670937164  |grad|_K:  5.946e-05  alpha:  1.000e+00
	FillingsUpdate:  mu: +0.315321331  nElectrons: 3.000000  magneticMoment: [ Abs: 0.72000  Tot: +0.72000 ]
[d-3-11-1:13222] 18 more processes have sent help message help-mpi-common-cuda.txt / dlopen failed
[d-3-11-1:13222] Set MCA parameter "orte_base_help_aggregate" to 0 to see all help / error messages
[d-3-11-1:13222] 18 more processes have sent help message help-mpi-btl-openib-cpc-base.txt / no cpcs for port
LCAOMinimize: Iter:   1  F: -1.1578457024409532  |grad|_K:  1.262e-06  alpha:  1.051e+00  linmin: -1.541e-03  cgtest:  1.841e-02  t[s]:      3.94
	FillingsUpdate:  mu: +0.315321340  nElectrons: 3.000000  magneticMoment: [ Abs: 0.72000  Tot: +0.72000 ]
LCAOMinimize: Iter:   2  F: -1.1578457027187845  |grad|_K:  4.713e-08  alpha:  1.033e+00  linmin:  1.168e-02  cgtest: -3.554e-01  t[s]:      5.03
LCAOMinimize: Converged (|Delta F|<1.000000e-06 for 2 iters).


---- Citations for features of the code used in this run ----

   Software package:
      R. Sundararaman, K. Letchworth-Weaver, K.A. Schwarz, D. Gunceler, Y. Ozhabes and T.A. Arias, 'JDFTx: software for joint density-functional theory', SoftwareX 6, 278 (2017)

   gga-PBE exchange-correlation functional:
      J.P. Perdew, K. Burke and M. Ernzerhof, Phys. Rev. Lett. 77, 3865 (1996)

   Pseudopotentials:
      M Schlipf and F Gygi, Comput. Phys. Commun. 196, 36 (2015)

   Truncated Coulomb potentials:
      R. Sundararaman and T.A. Arias, Phys. Rev. B 87, 165122 (2013)

This list may not be complete. Please suggest additional citations or
report any other bugs at https://github.com/shankar1729/jdftx/issues

Initialization completed successfully at t[s]:      5.10


-------- Electronic minimization -----------
Will mix electronic density at each iteration.
	FillingsUpdate:  mu: +0.315321340  nElectrons: 3.000000  magneticMoment: [ Abs: 0.72000  Tot: +0.72000 ]
	FillingsUpdate:  mu: -0.995733010  nElectrons: 3.000000  magneticMoment: [ Abs: 0.72000  Tot: +0.72000 ]
SCF: Cycle:  0   F: -6.833084858627616   dF: -5.675e+00   |Residual|: 1.173e+00   |deigs|: 4.170e+00  t[s]:      6.80
	FillingsUpdate:  mu: -0.875761807  nElectrons: 3.000000  magneticMoment: [ Abs: 1.14536  Tot: +0.72000 ]
SCF: Cycle:  1   F: -6.931638792811817   dF: -9.855e-02   |Residual|: 7.763e-01   |deigs|: 2.364e-01  t[s]:      8.20
	FillingsUpdate:  mu: -0.677839848  nElectrons: 3.000000  magneticMoment: [ Abs: 1.46542  Tot: +0.72000 ]
SCF: Cycle:  2   F: -7.043301279880711   dF: -1.117e-01   |Residual|: 4.158e-01   |deigs|: 7.724e-01  t[s]:      9.54
	FillingsUpdate:  mu: -0.688762592  nElectrons: 3.000000  magneticMoment: [ Abs: 1.20775  Tot: +0.72000 ]
SCF: Cycle:  3   F: -7.051188265678380   dF: -7.887e-03   |Residual|: 1.830e-01   |deigs|: 1.327e-01  t[s]:     10.95
	FillingsUpdate:  mu: -0.629349449  nElectrons: 3.000000  magneticMoment: [ Abs: 0.93514  Tot: +0.72000 ]
SCF: Cycle:  4   F: -7.051412171375731   dF: -2.239e-04   |Residual|: 4.643e-02   |deigs|: 4.248e-02  t[s]:     12.41
	FillingsUpdate:  mu: -0.608330975  nElectrons: 3.000000  magneticMoment: [ Abs: 0.91269  Tot: +0.72000 ]
SCF: Cycle:  5   F: -7.052211176519698   dF: -7.990e-04   |Residual|: 7.035e-02   |deigs|: 1.787e-02  t[s]:     13.83
	FillingsUpdate:  mu: -0.460675148  nElectrons: 3.000000  magneticMoment: [ Abs: 1.03597  Tot: +0.72000 ]
SCF: Cycle:  6   F: -7.056930737444457   dF: -4.720e-03   |Residual|: 1.119e-01   |deigs|: 1.582e-01  t[s]:     15.27
	FillingsUpdate:  mu: -0.447890576  nElectrons: 3.000000  magneticMoment: [ Abs: 0.95506  Tot: +0.72000 ]
SCF: Cycle:  7   F: -7.057661509054185   dF: -7.308e-04   |Residual|: 3.640e-02   |deigs|: 4.268e-02  t[s]:     16.72
	FillingsUpdate:  mu: -0.413812265  nElectrons: 3.000000  magneticMoment: [ Abs: 0.90531  Tot: +0.72000 ]
SCF: Cycle:  8   F: -7.059580133050900   dF: -1.919e-03   |Residual|: 6.318e-02   |deigs|: 4.176e-02  t[s]:     18.28
	FillingsUpdate:  mu: -0.371133202  nElectrons: 3.000000  magneticMoment: [ Abs: 0.85246  Tot: +0.72000 ]
SCF: Cycle:  9   F: -7.061397456291651   dF: -1.817e-03   |Residual|: 2.165e-02   |deigs|: 3.372e-02  t[s]:     19.84
	FillingsUpdate:  mu: -0.332117198  nElectrons: 3.000000  magneticMoment: [ Abs: 0.86467  Tot: +0.72000 ]
SCF: Cycle: 10   F: -7.062235516438355   dF: -8.381e-04   |Residual|: 3.251e-02   |deigs|: 3.352e-02  t[s]:     21.37
	FillingsUpdate:  mu: -0.292643303  nElectrons: 3.000000  magneticMoment: [ Abs: 0.91319  Tot: +0.72000 ]
SCF: Cycle: 11   F: -7.062635215905560   dF: -3.997e-04   |Residual|: 1.756e-02   |deigs|: 4.516e-02  t[s]:     22.88
	FillingsUpdate:  mu: -0.252145394  nElectrons: 3.000000  magneticMoment: [ Abs: 0.92532  Tot: +0.72000 ]
SCF: Cycle: 12   F: -7.062947042913407   dF: -3.118e-04   |Residual|: 1.384e-02   |deigs|: 4.310e-02  t[s]:     24.43
	FillingsUpdate:  mu: -0.208192504  nElectrons: 3.000000  magneticMoment: [ Abs: 0.89030  Tot: +0.72000 ]
SCF: Cycle: 13   F: -7.063217023230671   dF: -2.700e-04   |Residual|: 1.197e-02   |deigs|: 4.350e-02  t[s]:     25.99
	FillingsUpdate:  mu: -0.161672459  nElectrons: 3.000000  magneticMoment: [ Abs: 0.83332  Tot: +0.72000 ]
SCF: Cycle: 14   F: -7.063158010123714   dF: +5.901e-05   |Residual|: 9.778e-03   |deigs|: 4.693e-02  t[s]:     27.60
	FillingsUpdate:  mu: -0.131162804  nElectrons: 3.000000  magneticMoment: [ Abs: 0.81088  Tot: +0.72000 ]
SCF: Cycle: 15   F: -7.063276288803997   dF: -1.183e-04   |Residual|: 7.305e-03   |deigs|: 3.009e-02  t[s]:     29.15
	FillingsUpdate:  mu: -0.115615202  nElectrons: 3.000000  magneticMoment: [ Abs: 0.79436  Tot: +0.72000 ]
SCF: Cycle: 16   F: -7.063573626659107   dF: -2.973e-04   |Residual|: 5.338e-03   |deigs|: 1.599e-02  t[s]:     30.66
	FillingsUpdate:  mu: -0.108756397  nElectrons: 3.000000  magneticMoment: [ Abs: 0.77032  Tot: +0.72000 ]
SCF: Cycle: 17   F: -7.063755364691852   dF: -1.817e-04   |Residual|: 3.436e-03   |deigs|: 7.633e-03  t[s]:     32.19
	FillingsUpdate:  mu: -0.105898344  nElectrons: 3.000000  magneticMoment: [ Abs: 0.75271  Tot: +0.72000 ]
SCF: Cycle: 18   F: -7.063825344973822   dF: -6.998e-05   |Residual|: 2.134e-03   |deigs|: 2.935e-03  t[s]:     33.73
	FillingsUpdate:  mu: -0.106580701  nElectrons: 3.000000  magneticMoment: [ Abs: 0.73818  Tot: +0.72000 ]
SCF: Cycle: 19   F: -7.063845911852954   dF: -2.057e-05   |Residual|: 1.381e-03   |deigs|: 1.731e-03  t[s]:     35.25
	FillingsUpdate:  mu: -0.106822166  nElectrons: 3.000000  magneticMoment: [ Abs: 0.73126  Tot: +0.72000 ]
SCF: Cycle: 20   F: -7.063856084784361   dF: -1.017e-05   |Residual|: 1.010e-03   |deigs|: 5.695e-04  t[s]:     36.77
	FillingsUpdate:  mu: -0.106165581  nElectrons: 3.000000  magneticMoment: [ Abs: 0.72898  Tot: +0.72000 ]
SCF: Cycle: 21   F: -7.063862326043939   dF: -6.241e-06   |Residual|: 7.449e-04   |deigs|: 8.214e-04  t[s]:     38.33
	FillingsUpdate:  mu: -0.105473526  nElectrons: 3.000000  magneticMoment: [ Abs: 0.72645  Tot: +0.72000 ]
SCF: Cycle: 22   F: -7.063862803206063   dF: -4.772e-07   |Residual|: 8.391e-04   |deigs|: 9.962e-04  t[s]:     39.86
	FillingsUpdate:  mu: -0.105401906  nElectrons: 3.000000  magneticMoment: [ Abs: 0.72546  Tot: +0.72000 ]
SCF: Cycle: 23   F: -7.063866674438619   dF: -3.871e-06   |Residual|: 7.888e-04   |deigs|: 2.111e-04  t[s]:     41.39
	FillingsUpdate:  mu: -0.104903173  nElectrons: 3.000000  magneticMoment: [ Abs: 0.72410  Tot: +0.72000 ]
SCF: Cycle: 24   F: -7.063864241135480   dF: +2.433e-06   |Residual|: 4.665e-04   |deigs|: 9.582e-04  t[s]:     42.92
	FillingsUpdate:  mu: -0.104515829  nElectrons: 3.000000  magneticMoment: [ Abs: 0.72255  Tot: +0.72000 ]
SCF: Cycle: 25   F: -7.063866012445642   dF: -1.771e-06   |Residual|: 4.604e-04   |deigs|: 6.973e-04  t[s]:     44.48
	FillingsUpdate:  mu: -0.104638664  nElectrons: 3.000000  magneticMoment: [ Abs: 0.72226  Tot: +0.72000 ]
SCF: Cycle: 26   F: -7.063867059975555   dF: -1.048e-06   |Residual|: 3.426e-04   |deigs|: 1.552e-04  t[s]:     46.02
	FillingsUpdate:  mu: -0.104902079  nElectrons: 3.000000  magneticMoment: [ Abs: 0.72217  Tot: +0.72000 ]
SCF: Cycle: 27   F: -7.063867564123228   dF: -5.041e-07   |Residual|: 2.066e-04   |deigs|: 3.235e-04  t[s]:     47.54
	FillingsUpdate:  mu: -0.105061059  nElectrons: 3.000000  magneticMoment: [ Abs: 0.72175  Tot: +0.72000 ]
SCF: Cycle: 28   F: -7.063867593665602   dF: -2.954e-08   |Residual|: 1.752e-04   |deigs|: 1.873e-04  t[s]:     49.11
	FillingsUpdate:  mu: -0.105263069  nElectrons: 3.000000  magneticMoment: [ Abs: 0.72110  Tot: +0.72000 ]
SCF: Cycle: 29   F: -7.063867837220970   dF: -2.436e-07   |Residual|: 1.427e-04   |deigs|: 2.481e-04  t[s]:     50.67
	FillingsUpdate:  mu: -0.105346777  nElectrons: 3.000000  magneticMoment: [ Abs: 0.72083  Tot: +0.72000 ]
SCF: Cycle: 30   F: -7.063867933492956   dF: -9.627e-08   |Residual|: 9.313e-05   |deigs|: 1.223e-04  t[s]:     52.25
	FillingsUpdate:  mu: -0.105347527  nElectrons: 3.000000  magneticMoment: [ Abs: 0.72049  Tot: +0.72000 ]
SCF: Cycle: 31   F: -7.063867976720467   dF: -4.323e-08   |Residual|: 5.842e-05   |deigs|: 4.033e-05  t[s]:     53.76
	FillingsUpdate:  mu: -0.105124785  nElectrons: 3.000000  magneticMoment: [ Abs: 0.72009  Tot: +0.72000 ]
SCF: Cycle: 32   F: -7.063867966265240   dF: +1.046e-08   |Residual|: 5.829e-05   |deigs|: 2.335e-04  t[s]:     55.29
	FillingsUpdate:  mu: -0.104943584  nElectrons: 3.000000  magneticMoment: [ Abs: 0.72000  Tot: +0.72000 ]
SCF: Cycle: 33   F: -7.063868094324414   dF: -1.281e-07   |Residual|: 4.007e-05   |deigs|: 1.690e-04  t[s]:     56.85
	FillingsUpdate:  mu: -0.104870029  nElectrons: 3.000000  magneticMoment: [ Abs: 0.72000  Tot: +0.72000 ]
SCF: Cycle: 34   F: -7.063868140407981   dF: -4.608e-08   |Residual|: 3.330e-05   |deigs|: 7.842e-05  t[s]:     58.48
	FillingsUpdate:  mu: -0.104812971  nElectrons: 3.000000  magneticMoment: [ Abs: 0.72000  Tot: +0.72000 ]
SCF: Cycle: 35   F: -7.063868146880615   dF: -6.473e-09   |Residual|: 2.455e-05   |deigs|: 5.995e-05  t[s]:     60.10
	FillingsUpdate:  mu: -0.104770572  nElectrons: 3.000000  magneticMoment: [ Abs: 0.72000  Tot: +0.72000 ]
SCF: Cycle: 36   F: -7.063868166523363   dF: -1.964e-08   |Residual|: 1.735e-05   |deigs|: 3.983e-05  t[s]:     61.65
	FillingsUpdate:  mu: -0.104743921  nElectrons: 3.000000  magneticMoment: [ Abs: 0.72000  Tot: +0.72000 ]
SCF: Cycle: 37   F: -7.063868172461992   dF: -5.939e-09   |Residual|: 1.336e-05   |deigs|: 3.284e-05  t[s]:     63.18
	FillingsUpdate:  mu: -0.104719190  nElectrons: 3.000000  magneticMoment: [ Abs: 0.72002  Tot: +0.72000 ]
SCF: Cycle: 38   F: -7.063868174454822   dF: -1.993e-09   |Residual|: 1.015e-05   |deigs|: 3.253e-05  t[s]:     64.72
SCF: Converged (|Delta E|<1.000000e-08 for 2 iters).


# Ionic positions in lattice coordinates:
ion Li   0.000000000000000   0.000000000000000   0.000000000000000 0

# Forces in Lattice coordinates:
force Li  -0.000000000000000   0.000000000000000   0.000000000000000 0

# Energy components:
   Eewald =       -2.0053362333702967
       EH =        1.5403838106654804
     Eloc =       -6.2034763611625801
      Enl =       -3.5905299764874998
   Epulay =        0.0000032255226020
      Exc =       -1.5432161046273905
       KE =        4.7383037731302036
-------------------------------------
     Etot =       -7.0638678663294812
       TS =        0.0000003081253408
-------------------------------------
        F =       -7.0638681744548215

IonicMinimize: Iter:   0  F: -7.063868174454822  |grad|_K:  0.000e+00  t[s]:     64.78
IonicMinimize: Converged (|grad|_K<1.000000e-04).

#--- Lowdin population analysis ---
# oxidation-state Li +2.217
# magnetic-moments Li +0.512

End date and time: Sat Feb  5 23:08:26 2022  (Duration: 0-0:01:04.80)
Done!
scale=3
magnetization=0.72
--------------------------------------------------------------------------
The library attempted to open the following supporting CUDA libraries,
but each of them failed.  CUDA-aware support is disabled.
libcuda.so.1: cannot open shared object file: No such file or directory
libcuda.dylib: cannot open shared object file: No such file or directory
/usr/lib64/libcuda.so.1: cannot open shared object file: No such file or directory
/usr/lib64/libcuda.dylib: cannot open shared object file: No such file or directory
If you are not interested in CUDA-aware support, then run with
--mca opal_warn_on_missing_libcuda 0 to suppress this message.  If you are interested
in CUDA-aware support, then try setting LD_LIBRARY_PATH to the location
of libcuda.so.1 to get passed this issue.
--------------------------------------------------------------------------
--------------------------------------------------------------------------
No OpenFabrics connection schemes reported that they were able to be
used on a specific port.  As such, the openib BTL (OpenFabrics
support) will be disabled for this port.

  Local host:           d-3-11-1
  Local device:         mlx5_1
  Local port:           1
  CPCs attempted:       rdmacm, udcm
--------------------------------------------------------------------------

*************** JDFTx 1.6.0 (git hash 42ebbcc2) ***************

Start date and time: Sat Feb  5 23:08:28 2022
Executable jdftx with command-line: -i Alkali.in
Running on hosts (process indices):  d-3-11-1 (0-18)
Divided in process groups (process indices):  0 (0)  1 (1)  2 (2)  3 (3)  4 (4)  5 (5)  6 (6)  7 (7)  8 (8)  9 (9)  10 (10)  11 (11)  12 (12)  13 (13)  14 (14)  15 (15)  16 (16)  17 (17)  18 (18)
Resource initialization completed at t[s]:      0.00
Run totals: 19 processes, 48 threads, 0 GPUs


Input parsed successfully to the following command list (including defaults):

basis kpoint-dependent
coords-type Lattice
core-overlap-check vector
coulomb-interaction Slab 001
davidson-band-ratio 1.1
dump End None
dump-name $INPUT.$VAR
elec-cutoff 20
elec-eigen-algo Davidson
elec-ex-corr gga-PBE
elec-initial-magnetization 0.720000 yes
elec-smearing Fermi 1e-05
electronic-minimize  \
	dirUpdateScheme      FletcherReeves \
	linminMethod         DirUpdateRecommended \
	nIterations          100 \
	history              15 \
	knormThreshold       0 \
	energyDiffThreshold  1e-08 \
	nEnergyDiff          2 \
	alphaTstart          1 \
	alphaTmin            1e-10 \
	updateTestStepSize   yes \
	alphaTreduceFactor   0.1 \
	alphaTincreaseFactor 3 \
	nAlphaAdjustMax      3 \
	wolfeEnergy          0.0001 \
	wolfeGradient        0.9 \
	fdTest               no
electronic-scf  \
	nIterations	10000 \
	energyDiffThreshold	1e-08 \
	residualThreshold	1e-07 \
	mixFraction	0.5 \
	qMetric	0.8 \
	history	10 \
	nEigSteps	2 \
	eigDiffThreshold	1e-08 \
	mixedVariable	Density \
	qKerker	0.8 \
	qKappa	-1 \
	verbose	no \
	mixFractionMag	1.5
exchange-regularization WignerSeitzTruncated
fluid None
fluid-ex-corr (null) lda-PZ
fluid-gummel-loop 10 1.000000e-05
fluid-minimize  \
	dirUpdateScheme      PolakRibiere \
	linminMethod         DirUpdateRecommended \
	nIterations          100 \
	history              15 \
	knormThreshold       0 \
	energyDiffThreshold  0 \
	nEnergyDiff          2 \
	alphaTstart          1 \
	alphaTmin            1e-10 \
	updateTestStepSize   yes \
	alphaTreduceFactor   0.1 \
	alphaTincreaseFactor 3 \
	nAlphaAdjustMax      3 \
	wolfeEnergy          0.0001 \
	wolfeGradient        0.9 \
	fdTest               no
fluid-solvent H2O 55.338 ScalarEOS \
	epsBulk 78.4 \
	pMol 0.92466 \
	epsInf 1.77 \
	Pvap 1.06736e-10 \
	sigmaBulk 4.62e-05 \
	Rvdw 2.61727 \
	Res 1.42 \
	tauNuc 343133 \
	poleEl 15 7 1
forces-output-coords Positions
ion Li   0.000000000000000   0.000000000000000   0.000000000000000 0
ion-species SG15/$ID_ONCV_PBE.upf
ion-width 0
ionic-minimize  \
	dirUpdateScheme      L-BFGS \
	linminMethod         DirUpdateRecommended \
	nIterations          0 \
	history              15 \
	knormThreshold       0.0001 \
	energyDiffThreshold  1e-06 \
	nEnergyDiff          2 \
	alphaTstart          1 \
	alphaTmin            1e-10 \
	updateTestStepSize   yes \
	alphaTreduceFactor   0.1 \
	alphaTincreaseFactor 3 \
	nAlphaAdjustMax      3 \
	wolfeEnergy          0.0001 \
	wolfeGradient        0.9 \
	fdTest               no
kpoint   0.000000000000   0.000000000000   0.000000000000  1.00000000000000
kpoint-folding 12 12 1 
latt-move-scale 1 1 1
latt-scale 3 3 1 
lattice  \
	   4.727486978767153   -2.363743489383575    0.000000000000000  \
	  -0.000000000000000    4.094123819672498    0.000000000000000  \
	   0.000000000000000    0.000000000000000   40.000000000000000 
lattice-minimize  \
	dirUpdateScheme      L-BFGS \
	linminMethod         DirUpdateRecommended \
	nIterations          0 \
	history              15 \
	knormThreshold       0 \
	energyDiffThreshold  1e-06 \
	nEnergyDiff          2 \
	alphaTstart          1 \
	alphaTmin            1e-10 \
	updateTestStepSize   yes \
	alphaTreduceFactor   0.1 \
	alphaTincreaseFactor 3 \
	nAlphaAdjustMax      3 \
	wolfeEnergy          0.0001 \
	wolfeGradient        0.9 \
	fdTest               no
lcao-params -1 1e-06 1e-05
pcm-variant GLSSA13
spintype z-spin
subspace-rotation-factor 1 yes
symmetries automatic
symmetry-threshold 0.0001



---------- Setting up symmetries ----------

Found 24 point-group symmetries of the bravais lattice
Found 24 space-group symmetries with basis
Applied RMS atom displacement 0 bohrs to make symmetries exact.

---------- Initializing the Grid ----------
R = 
[      14.1825     -7.09123            0  ]
[            0      12.2824            0  ]
[            0            0           40  ]
unit cell volume = 6967.77
G =
[   0.443025   0.255781         -0  ]
[          0   0.511561         -0  ]
[         -0         -0    0.15708  ]
Minimum fftbox size, Smin = [  60  60  164  ]
Chosen fftbox size, S = [  60  60  168  ]

---------- Exchange Correlation functional ----------
Initalized PBE GGA exchange.
Initalized PBE GGA correlation.

---------- Setting up pseudopotentials ----------
Width of ionic core gaussian charges (only for fluid interactions / plotting) set to 0

Reading pseudopotential file '/home/gridsan/aligho/DFT/build-Nov24/pseudopotentials/SG15/Li_ONCV_PBE.upf':
  'Li' pseudopotential, 'PBE' functional
  Generated using ONCVPSP code by D. R. Hamann
  Author: Martin Schlipf and Francois Gygi  Date: 150915.
  3 valence electrons, 2 orbitals, 4 projectors, 1328 radial grid points, with lMax = 1
  Transforming local potential to a uniform radial grid of dG=0.02 with 1489 points.
  Transforming nonlocal projectors to a uniform radial grid of dG=0.02 with 432 points.
    1S    l: 0   occupation:  2.0   eigenvalue: -1.905623
    2S    l: 0   occupation:  1.0   eigenvalue: -0.105624
  Transforming atomic orbitals to a uniform radial grid of dG=0.02 with 432 points.
  WARNING: large normalization error in atomic orbital 1s (integral: 0.000000).
  Core radius for overlap checks: 1.63 bohrs.
  Reading pulay file /home/gridsan/aligho/DFT/build-Nov24/pseudopotentials/SG15/Li_ONCV_PBE.pulay ... using dE_dnG = -1.230239e-02 computed for Ecut = 20.

Initialized 1 species with 1 total atoms.

Folded 1 k-points by 12x12x1 to 144 k-points.

---------- Setting up k-points, bands, fillings ----------
Reduced to 19 k-points under symmetry. 
Computing the number of bands and number of electrons
Calculating initial fillings.
nElectrons:   3.000000   nBands: 3   nStates: 38

----- Setting up reduced wavefunction bases (one per k-point) -----
average nbasis = 29766.104 , ideal nbasis = 29766.845

---------- Setting up coulomb interaction ----------
Initialized slab truncation along lattice direction 001

---------- Setting up 2D ewald sum ----------
Optimum gaussian width for ewald sums = 7.873530 bohr.
Real space sums over 289 unit cells with max indices [  8  8  0  ]
Reciprocal space sums over 81 terms with max indices [  4  4  0  ]

---------- Allocating electronic variables ----------
Initializing wave functions:  linear combination of atomic orbitals
Note: number of bands (3) exceeds available atomic orbitals (2)
Li pseudo-atom occupations:   s ( 2 1 )
[d-3-11-1:33427] 18 more processes have sent help message help-mpi-common-cuda.txt / dlopen failed
[d-3-11-1:33427] Set MCA parameter "orte_base_help_aggregate" to 0 to see all help / error messages
[d-3-11-1:33427] 18 more processes have sent help message help-mpi-btl-openib-cpc-base.txt / no cpcs for port
	FillingsUpdate:  mu: +0.359957973  nElectrons: 3.000000  magneticMoment: [ Abs: 0.72000  Tot: +0.72000 ]
LCAOMinimize: Iter:   0  F: -1.2838038923928754  |grad|_K:  4.650e-05  alpha:  1.000e+00
LCAOMinimize: 	Wrong curvature in test step, increasing alphaT to 3.000000e+00.
	FillingsUpdate:  mu: +0.359877178  nElectrons: 3.000000  magneticMoment: [ Abs: 0.72000  Tot: +0.72000 ]
LCAOMinimize: Iter:   1  F: -1.2838053424552991  |grad|_K:  3.462e-04  alpha: -5.203e-01  linmin: -2.188e-02  cgtest:  7.805e-03  t[s]:      7.58
LCAOMinimize: 	Step increased F by 1.784165e-04, reducing alpha to 4.120426e-02.
	FillingsUpdate:  mu: +0.359820030  nElectrons: 3.000000  magneticMoment: [ Abs: 0.72000  Tot: +0.72000 ]
LCAOMinimize: Iter:   2  F: -1.2838057399731049  |grad|_K:  9.749e-05  alpha:  4.120e-02  linmin:  2.439e-01  cgtest: -1.148e+01  t[s]:     10.73
LCAOMinimize: 	Bad step direction: g.d > 0.
LCAOMinimize: 	Undoing step.
LCAOMinimize: 	Step failed: resetting search direction.
	FillingsUpdate:  mu: +0.359820030  nElectrons: 3.000000  magneticMoment: [ Abs: 0.72000  Tot: +0.72000 ]
LCAOMinimize: Iter:   3  F: -1.2838057399731049  |grad|_K:  9.749e-05  alpha:  0.000e+00
LCAOMinimize: 	Predicted alpha/alphaT>3.000000, increasing alphaT to 1.236128e-01.
LCAOMinimize: 	Predicted alpha/alphaT>3.000000, increasing alphaT to 3.708383e-01.
	FillingsUpdate:  mu: +0.359820686  nElectrons: 3.000000  magneticMoment: [ Abs: 0.72000  Tot: +0.72000 ]
LCAOMinimize: Iter:   4  F: -1.2838074609226851  |grad|_K:  7.060e-07  alpha:  1.059e+00  linmin:  8.454e-03  cgtest: -5.076e-02  t[s]:     15.65
	FillingsUpdate:  mu: +0.359820683  nElectrons: 3.000000  magneticMoment: [ Abs: 0.72000  Tot: +0.72000 ]
LCAOMinimize: Iter:   5  F: -1.2838074610103940  |grad|_K:  5.193e-08  alpha:  1.063e+00  linmin:  9.157e-03  cgtest: -3.435e-01  t[s]:     17.69
	FillingsUpdate:  mu: +0.359820683  nElectrons: 3.000000  magneticMoment: [ Abs: 0.72000  Tot: +0.72000 ]
LCAOMinimize: Iter:   6  F: -1.2838074610125365  |grad|_K:  4.232e-08  alpha:  2.364e-01  linmin: -5.291e-02  cgtest:  9.950e-01  t[s]:     19.69
LCAOMinimize: Encountered beta<0, resetting CG.
LCAOMinimize: Converged (|Delta F|<1.000000e-06 for 2 iters).


---- Citations for features of the code used in this run ----

   Software package:
      R. Sundararaman, K. Letchworth-Weaver, K.A. Schwarz, D. Gunceler, Y. Ozhabes and T.A. Arias, 'JDFTx: software for joint density-functional theory', SoftwareX 6, 278 (2017)

   gga-PBE exchange-correlation functional:
      J.P. Perdew, K. Burke and M. Ernzerhof, Phys. Rev. Lett. 77, 3865 (1996)

   Pseudopotentials:
      M Schlipf and F Gygi, Comput. Phys. Commun. 196, 36 (2015)

   Truncated Coulomb potentials:
      R. Sundararaman and T.A. Arias, Phys. Rev. B 87, 165122 (2013)

This list may not be complete. Please suggest additional citations or
report any other bugs at https://github.com/shankar1729/jdftx/issues

Initialization completed successfully at t[s]:     19.80


-------- Electronic minimization -----------
Will mix electronic density at each iteration.
	FillingsUpdate:  mu: +0.359820683  nElectrons: 3.000000  magneticMoment: [ Abs: 0.72000  Tot: +0.72000 ]
	FillingsUpdate:  mu: -0.693213347  nElectrons: 3.000000  magneticMoment: [ Abs: 0.72000  Tot: +0.72000 ]
SCF: Cycle:  0   F: -6.881323436693593   dF: -5.598e+00   |Residual|: 1.225e+00   |deigs|: 4.156e+00  t[s]:     23.27
	FillingsUpdate:  mu: -0.568868191  nElectrons: 3.000000  magneticMoment: [ Abs: 1.15145  Tot: +0.72000 ]
SCF: Cycle:  1   F: -6.917066419281960   dF: -3.574e-02   |Residual|: 7.649e-01   |deigs|: 2.740e-01  t[s]:     26.02
	FillingsUpdate:  mu: -0.372963927  nElectrons: 3.000000  magneticMoment: [ Abs: 1.57984  Tot: +0.72000 ]
SCF: Cycle:  2   F: -7.039122765815131   dF: -1.221e-01   |Residual|: 3.325e-01   |deigs|: 7.080e-01  t[s]:     28.77
	FillingsUpdate:  mu: -0.380298087  nElectrons: 3.000000  magneticMoment: [ Abs: 1.40282  Tot: +0.72000 ]
SCF: Cycle:  3   F: -7.040622824478735   dF: -1.500e-03   |Residual|: 1.727e-01   |deigs|: 8.624e-02  t[s]:     31.70
	FillingsUpdate:  mu: -0.333123418  nElectrons: 3.000000  magneticMoment: [ Abs: 1.15745  Tot: +0.72000 ]
SCF: Cycle:  4   F: -7.043799199608359   dF: -3.176e-03   |Residual|: 3.887e-02   |deigs|: 3.843e-02  t[s]:     34.63
	FillingsUpdate:  mu: -0.311236504  nElectrons: 3.000000  magneticMoment: [ Abs: 1.07431  Tot: +0.72000 ]
SCF: Cycle:  5   F: -7.044464009282033   dF: -6.648e-04   |Residual|: 6.994e-02   |deigs|: 2.197e-02  t[s]:     37.62
	FillingsUpdate:  mu: -0.280204884  nElectrons: 3.000000  magneticMoment: [ Abs: 0.90423  Tot: +0.72000 ]
SCF: Cycle:  6   F: -7.046210933260355   dF: -1.747e-03   |Residual|: 4.186e-02   |deigs|: 5.678e-02  t[s]:     40.69
	FillingsUpdate:  mu: -0.261979175  nElectrons: 3.000000  magneticMoment: [ Abs: 0.86053  Tot: +0.72000 ]
SCF: Cycle:  7   F: -7.047987323690651   dF: -1.776e-03   |Residual|: 3.296e-02   |deigs|: 4.074e-02  t[s]:     43.79
	FillingsUpdate:  mu: -0.255356926  nElectrons: 3.000000  magneticMoment: [ Abs: 0.82454  Tot: +0.72000 ]
SCF: Cycle:  8   F: -7.048514536153608   dF: -5.272e-04   |Residual|: 5.749e-02   |deigs|: 1.186e-02  t[s]:     47.03
	FillingsUpdate:  mu: -0.235019056  nElectrons: 3.000000  magneticMoment: [ Abs: 0.79136  Tot: +0.72000 ]
SCF: Cycle:  9   F: -7.049526630449178   dF: -1.012e-03   |Residual|: 1.640e-02   |deigs|: 1.962e-02  t[s]:     50.25
	FillingsUpdate:  mu: -0.206206426  nElectrons: 3.000000  magneticMoment: [ Abs: 0.86235  Tot: +0.72000 ]
SCF: Cycle: 10   F: -7.049933523747138   dF: -4.069e-04   |Residual|: 7.085e-02   |deigs|: 2.417e-02  t[s]:     53.66
	FillingsUpdate:  mu: -0.188228685  nElectrons: 3.000000  magneticMoment: [ Abs: 0.89612  Tot: +0.72000 ]
SCF: Cycle: 11   F: -7.050120564382482   dF: -1.870e-04   |Residual|: 1.224e-02   |deigs|: 2.876e-02  t[s]:     57.02
	FillingsUpdate:  mu: -0.172801486  nElectrons: 3.000000  magneticMoment: [ Abs: 0.91168  Tot: +0.72000 ]
SCF: Cycle: 12   F: -7.050333984001240   dF: -2.134e-04   |Residual|: 1.016e-02   |deigs|: 1.580e-02  t[s]:     60.30
	FillingsUpdate:  mu: -0.148345249  nElectrons: 3.000000  magneticMoment: [ Abs: 0.90378  Tot: +0.72000 ]
SCF: Cycle: 13   F: -7.050243748016923   dF: +9.024e-05   |Residual|: 7.766e-03   |deigs|: 2.633e-02  t[s]:     63.69
	FillingsUpdate:  mu: -0.135324146  nElectrons: 3.000000  magneticMoment: [ Abs: 0.87175  Tot: +0.72000 ]
SCF: Cycle: 14   F: -7.050270028865345   dF: -2.628e-05   |Residual|: 7.664e-03   |deigs|: 1.409e-02  t[s]:     67.02
	FillingsUpdate:  mu: -0.123917736  nElectrons: 3.000000  magneticMoment: [ Abs: 0.84464  Tot: +0.72000 ]
SCF: Cycle: 15   F: -7.050427153074189   dF: -1.571e-04   |Residual|: 6.692e-03   |deigs|: 1.185e-02  t[s]:     70.34
	FillingsUpdate:  mu: -0.112529471  nElectrons: 3.000000  magneticMoment: [ Abs: 0.79846  Tot: +0.72000 ]
SCF: Cycle: 16   F: -7.050734911190447   dF: -3.078e-04   |Residual|: 4.220e-03   |deigs|: 1.232e-02  t[s]:     73.64
	FillingsUpdate:  mu: -0.105055718  nElectrons: 3.000000  magneticMoment: [ Abs: 0.76357  Tot: +0.72000 ]
SCF: Cycle: 17   F: -7.050883365363115   dF: -1.485e-04   |Residual|: 2.869e-03   |deigs|: 8.449e-03  t[s]:     77.00
	FillingsUpdate:  mu: -0.103112266  nElectrons: 3.000000  magneticMoment: [ Abs: 0.75543  Tot: +0.72000 ]
SCF: Cycle: 18   F: -7.050934764975817   dF: -5.140e-05   |Residual|: 2.084e-03   |deigs|: 2.448e-03  t[s]:     80.32
	FillingsUpdate:  mu: -0.102298328  nElectrons: 3.000000  magneticMoment: [ Abs: 0.74880  Tot: +0.72000 ]
SCF: Cycle: 19   F: -7.050962340172889   dF: -2.758e-05   |Residual|: 1.367e-03   |deigs|: 1.216e-03  t[s]:     83.65
	FillingsUpdate:  mu: -0.101659338  nElectrons: 3.000000  magneticMoment: [ Abs: 0.74526  Tot: +0.72000 ]
SCF: Cycle: 20   F: -7.050986537252499   dF: -2.420e-05   |Residual|: 8.306e-04   |deigs|: 8.190e-04  t[s]:     86.92
	FillingsUpdate:  mu: -0.102193058  nElectrons: 3.000000  magneticMoment: [ Abs: 0.73928  Tot: +0.72000 ]
SCF: Cycle: 21   F: -7.050997820458982   dF: -1.128e-05   |Residual|: 5.306e-04   |deigs|: 6.246e-04  t[s]:     90.30
	FillingsUpdate:  mu: -0.102438457  nElectrons: 3.000000  magneticMoment: [ Abs: 0.73428  Tot: +0.72000 ]
SCF: Cycle: 22   F: -7.051001020214910   dF: -3.200e-06   |Residual|: 3.687e-04   |deigs|: 3.439e-04  t[s]:     93.57
	FillingsUpdate:  mu: -0.102865365  nElectrons: 3.000000  magneticMoment: [ Abs: 0.72844  Tot: +0.72000 ]
SCF: Cycle: 23   F: -7.051001280208504   dF: -2.600e-07   |Residual|: 3.091e-04   |deigs|: 4.920e-04  t[s]:     96.83
	FillingsUpdate:  mu: -0.103334357  nElectrons: 3.000000  magneticMoment: [ Abs: 0.72379  Tot: +0.72000 ]
SCF: Cycle: 24   F: -7.051003676629461   dF: -2.396e-06   |Residual|: 2.217e-04   |deigs|: 5.639e-04  t[s]:    100.17
	FillingsUpdate:  mu: -0.103526588  nElectrons: 3.000000  magneticMoment: [ Abs: 0.72152  Tot: +0.72000 ]
SCF: Cycle: 25   F: -7.051004488602511   dF: -8.120e-07   |Residual|: 1.660e-04   |deigs|: 2.768e-04  t[s]:    103.47
	FillingsUpdate:  mu: -0.103643442  nElectrons: 3.000000  magneticMoment: [ Abs: 0.72070  Tot: +0.72000 ]
SCF: Cycle: 26   F: -7.051005041434519   dF: -5.528e-07   |Residual|: 1.173e-04   |deigs|: 1.978e-04  t[s]:    106.76
	FillingsUpdate:  mu: -0.103674463  nElectrons: 3.000000  magneticMoment: [ Abs: 0.72046  Tot: +0.72000 ]
SCF: Cycle: 27   F: -7.051005279204499   dF: -2.378e-07   |Residual|: 8.131e-05   |deigs|: 9.861e-05  t[s]:    110.04
	FillingsUpdate:  mu: -0.103619854  nElectrons: 3.000000  magneticMoment: [ Abs: 0.72030  Tot: +0.72000 ]
SCF: Cycle: 28   F: -7.051005332105148   dF: -5.290e-08   |Residual|: 6.542e-05   |deigs|: 8.151e-05  t[s]:    113.32
	FillingsUpdate:  mu: -0.103576356  nElectrons: 3.000000  magneticMoment: [ Abs: 0.72017  Tot: +0.72000 ]
SCF: Cycle: 29   F: -7.051005330717601   dF: +1.388e-09   |Residual|: 5.436e-05   |deigs|: 6.442e-05  t[s]:    116.62
	FillingsUpdate:  mu: -0.103473257  nElectrons: 3.000000  magneticMoment: [ Abs: 0.72014  Tot: +0.72000 ]
SCF: Cycle: 30   F: -7.051005403014300   dF: -7.230e-08   |Residual|: 3.897e-05   |deigs|: 1.131e-04  t[s]:    119.92
	FillingsUpdate:  mu: -0.103435747  nElectrons: 3.000000  magneticMoment: [ Abs: 0.72004  Tot: +0.72000 ]
SCF: Cycle: 31   F: -7.051005468044462   dF: -6.503e-08   |Residual|: 2.303e-05   |deigs|: 4.215e-05  t[s]:    123.19
	FillingsUpdate:  mu: -0.103429031  nElectrons: 3.000000  magneticMoment: [ Abs: 0.72000  Tot: +0.72000 ]
SCF: Cycle: 32   F: -7.051005504612702   dF: -3.657e-08   |Residual|: 1.408e-05   |deigs|: 1.867e-05  t[s]:    126.45
	FillingsUpdate:  mu: -0.103424851  nElectrons: 3.000000  magneticMoment: [ Abs: 0.72000  Tot: +0.72000 ]
SCF: Cycle: 33   F: -7.051005513695449   dF: -9.083e-09   |Residual|: 8.801e-06   |deigs|: 1.268e-05  t[s]:    129.73
	FillingsUpdate:  mu: -0.103422488  nElectrons: 3.000000  magneticMoment: [ Abs: 0.72000  Tot: +0.72000 ]
SCF: Cycle: 34   F: -7.051005517964886   dF: -4.269e-09   |Residual|: 4.240e-06   |deigs|: 8.363e-06  t[s]:    132.98
SCF: Converged (|Delta E|<1.000000e-08 for 2 iters).


# Ionic positions in lattice coordinates:
ion Li   0.000000000000000   0.000000000000000   0.000000000000000 0

# Forces in Lattice coordinates:
force Li  -0.000000000000000   0.000000000000000   0.000000000000000 0

# Energy components:
   Eewald =       -1.3368908222468645
       EH =        2.2164141677750653
     Eloc =       -7.5605656212023540
      Enl =       -3.6038723732825009
   Epulay =       -0.0000013080581827
      Exc =       -1.5404710820521661
       KE =        4.7743818349316438
-------------------------------------
     Etot =       -7.0510052041353593
       TS =        0.0000003138295265
-------------------------------------
        F =       -7.0510055179648861

IonicMinimize: Iter:   0  F: -7.051005517964886  |grad|_K:  0.000e+00  t[s]:    133.12
IonicMinimize: Converged (|grad|_K<1.000000e-04).

#--- Lowdin population analysis ---
# oxidation-state Li +2.080
# magnetic-moments Li +0.664

End date and time: Sat Feb  5 23:10:41 2022  (Duration: 0-0:02:13.14)
Done!
scale=4
magnetization=0.72
--------------------------------------------------------------------------
The library attempted to open the following supporting CUDA libraries,
but each of them failed.  CUDA-aware support is disabled.
libcuda.so.1: cannot open shared object file: No such file or directory
libcuda.dylib: cannot open shared object file: No such file or directory
/usr/lib64/libcuda.so.1: cannot open shared object file: No such file or directory
/usr/lib64/libcuda.dylib: cannot open shared object file: No such file or directory
If you are not interested in CUDA-aware support, then run with
--mca opal_warn_on_missing_libcuda 0 to suppress this message.  If you are interested
in CUDA-aware support, then try setting LD_LIBRARY_PATH to the location
of libcuda.so.1 to get passed this issue.
--------------------------------------------------------------------------
--------------------------------------------------------------------------
No OpenFabrics connection schemes reported that they were able to be
used on a specific port.  As such, the openib BTL (OpenFabrics
support) will be disabled for this port.

  Local host:           d-3-11-1
  Local device:         mlx5_1
  Local port:           1
  CPCs attempted:       rdmacm, udcm
--------------------------------------------------------------------------

*************** JDFTx 1.6.0 (git hash 42ebbcc2) ***************

Start date and time: Sat Feb  5 23:10:42 2022
Executable jdftx with command-line: -i Alkali.in
Running on hosts (process indices):  d-3-11-1 (0-18)
Divided in process groups (process indices):  0 (0)  1 (1)  2 (2)  3 (3)  4 (4)  5 (5)  6 (6)  7 (7)  8 (8)  9 (9)  10 (10)  11 (11)  12 (12)  13 (13)  14 (14)  15 (15)  16 (16)  17 (17)  18 (18)
Resource initialization completed at t[s]:      0.00
Run totals: 19 processes, 48 threads, 0 GPUs


Input parsed successfully to the following command list (including defaults):

basis kpoint-dependent
coords-type Lattice
core-overlap-check vector
coulomb-interaction Slab 001
davidson-band-ratio 1.1
dump End None
dump-name $INPUT.$VAR
elec-cutoff 20
elec-eigen-algo Davidson
elec-ex-corr gga-PBE
elec-initial-magnetization 0.720000 yes
elec-smearing Fermi 1e-05
electronic-minimize  \
	dirUpdateScheme      FletcherReeves \
	linminMethod         DirUpdateRecommended \
	nIterations          100 \
	history              15 \
	knormThreshold       0 \
	energyDiffThreshold  1e-08 \
	nEnergyDiff          2 \
	alphaTstart          1 \
	alphaTmin            1e-10 \
	updateTestStepSize   yes \
	alphaTreduceFactor   0.1 \
	alphaTincreaseFactor 3 \
	nAlphaAdjustMax      3 \
	wolfeEnergy          0.0001 \
	wolfeGradient        0.9 \
	fdTest               no
electronic-scf  \
	nIterations	10000 \
	energyDiffThreshold	1e-08 \
	residualThreshold	1e-07 \
	mixFraction	0.5 \
	qMetric	0.8 \
	history	10 \
	nEigSteps	2 \
	eigDiffThreshold	1e-08 \
	mixedVariable	Density \
	qKerker	0.8 \
	qKappa	-1 \
	verbose	no \
	mixFractionMag	1.5
exchange-regularization WignerSeitzTruncated
fluid None
fluid-ex-corr (null) lda-PZ
fluid-gummel-loop 10 1.000000e-05
fluid-minimize  \
	dirUpdateScheme      PolakRibiere \
	linminMethod         DirUpdateRecommended \
	nIterations          100 \
	history              15 \
	knormThreshold       0 \
	energyDiffThreshold  0 \
	nEnergyDiff          2 \
	alphaTstart          1 \
	alphaTmin            1e-10 \
	updateTestStepSize   yes \
	alphaTreduceFactor   0.1 \
	alphaTincreaseFactor 3 \
	nAlphaAdjustMax      3 \
	wolfeEnergy          0.0001 \
	wolfeGradient        0.9 \
	fdTest               no
fluid-solvent H2O 55.338 ScalarEOS \
	epsBulk 78.4 \
	pMol 0.92466 \
	epsInf 1.77 \
	Pvap 1.06736e-10 \
	sigmaBulk 4.62e-05 \
	Rvdw 2.61727 \
	Res 1.42 \
	tauNuc 343133 \
	poleEl 15 7 1
forces-output-coords Positions
ion Li   0.000000000000000   0.000000000000000   0.000000000000000 0
ion-species SG15/$ID_ONCV_PBE.upf
ion-width 0
ionic-minimize  \
	dirUpdateScheme      L-BFGS \
	linminMethod         DirUpdateRecommended \
	nIterations          0 \
	history              15 \
	knormThreshold       0.0001 \
	energyDiffThreshold  1e-06 \
	nEnergyDiff          2 \
	alphaTstart          1 \
	alphaTmin            1e-10 \
	updateTestStepSize   yes \
	alphaTreduceFactor   0.1 \
	alphaTincreaseFactor 3 \
	nAlphaAdjustMax      3 \
	wolfeEnergy          0.0001 \
	wolfeGradient        0.9 \
	fdTest               no
kpoint   0.000000000000   0.000000000000   0.000000000000  1.00000000000000
kpoint-folding 12 12 1 
latt-move-scale 1 1 1
latt-scale 4 4 1 
lattice  \
	   4.727486978767153   -2.363743489383575    0.000000000000000  \
	  -0.000000000000000    4.094123819672498    0.000000000000000  \
	   0.000000000000000    0.000000000000000   40.000000000000000 
lattice-minimize  \
	dirUpdateScheme      L-BFGS \
	linminMethod         DirUpdateRecommended \
	nIterations          0 \
	history              15 \
	knormThreshold       0 \
	energyDiffThreshold  1e-06 \
	nEnergyDiff          2 \
	alphaTstart          1 \
	alphaTmin            1e-10 \
	updateTestStepSize   yes \
	alphaTreduceFactor   0.1 \
	alphaTincreaseFactor 3 \
	nAlphaAdjustMax      3 \
	wolfeEnergy          0.0001 \
	wolfeGradient        0.9 \
	fdTest               no
lcao-params -1 1e-06 1e-05
pcm-variant GLSSA13
spintype z-spin
subspace-rotation-factor 1 yes
symmetries automatic
symmetry-threshold 0.0001



---------- Setting up symmetries ----------

Found 24 point-group symmetries of the bravais lattice
Found 24 space-group symmetries with basis
Applied RMS atom displacement 0 bohrs to make symmetries exact.

---------- Initializing the Grid ----------
R = 
[      18.9099     -9.45497            0  ]
[            0      16.3765            0  ]
[            0            0           40  ]
unit cell volume = 12387.1
G =
[   0.332269   0.191835         -0  ]
[          0   0.383671         -0  ]
[         -0         -0    0.15708  ]
Minimum fftbox size, Smin = [  80  80  164  ]
Chosen fftbox size, S = [  80  80  168  ]

---------- Exchange Correlation functional ----------
Initalized PBE GGA exchange.
Initalized PBE GGA correlation.

---------- Setting up pseudopotentials ----------
Width of ionic core gaussian charges (only for fluid interactions / plotting) set to 0

Reading pseudopotential file '/home/gridsan/aligho/DFT/build-Nov24/pseudopotentials/SG15/Li_ONCV_PBE.upf':
  'Li' pseudopotential, 'PBE' functional
  Generated using ONCVPSP code by D. R. Hamann
  Author: Martin Schlipf and Francois Gygi  Date: 150915.
  3 valence electrons, 2 orbitals, 4 projectors, 1328 radial grid points, with lMax = 1
  Transforming local potential to a uniform radial grid of dG=0.02 with 1489 points.
  Transforming nonlocal projectors to a uniform radial grid of dG=0.02 with 432 points.
    1S    l: 0   occupation:  2.0   eigenvalue: -1.905623
    2S    l: 0   occupation:  1.0   eigenvalue: -0.105624
  Transforming atomic orbitals to a uniform radial grid of dG=0.02 with 432 points.
  WARNING: large normalization error in atomic orbital 1s (integral: 0.000000).
  Core radius for overlap checks: 1.63 bohrs.
  Reading pulay file /home/gridsan/aligho/DFT/build-Nov24/pseudopotentials/SG15/Li_ONCV_PBE.pulay ... using dE_dnG = -1.230239e-02 computed for Ecut = 20.

Initialized 1 species with 1 total atoms.

Folded 1 k-points by 12x12x1 to 144 k-points.

---------- Setting up k-points, bands, fillings ----------
Reduced to 19 k-points under symmetry. 
Computing the number of bands and number of electrons
Calculating initial fillings.
nElectrons:   3.000000   nBands: 3   nStates: 38

----- Setting up reduced wavefunction bases (one per k-point) -----
average nbasis = 52924.021 , ideal nbasis = 52918.836

---------- Setting up coulomb interaction ----------
Initialized slab truncation along lattice direction 001

---------- Setting up 2D ewald sum ----------
Optimum gaussian width for ewald sums = 10.498040 bohr.
Real space sums over 289 unit cells with max indices [  8  8  0  ]
Reciprocal space sums over 81 terms with max indices [  4  4  0  ]

---------- Allocating electronic variables ----------
Initializing wave functions:  linear combination of atomic orbitals
Note: number of bands (3) exceeds available atomic orbitals (2)
Li pseudo-atom occupations:   s ( 2 1 )
[d-3-11-1:43045] 18 more processes have sent help message help-mpi-common-cuda.txt / dlopen failed
[d-3-11-1:43045] Set MCA parameter "orte_base_help_aggregate" to 0 to see all help / error messages
[d-3-11-1:43045] 18 more processes have sent help message help-mpi-btl-openib-cpc-base.txt / no cpcs for port
	FillingsUpdate:  mu: +0.359212461  nElectrons: 3.000000  magneticMoment: [ Abs: 0.72000  Tot: +0.72000 ]
LCAOMinimize: Iter:   0  F: -1.3071808568888967  |grad|_K:  3.977e-05  alpha:  1.000e+00
	FillingsUpdate:  mu: +0.359211948  nElectrons: 3.000000  magneticMoment: [ Abs: 0.72000  Tot: +0.72000 ]
LCAOMinimize: Iter:   1  F: -1.3071811433167901  |grad|_K:  1.661e-07  alpha:  1.059e+00  linmin: -5.504e-03  cgtest:  2.029e-02  t[s]:     12.92
LCAOMinimize: Encountered beta<0, resetting CG.
	FillingsUpdate:  mu: +0.359211948  nElectrons: 3.000000  magneticMoment: [ Abs: 0.72000  Tot: +0.72000 ]
LCAOMinimize: Iter:   2  F: -1.3071811433195979  |grad|_K:  3.482e-08  alpha:  8.383e-01  linmin: -2.617e-02  cgtest:  9.848e-01  t[s]:     16.26
LCAOMinimize: Encountered beta<0, resetting CG.
LCAOMinimize: Converged (|Delta F|<1.000000e-06 for 2 iters).


---- Citations for features of the code used in this run ----

   Software package:
      R. Sundararaman, K. Letchworth-Weaver, K.A. Schwarz, D. Gunceler, Y. Ozhabes and T.A. Arias, 'JDFTx: software for joint density-functional theory', SoftwareX 6, 278 (2017)

   gga-PBE exchange-correlation functional:
      J.P. Perdew, K. Burke and M. Ernzerhof, Phys. Rev. Lett. 77, 3865 (1996)

   Pseudopotentials:
      M Schlipf and F Gygi, Comput. Phys. Commun. 196, 36 (2015)

   Truncated Coulomb potentials:
      R. Sundararaman and T.A. Arias, Phys. Rev. B 87, 165122 (2013)

This list may not be complete. Please suggest additional citations or
report any other bugs at https://github.com/shankar1729/jdftx/issues

Initialization completed successfully at t[s]:     16.40


-------- Electronic minimization -----------
Will mix electronic density at each iteration.
	FillingsUpdate:  mu: +0.359211948  nElectrons: 3.000000  magneticMoment: [ Abs: 0.72000  Tot: +0.72000 ]
	FillingsUpdate:  mu: -0.610569027  nElectrons: 3.000000  magneticMoment: [ Abs: 0.72000  Tot: +0.72000 ]
SCF: Cycle:  0   F: -6.881836059316768   dF: -5.575e+00   |Residual|: 1.230e+00   |deigs|: 4.155e+00  t[s]:     22.13
	FillingsUpdate:  mu: -0.484309654  nElectrons: 3.000000  magneticMoment: [ Abs: 1.23430  Tot: +0.72000 ]
SCF: Cycle:  1   F: -6.916084215253189   dF: -3.425e-02   |Residual|: 7.634e-01   |deigs|: 2.764e-01  t[s]:     26.69
	FillingsUpdate:  mu: -0.283006321  nElectrons: 3.000000  magneticMoment: [ Abs: 1.59634  Tot: +0.72000 ]
SCF: Cycle:  2   F: -7.037683337375739   dF: -1.216e-01   |Residual|: 3.209e-01   |deigs|: 7.024e-01  t[s]:     31.37
	FillingsUpdate:  mu: -0.289241675  nElectrons: 3.000000  magneticMoment: [ Abs: 1.41174  Tot: +0.72000 ]
SCF: Cycle:  3   F: -7.037866386792350   dF: -1.830e-04   |Residual|: 1.663e-01   |deigs|: 8.297e-02  t[s]:     36.17
	FillingsUpdate:  mu: -0.236728087  nElectrons: 3.000000  magneticMoment: [ Abs: 1.22256  Tot: +0.72000 ]
SCF: Cycle:  4   F: -7.042267072938839   dF: -4.401e-03   |Residual|: 4.159e-02   |deigs|: 4.723e-02  t[s]:     41.11
	FillingsUpdate:  mu: -0.220851516  nElectrons: 3.000000  magneticMoment: [ Abs: 1.20126  Tot: +0.72000 ]
SCF: Cycle:  5   F: -7.043589910588594   dF: -1.323e-03   |Residual|: 7.086e-02   |deigs|: 1.579e-02  t[s]:     46.11
	FillingsUpdate:  mu: -0.200839284  nElectrons: 3.000000  magneticMoment: [ Abs: 1.03050  Tot: +0.72000 ]
SCF: Cycle:  6   F: -7.045284821089998   dF: -1.695e-03   |Residual|: 2.712e-02   |deigs|: 4.508e-02  t[s]:     51.34
	FillingsUpdate:  mu: -0.183573141  nElectrons: 3.000000  magneticMoment: [ Abs: 0.93803  Tot: +0.72000 ]
SCF: Cycle:  7   F: -7.047328113856695   dF: -2.043e-03   |Residual|: 3.908e-02   |deigs|: 4.143e-02  t[s]:     56.58
	FillingsUpdate:  mu: -0.182248686  nElectrons: 3.000000  magneticMoment: [ Abs: 0.87513  Tot: +0.72000 ]
SCF: Cycle:  8   F: -7.047963228959697   dF: -6.351e-04   |Residual|: 3.519e-02   |deigs|: 2.473e-03  t[s]:     61.97
	FillingsUpdate:  mu: -0.179805237  nElectrons: 3.000000  magneticMoment: [ Abs: 0.82412  Tot: +0.72000 ]
SCF: Cycle:  9   F: -7.048660790360003   dF: -6.976e-04   |Residual|: 1.574e-02   |deigs|: 1.746e-02  t[s]:     67.44
	FillingsUpdate:  mu: -0.168347147  nElectrons: 3.000000  magneticMoment: [ Abs: 0.75624  Tot: +0.72000 ]
SCF: Cycle: 10   F: -7.049006984159214   dF: -3.462e-04   |Residual|: 3.547e-02   |deigs|: 8.909e-03  t[s]:     73.05
	FillingsUpdate:  mu: -0.158194753  nElectrons: 3.000000  magneticMoment: [ Abs: 0.78896  Tot: +0.72000 ]
SCF: Cycle: 11   F: -7.049036456679717   dF: -2.947e-05   |Residual|: 9.675e-03   |deigs|: 1.731e-02  t[s]:     78.64
	FillingsUpdate:  mu: -0.148127603  nElectrons: 3.000000  magneticMoment: [ Abs: 0.83267  Tot: +0.72000 ]
SCF: Cycle: 12   F: -7.049219490278379   dF: -1.830e-04   |Residual|: 1.114e-02   |deigs|: 8.049e-03  t[s]:     84.30
	FillingsUpdate:  mu: -0.129192834  nElectrons: 3.000000  magneticMoment: [ Abs: 0.88333  Tot: +0.72000 ]
SCF: Cycle: 13   F: -7.049398710925705   dF: -1.792e-04   |Residual|: 6.343e-03   |deigs|: 2.318e-02  t[s]:     89.85
	FillingsUpdate:  mu: -0.119002528  nElectrons: 3.000000  magneticMoment: [ Abs: 0.88400  Tot: +0.72000 ]
SCF: Cycle: 14   F: -7.049317036768077   dF: +8.167e-05   |Residual|: 5.600e-03   |deigs|: 1.051e-02  t[s]:     95.44
	FillingsUpdate:  mu: -0.113646660  nElectrons: 3.000000  magneticMoment: [ Abs: 0.86812  Tot: +0.72000 ]
SCF: Cycle: 15   F: -7.049378960089840   dF: -6.192e-05   |Residual|: 4.383e-03   |deigs|: 5.775e-03  t[s]:    101.03
	FillingsUpdate:  mu: -0.109657674  nElectrons: 3.000000  magneticMoment: [ Abs: 0.83838  Tot: +0.72000 ]
SCF: Cycle: 16   F: -7.049416981702763   dF: -3.802e-05   |Residual|: 3.416e-03   |deigs|: 4.279e-03  t[s]:    106.66
	FillingsUpdate:  mu: -0.106602444  nElectrons: 3.000000  magneticMoment: [ Abs: 0.80665  Tot: +0.72000 ]
SCF: Cycle: 17   F: -7.049408563393620   dF: +8.418e-06   |Residual|: 3.035e-03   |deigs|: 3.191e-03  t[s]:    112.19
	FillingsUpdate:  mu: -0.102905437  nElectrons: 3.000000  magneticMoment: [ Abs: 0.78700  Tot: +0.72000 ]
SCF: Cycle: 18   F: -7.049448620715202   dF: -4.006e-05   |Residual|: 2.159e-03   |deigs|: 4.231e-03  t[s]:    117.77
	FillingsUpdate:  mu: -0.102423926  nElectrons: 3.000000  magneticMoment: [ Abs: 0.76407  Tot: +0.72000 ]
SCF: Cycle: 19   F: -7.049496819486142   dF: -4.820e-05   |Residual|: 1.682e-03   |deigs|: 1.059e-03  t[s]:    123.33
	FillingsUpdate:  mu: -0.101298837  nElectrons: 3.000000  magneticMoment: [ Abs: 0.75450  Tot: +0.72000 ]
SCF: Cycle: 20   F: -7.049526573049249   dF: -2.975e-05   |Residual|: 1.175e-03   |deigs|: 1.322e-03  t[s]:    128.87
	FillingsUpdate:  mu: -0.100663770  nElectrons: 3.000000  magneticMoment: [ Abs: 0.74217  Tot: +0.72000 ]
SCF: Cycle: 21   F: -7.049548474678732   dF: -2.190e-05   |Residual|: 8.200e-04   |deigs|: 9.407e-04  t[s]:    134.48
	FillingsUpdate:  mu: -0.100929298  nElectrons: 3.000000  magneticMoment: [ Abs: 0.73418  Tot: +0.72000 ]
SCF: Cycle: 22   F: -7.049552970066434   dF: -4.495e-06   |Residual|: 6.374e-04   |deigs|: 3.234e-04  t[s]:    140.06
	FillingsUpdate:  mu: -0.101064242  nElectrons: 3.000000  magneticMoment: [ Abs: 0.72670  Tot: +0.72000 ]
SCF: Cycle: 23   F: -7.049559049552166   dF: -6.079e-06   |Residual|: 4.074e-04   |deigs|: 3.963e-04  t[s]:    145.67
	FillingsUpdate:  mu: -0.101470202  nElectrons: 3.000000  magneticMoment: [ Abs: 0.72331  Tot: +0.72000 ]
SCF: Cycle: 24   F: -7.049561377358741   dF: -2.328e-06   |Residual|: 2.767e-04   |deigs|: 5.588e-04  t[s]:    151.17
	FillingsUpdate:  mu: -0.101508651  nElectrons: 3.000000  magneticMoment: [ Abs: 0.72191  Tot: +0.72000 ]
SCF: Cycle: 25   F: -7.049562844869270   dF: -1.468e-06   |Residual|: 1.494e-04   |deigs|: 2.940e-04  t[s]:    156.76
	FillingsUpdate:  mu: -0.101506203  nElectrons: 3.000000  magneticMoment: [ Abs: 0.72132  Tot: +0.72000 ]
SCF: Cycle: 26   F: -7.049563426975276   dF: -5.821e-07   |Residual|: 9.317e-05   |deigs|: 9.475e-05  t[s]:    162.29
	FillingsUpdate:  mu: -0.101479265  nElectrons: 3.000000  magneticMoment: [ Abs: 0.72091  Tot: +0.72000 ]
SCF: Cycle: 27   F: -7.049563461187390   dF: -3.421e-08   |Residual|: 7.455e-05   |deigs|: 6.371e-05  t[s]:    167.95
	FillingsUpdate:  mu: -0.101425064  nElectrons: 3.000000  magneticMoment: [ Abs: 0.72076  Tot: +0.72000 ]
SCF: Cycle: 28   F: -7.049563516396296   dF: -5.521e-08   |Residual|: 5.172e-05   |deigs|: 6.366e-05  t[s]:    173.52
	FillingsUpdate:  mu: -0.101420575  nElectrons: 3.000000  magneticMoment: [ Abs: 0.72062  Tot: +0.72000 ]
SCF: Cycle: 29   F: -7.049563540729389   dF: -2.433e-08   |Residual|: 4.185e-05   |deigs|: 3.501e-05  t[s]:    179.15
	FillingsUpdate:  mu: -0.101425485  nElectrons: 3.000000  magneticMoment: [ Abs: 0.72052  Tot: +0.72000 ]
SCF: Cycle: 30   F: -7.049563541163513   dF: -4.341e-10   |Residual|: 2.753e-05   |deigs|: 3.019e-05  t[s]:    184.73
	FillingsUpdate:  mu: -0.101431937  nElectrons: 3.000000  magneticMoment: [ Abs: 0.72035  Tot: +0.72000 ]
SCF: Cycle: 31   F: -7.049563578248619   dF: -3.709e-08   |Residual|: 1.776e-05   |deigs|: 2.796e-05  t[s]:    190.26
	FillingsUpdate:  mu: -0.101433790  nElectrons: 3.000000  magneticMoment: [ Abs: 0.72017  Tot: +0.72000 ]
SCF: Cycle: 32   F: -7.049563581331909   dF: -3.083e-09   |Residual|: 1.326e-05   |deigs|: 2.761e-05  t[s]:    195.84
	FillingsUpdate:  mu: -0.101431925  nElectrons: 3.000000  magneticMoment: [ Abs: 0.72007  Tot: +0.72000 ]
SCF: Cycle: 33   F: -7.049563591283935   dF: -9.952e-09   |Residual|: 9.919e-06   |deigs|: 2.587e-05  t[s]:    201.42
SCF: Converged (|Delta E|<1.000000e-08 for 2 iters).


# Ionic positions in lattice coordinates:
ion Li   0.000000000000000   0.000000000000000   0.000000000000000 0

# Forces in Lattice coordinates:
force Li   0.000000000000000  -0.000000000000000   0.000000000000000 0

# Energy components:
   Eewald =       -1.0026681166851483
       EH =        2.5577821029675567
     Eloc =       -8.2383573945064246
      Enl =       -3.6050849321922502
   Epulay =        0.0000051497655618
      Exc =       -1.5420976658058063
       KE =        4.7808578529465038
-------------------------------------
     Etot =       -7.0495630035100092
       TS =        0.0000005877739253
-------------------------------------
        F =       -7.0495635912839347

IonicMinimize: Iter:   0  F: -7.049563591283935  |grad|_K:  0.000e+00  t[s]:    201.68
IonicMinimize: Converged (|grad|_K<1.000000e-04).

#--- Lowdin population analysis ---
# oxidation-state Li +2.069
# magnetic-moments Li +0.667

End date and time: Sat Feb  5 23:14:03 2022  (Duration: 0-0:03:21.71)
Done!
