The alkali metal is Li
scale=2
magnetization=-0.72
--------------------------------------------------------------------------
The library attempted to open the following supporting CUDA libraries,
but each of them failed.  CUDA-aware support is disabled.
libcuda.so.1: cannot open shared object file: No such file or directory
libcuda.dylib: cannot open shared object file: No such file or directory
/usr/lib64/libcuda.so.1: cannot open shared object file: No such file or directory
/usr/lib64/libcuda.dylib: cannot open shared object file: No such file or directory
If you are not interested in CUDA-aware support, then run with
--mca opal_warn_on_missing_libcuda 0 to suppress this message.  If you are interested
in CUDA-aware support, then try setting LD_LIBRARY_PATH to the location
of libcuda.so.1 to get passed this issue.
--------------------------------------------------------------------------
--------------------------------------------------------------------------
No OpenFabrics connection schemes reported that they were able to be
used on a specific port.  As such, the openib BTL (OpenFabrics
support) will be disabled for this port.

  Local host:           d-6-10-3
  Local device:         mlx5_1
  Local port:           1
  CPCs attempted:       rdmacm, udcm
--------------------------------------------------------------------------

*************** JDFTx 1.6.0 (git hash 42ebbcc2) ***************

Start date and time: Sat Feb  5 22:45:58 2022
Executable jdftx with command-line: -i Alkali.in
Running on hosts (process indices):  d-6-10-3 (0-18)
Divided in process groups (process indices):  0 (0)  1 (1)  2 (2)  3 (3)  4 (4)  5 (5)  6 (6)  7 (7)  8 (8)  9 (9)  10 (10)  11 (11)  12 (12)  13 (13)  14 (14)  15 (15)  16 (16)  17 (17)  18 (18)
Resource initialization completed at t[s]:      0.00
Run totals: 19 processes, 48 threads, 0 GPUs


Input parsed successfully to the following command list (including defaults):

basis kpoint-dependent
coords-type Lattice
core-overlap-check vector
coulomb-interaction Slab 001
davidson-band-ratio 1.1
dump End None
dump-name $INPUT.$VAR
elec-cutoff 20
elec-eigen-algo Davidson
elec-ex-corr gga-PBE
elec-initial-magnetization -0.720000 yes
elec-smearing Fermi 1e-05
electronic-minimize  \
	dirUpdateScheme      FletcherReeves \
	linminMethod         DirUpdateRecommended \
	nIterations          100 \
	history              15 \
	knormThreshold       0 \
	energyDiffThreshold  1e-08 \
	nEnergyDiff          2 \
	alphaTstart          1 \
	alphaTmin            1e-10 \
	updateTestStepSize   yes \
	alphaTreduceFactor   0.1 \
	alphaTincreaseFactor 3 \
	nAlphaAdjustMax      3 \
	wolfeEnergy          0.0001 \
	wolfeGradient        0.9 \
	fdTest               no
electronic-scf  \
	nIterations	10000 \
	energyDiffThreshold	1e-08 \
	residualThreshold	1e-07 \
	mixFraction	0.5 \
	qMetric	0.8 \
	history	10 \
	nEigSteps	2 \
	eigDiffThreshold	1e-08 \
	mixedVariable	Density \
	qKerker	0.8 \
	qKappa	-1 \
	verbose	no \
	mixFractionMag	1.5
exchange-regularization WignerSeitzTruncated
fluid None
fluid-ex-corr (null) lda-PZ
fluid-gummel-loop 10 1.000000e-05
fluid-minimize  \
	dirUpdateScheme      PolakRibiere \
	linminMethod         DirUpdateRecommended \
	nIterations          100 \
	history              15 \
	knormThreshold       0 \
	energyDiffThreshold  0 \
	nEnergyDiff          2 \
	alphaTstart          1 \
	alphaTmin            1e-10 \
	updateTestStepSize   yes \
	alphaTreduceFactor   0.1 \
	alphaTincreaseFactor 3 \
	nAlphaAdjustMax      3 \
	wolfeEnergy          0.0001 \
	wolfeGradient        0.9 \
	fdTest               no
fluid-solvent H2O 55.338 ScalarEOS \
	epsBulk 78.4 \
	pMol 0.92466 \
	epsInf 1.77 \
	Pvap 1.06736e-10 \
	sigmaBulk 4.62e-05 \
	Rvdw 2.61727 \
	Res 1.42 \
	tauNuc 343133 \
	poleEl 15 7 1
forces-output-coords Positions
ion Li   0.000000000000000   0.000000000000000   0.000000000000000 0
ion-species SG15/$ID_ONCV_PBE.upf
ion-width 0
ionic-minimize  \
	dirUpdateScheme      L-BFGS \
	linminMethod         DirUpdateRecommended \
	nIterations          0 \
	history              15 \
	knormThreshold       0.0001 \
	energyDiffThreshold  1e-06 \
	nEnergyDiff          2 \
	alphaTstart          1 \
	alphaTmin            1e-10 \
	updateTestStepSize   yes \
	alphaTreduceFactor   0.1 \
	alphaTincreaseFactor 3 \
	nAlphaAdjustMax      3 \
	wolfeEnergy          0.0001 \
	wolfeGradient        0.9 \
	fdTest               no
kpoint   0.000000000000   0.000000000000   0.000000000000  1.00000000000000
kpoint-folding 12 12 1 
latt-move-scale 1 1 1
latt-scale 2 2 1 
lattice  \
	   4.727486978767153   -2.363743489383575    0.000000000000000  \
	  -0.000000000000000    4.094123819672498    0.000000000000000  \
	   0.000000000000000    0.000000000000000   40.000000000000000 
lattice-minimize  \
	dirUpdateScheme      L-BFGS \
	linminMethod         DirUpdateRecommended \
	nIterations          0 \
	history              15 \
	knormThreshold       0 \
	energyDiffThreshold  1e-06 \
	nEnergyDiff          2 \
	alphaTstart          1 \
	alphaTmin            1e-10 \
	updateTestStepSize   yes \
	alphaTreduceFactor   0.1 \
	alphaTincreaseFactor 3 \
	nAlphaAdjustMax      3 \
	wolfeEnergy          0.0001 \
	wolfeGradient        0.9 \
	fdTest               no
lcao-params -1 1e-06 1e-05
pcm-variant GLSSA13
spintype z-spin
subspace-rotation-factor 1 yes
symmetries automatic
symmetry-threshold 0.0001



---------- Setting up symmetries ----------

Found 24 point-group symmetries of the bravais lattice
Found 24 space-group symmetries with basis
Applied RMS atom displacement 0 bohrs to make symmetries exact.

---------- Initializing the Grid ----------
R = 
[      9.45497     -4.72749            0  ]
[            0      8.18825            0  ]
[            0            0           40  ]
unit cell volume = 3096.79
G =
[   0.664538   0.383671         -0  ]
[          0   0.767342         -0  ]
[         -0         -0    0.15708  ]
Minimum fftbox size, Smin = [  40  40  164  ]
Chosen fftbox size, S = [  40  40  168  ]

---------- Exchange Correlation functional ----------
Initalized PBE GGA exchange.
Initalized PBE GGA correlation.

---------- Setting up pseudopotentials ----------
Width of ionic core gaussian charges (only for fluid interactions / plotting) set to 0

Reading pseudopotential file '/home/gridsan/aligho/DFT/build-Nov24/pseudopotentials/SG15/Li_ONCV_PBE.upf':
  'Li' pseudopotential, 'PBE' functional
  Generated using ONCVPSP code by D. R. Hamann
  Author: Martin Schlipf and Francois Gygi  Date: 150915.
  3 valence electrons, 2 orbitals, 4 projectors, 1328 radial grid points, with lMax = 1
  Transforming local potential to a uniform radial grid of dG=0.02 with 1489 points.
  Transforming nonlocal projectors to a uniform radial grid of dG=0.02 with 432 points.
    1S    l: 0   occupation:  2.0   eigenvalue: -1.905623
    2S    l: 0   occupation:  1.0   eigenvalue: -0.105624
  Transforming atomic orbitals to a uniform radial grid of dG=0.02 with 432 points.
  WARNING: large normalization error in atomic orbital 1s (integral: 0.000000).
  Core radius for overlap checks: 1.63 bohrs.
  Reading pulay file /home/gridsan/aligho/DFT/build-Nov24/pseudopotentials/SG15/Li_ONCV_PBE.pulay ... using dE_dnG = -1.230239e-02 computed for Ecut = 20.

Initialized 1 species with 1 total atoms.

Folded 1 k-points by 12x12x1 to 144 k-points.

---------- Setting up k-points, bands, fillings ----------
Reduced to 19 k-points under symmetry. 
Computing the number of bands and number of electrons
Calculating initial fillings.
nElectrons:   3.000000   nBands: 3   nStates: 38

----- Setting up reduced wavefunction bases (one per k-point) -----
average nbasis = 13230.521 , ideal nbasis = 13229.709

---------- Setting up coulomb interaction ----------
Initialized slab truncation along lattice direction 001

---------- Setting up 2D ewald sum ----------
Optimum gaussian width for ewald sums = 5.249020 bohr.
Real space sums over 289 unit cells with max indices [  8  8  0  ]
Reciprocal space sums over 81 terms with max indices [  4  4  0  ]

---------- Allocating electronic variables ----------
Initializing wave functions:  linear combination of atomic orbitals
Note: number of bands (3) exceeds available atomic orbitals (2)
Li pseudo-atom occupations:   s ( 2 1 )
	FillingsUpdate:  mu: +0.328831109  nElectrons: 3.000000  magneticMoment: [ Abs: 0.72000  Tot: -0.72000 ]
LCAOMinimize: Iter:   0  F: -1.1789242433744396  |grad|_K:  6.332e-05  alpha:  1.000e+00
LCAOMinimize: 	Wrong curvature in test step, increasing alphaT to 3.000000e+00.
	FillingsUpdate:  mu: +0.329066842  nElectrons: 3.000000  magneticMoment: [ Abs: 0.72000  Tot: -0.72000 ]
LCAOMinimize: Iter:   1  F: -1.1789519306820466  |grad|_K:  3.099e-06  alpha: -2.605e-02  linmin: -7.067e-02  cgtest:  9.074e-01  t[s]:      3.82
LCAOMinimize: Encountered beta<0, resetting CG.
[d-6-10-3:04233] 18 more processes have sent help message help-mpi-common-cuda.txt / dlopen failed
[d-6-10-3:04233] Set MCA parameter "orte_base_help_aggregate" to 0 to see all help / error messages
[d-6-10-3:04233] 18 more processes have sent help message help-mpi-btl-openib-cpc-base.txt / no cpcs for port
	FillingsUpdate:  mu: +0.329066805  nElectrons: 3.000000  magneticMoment: [ Abs: 0.72000  Tot: -0.72000 ]
LCAOMinimize: Iter:   2  F: -1.1789519324305830  |grad|_K:  6.566e-08  alpha:  1.065e+00  linmin: -1.124e-04  cgtest:  1.152e-03  t[s]:      4.91
	FillingsUpdate:  mu: +0.329066805  nElectrons: 3.000000  magneticMoment: [ Abs: 0.72000  Tot: -0.72000 ]
LCAOMinimize: Iter:   3  F: -1.1789519324313882  |grad|_K:  1.189e-08  alpha:  8.703e-01  linmin: -4.086e-02  cgtest:  9.827e-01  t[s]:      5.92
LCAOMinimize: Encountered beta<0, resetting CG.
LCAOMinimize: Converged (|Delta F|<1.000000e-06 for 2 iters).


---- Citations for features of the code used in this run ----

   Software package:
      R. Sundararaman, K. Letchworth-Weaver, K.A. Schwarz, D. Gunceler, Y. Ozhabes and T.A. Arias, 'JDFTx: software for joint density-functional theory', SoftwareX 6, 278 (2017)

   gga-PBE exchange-correlation functional:
      J.P. Perdew, K. Burke and M. Ernzerhof, Phys. Rev. Lett. 77, 3865 (1996)

   Pseudopotentials:
      M Schlipf and F Gygi, Comput. Phys. Commun. 196, 36 (2015)

   Truncated Coulomb potentials:
      R. Sundararaman and T.A. Arias, Phys. Rev. B 87, 165122 (2013)

This list may not be complete. Please suggest additional citations or
report any other bugs at https://github.com/shankar1729/jdftx/issues

Initialization completed successfully at t[s]:      5.98


-------- Electronic minimization -----------
Will mix electronic density at each iteration.
	FillingsUpdate:  mu: +0.329066805  nElectrons: 3.000000  magneticMoment: [ Abs: 0.72000  Tot: -0.72000 ]
	FillingsUpdate:  mu: -0.972692419  nElectrons: 3.000000  magneticMoment: [ Abs: 0.72000  Tot: -0.72000 ]
SCF: Cycle:  0   F: -6.842130167849941   dF: -5.663e+00   |Residual|: 1.175e+00   |deigs|: 4.172e+00  t[s]:      7.67
	FillingsUpdate:  mu: -0.853144049  nElectrons: 3.000000  magneticMoment: [ Abs: 1.09790  Tot: -0.72000 ]
SCF: Cycle:  1   F: -6.932881530550013   dF: -9.075e-02   |Residual|: 7.765e-01   |deigs|: 2.373e-01  t[s]:      8.99
	FillingsUpdate:  mu: -0.658137797  nElectrons: 3.000000  magneticMoment: [ Abs: 1.41757  Tot: -0.72000 ]
SCF: Cycle:  2   F: -7.045129446956835   dF: -1.122e-01   |Residual|: 4.187e-01   |deigs|: 7.718e-01  t[s]:     10.32
	FillingsUpdate:  mu: -0.669565666  nElectrons: 3.000000  magneticMoment: [ Abs: 1.16894  Tot: -0.72000 ]
SCF: Cycle:  3   F: -7.052500924728356   dF: -7.371e-03   |Residual|: 1.896e-01   |deigs|: 1.307e-01  t[s]:     11.72
	FillingsUpdate:  mu: -0.616884606  nElectrons: 3.000000  magneticMoment: [ Abs: 0.91704  Tot: -0.72000 ]
SCF: Cycle:  4   F: -7.052547065616048   dF: -4.614e-05   |Residual|: 4.084e-02   |deigs|: 3.862e-02  t[s]:     13.08
	FillingsUpdate:  mu: -0.593140214  nElectrons: 3.000000  magneticMoment: [ Abs: 0.88375  Tot: -0.72000 ]
SCF: Cycle:  5   F: -7.052967088196188   dF: -4.200e-04   |Residual|: 7.047e-02   |deigs|: 1.837e-02  t[s]:     14.51
	FillingsUpdate:  mu: -0.458615576  nElectrons: 3.000000  magneticMoment: [ Abs: 1.00567  Tot: -0.72000 ]
SCF: Cycle:  6   F: -7.056884755484649   dF: -3.918e-03   |Residual|: 9.558e-02   |deigs|: 1.483e-01  t[s]:     15.95
	FillingsUpdate:  mu: -0.441066726  nElectrons: 3.000000  magneticMoment: [ Abs: 0.93489  Tot: -0.72000 ]
SCF: Cycle:  7   F: -7.057503174126490   dF: -6.184e-04   |Residual|: 3.568e-02   |deigs|: 4.437e-02  t[s]:     17.38
	FillingsUpdate:  mu: -0.401209908  nElectrons: 3.000000  magneticMoment: [ Abs: 0.89619  Tot: -0.72000 ]
SCF: Cycle:  8   F: -7.059494284226714   dF: -1.991e-03   |Residual|: 4.426e-02   |deigs|: 4.210e-02  t[s]:     18.90
	FillingsUpdate:  mu: -0.361198016  nElectrons: 3.000000  magneticMoment: [ Abs: 0.85136  Tot: -0.72000 ]
SCF: Cycle:  9   F: -7.061278602088391   dF: -1.784e-03   |Residual|: 2.917e-02   |deigs|: 3.357e-02  t[s]:     20.46
	FillingsUpdate:  mu: -0.330827785  nElectrons: 3.000000  magneticMoment: [ Abs: 0.83546  Tot: -0.72000 ]
SCF: Cycle: 10   F: -7.062167062011524   dF: -8.885e-04   |Residual|: 2.658e-02   |deigs|: 2.467e-02  t[s]:     22.04
	FillingsUpdate:  mu: -0.289753666  nElectrons: 3.000000  magneticMoment: [ Abs: 0.89053  Tot: -0.72000 ]
SCF: Cycle: 11   F: -7.062584905838539   dF: -4.178e-04   |Residual|: 1.894e-02   |deigs|: 4.499e-02  t[s]:     23.57
	FillingsUpdate:  mu: -0.247727894  nElectrons: 3.000000  magneticMoment: [ Abs: 0.90634  Tot: -0.72000 ]
SCF: Cycle: 12   F: -7.062950348858900   dF: -3.654e-04   |Residual|: 1.299e-02   |deigs|: 4.555e-02  t[s]:     25.08
	FillingsUpdate:  mu: -0.208585320  nElectrons: 3.000000  magneticMoment: [ Abs: 0.88665  Tot: -0.72000 ]
SCF: Cycle: 13   F: -7.063239042849145   dF: -2.887e-04   |Residual|: 1.194e-02   |deigs|: 3.990e-02  t[s]:     26.61
	FillingsUpdate:  mu: -0.170144824  nElectrons: 3.000000  magneticMoment: [ Abs: 0.84079  Tot: -0.72000 ]
SCF: Cycle: 14   F: -7.063318435822691   dF: -7.939e-05   |Residual|: 9.408e-03   |deigs|: 3.868e-02  t[s]:     28.23
	FillingsUpdate:  mu: -0.132104699  nElectrons: 3.000000  magneticMoment: [ Abs: 0.80511  Tot: -0.72000 ]
SCF: Cycle: 15   F: -7.063312025339074   dF: +6.410e-06   |Residual|: 7.044e-03   |deigs|: 3.703e-02  t[s]:     29.74
	FillingsUpdate:  mu: -0.118100868  nElectrons: 3.000000  magneticMoment: [ Abs: 0.78998  Tot: -0.72000 ]
SCF: Cycle: 16   F: -7.063517973754716   dF: -2.059e-04   |Residual|: 5.687e-03   |deigs|: 1.418e-02  t[s]:     31.32
	FillingsUpdate:  mu: -0.110634729  nElectrons: 3.000000  magneticMoment: [ Abs: 0.77012  Tot: -0.72000 ]
SCF: Cycle: 17   F: -7.063724008021705   dF: -2.060e-04   |Residual|: 3.431e-03   |deigs|: 8.300e-03  t[s]:     32.87
	FillingsUpdate:  mu: -0.107414044  nElectrons: 3.000000  magneticMoment: [ Abs: 0.74923  Tot: -0.72000 ]
SCF: Cycle: 18   F: -7.063819665714798   dF: -9.566e-05   |Residual|: 2.188e-03   |deigs|: 3.677e-03  t[s]:     34.39
	FillingsUpdate:  mu: -0.106826750  nElectrons: 3.000000  magneticMoment: [ Abs: 0.73828  Tot: -0.72000 ]
SCF: Cycle: 19   F: -7.063844962187829   dF: -2.530e-05   |Residual|: 1.335e-03   |deigs|: 7.990e-04  t[s]:     35.99
	FillingsUpdate:  mu: -0.107000542  nElectrons: 3.000000  magneticMoment: [ Abs: 0.73204  Tot: -0.72000 ]
SCF: Cycle: 20   F: -7.063855110802036   dF: -1.015e-05   |Residual|: 9.062e-04   |deigs|: 4.954e-04  t[s]:     37.52
	FillingsUpdate:  mu: -0.105929423  nElectrons: 3.000000  magneticMoment: [ Abs: 0.72947  Tot: -0.72000 ]
SCF: Cycle: 21   F: -7.063860275630970   dF: -5.165e-06   |Residual|: 6.561e-04   |deigs|: 1.171e-03  t[s]:     39.03
	FillingsUpdate:  mu: -0.105524759  nElectrons: 3.000000  magneticMoment: [ Abs: 0.72712  Tot: -0.72000 ]
SCF: Cycle: 22   F: -7.063862190116215   dF: -1.914e-06   |Residual|: 7.876e-04   |deigs|: 6.008e-04  t[s]:     40.54
	FillingsUpdate:  mu: -0.105127752  nElectrons: 3.000000  magneticMoment: [ Abs: 0.72636  Tot: -0.72000 ]
SCF: Cycle: 23   F: -7.063866090591993   dF: -3.900e-06   |Residual|: 7.253e-04   |deigs|: 5.199e-04  t[s]:     42.04
	FillingsUpdate:  mu: -0.104611840  nElectrons: 3.000000  magneticMoment: [ Abs: 0.72418  Tot: -0.72000 ]
SCF: Cycle: 24   F: -7.063864264148762   dF: +1.826e-06   |Residual|: 4.421e-04   |deigs|: 9.711e-04  t[s]:     43.59
	FillingsUpdate:  mu: -0.104173685  nElectrons: 3.000000  magneticMoment: [ Abs: 0.72224  Tot: -0.72000 ]
SCF: Cycle: 25   F: -7.063866397197277   dF: -2.133e-06   |Residual|: 4.403e-04   |deigs|: 6.363e-04  t[s]:     45.07
	FillingsUpdate:  mu: -0.104464078  nElectrons: 3.000000  magneticMoment: [ Abs: 0.72133  Tot: -0.72000 ]
SCF: Cycle: 26   F: -7.063867596963929   dF: -1.200e-06   |Residual|: 2.737e-04   |deigs|: 3.457e-04  t[s]:     46.54
	FillingsUpdate:  mu: -0.104701956  nElectrons: 3.000000  magneticMoment: [ Abs: 0.72074  Tot: -0.72000 ]
SCF: Cycle: 27   F: -7.063867756358285   dF: -1.594e-07   |Residual|: 1.510e-04   |deigs|: 3.030e-04  t[s]:     48.01
	FillingsUpdate:  mu: -0.104812901  nElectrons: 3.000000  magneticMoment: [ Abs: 0.72038  Tot: -0.72000 ]
SCF: Cycle: 28   F: -7.063867948555078   dF: -1.922e-07   |Residual|: 1.042e-04   |deigs|: 1.453e-04  t[s]:     49.48
	FillingsUpdate:  mu: -0.104799453  nElectrons: 3.000000  magneticMoment: [ Abs: 0.72008  Tot: -0.72000 ]
SCF: Cycle: 29   F: -7.063868100000525   dF: -1.514e-07   |Residual|: 7.922e-05   |deigs|: 2.089e-05  t[s]:     50.99
	FillingsUpdate:  mu: -0.104808250  nElectrons: 3.000000  magneticMoment: [ Abs: 0.72004  Tot: -0.72000 ]
SCF: Cycle: 30   F: -7.063868155361178   dF: -5.536e-08   |Residual|: 3.974e-05   |deigs|: 4.301e-05  t[s]:     52.46
	FillingsUpdate:  mu: -0.104779559  nElectrons: 3.000000  magneticMoment: [ Abs: 0.72005  Tot: -0.72000 ]
SCF: Cycle: 31   F: -7.063868165299505   dF: -9.938e-09   |Residual|: 2.458e-05   |deigs|: 2.746e-05  t[s]:     53.98
	FillingsUpdate:  mu: -0.104733381  nElectrons: 3.000000  magneticMoment: [ Abs: 0.72004  Tot: -0.72000 ]
SCF: Cycle: 32   F: -7.063868167074149   dF: -1.775e-09   |Residual|: 1.772e-05   |deigs|: 4.647e-05  t[s]:     55.48
SCF: Converged (|Delta E|<1.000000e-08 for 2 iters).


# Ionic positions in lattice coordinates:
ion Li   0.000000000000000   0.000000000000000   0.000000000000000 0

# Forces in Lattice coordinates:
force Li   0.000000000000000   0.000000000000000   0.000000000000000 0

# Energy components:
   Eewald =       -2.0053362333702967
       EH =        1.5404127324863657
     Eloc =       -6.2035053059828229
      Enl =       -3.5905285497829897
   Epulay =        0.0000032255226020
      Exc =       -1.5432173841768086
       KE =        4.7383036563551393
-------------------------------------
     Etot =       -7.0638678589488091
       TS =        0.0000003081253407
-------------------------------------
        F =       -7.0638681670741494

IonicMinimize: Iter:   0  F: -7.063868167074149  |grad|_K:  0.000e+00  t[s]:     55.55
IonicMinimize: Converged (|grad|_K<1.000000e-04).

#--- Lowdin population analysis ---
# oxidation-state Li +2.217
# magnetic-moments Li -0.512

End date and time: Sat Feb  5 22:46:54 2022  (Duration: 0-0:00:55.56)
Done!
scale=3
magnetization=-0.72
--------------------------------------------------------------------------
The library attempted to open the following supporting CUDA libraries,
but each of them failed.  CUDA-aware support is disabled.
libcuda.so.1: cannot open shared object file: No such file or directory
libcuda.dylib: cannot open shared object file: No such file or directory
/usr/lib64/libcuda.so.1: cannot open shared object file: No such file or directory
/usr/lib64/libcuda.dylib: cannot open shared object file: No such file or directory
If you are not interested in CUDA-aware support, then run with
--mca opal_warn_on_missing_libcuda 0 to suppress this message.  If you are interested
in CUDA-aware support, then try setting LD_LIBRARY_PATH to the location
of libcuda.so.1 to get passed this issue.
--------------------------------------------------------------------------
--------------------------------------------------------------------------
No OpenFabrics connection schemes reported that they were able to be
used on a specific port.  As such, the openib BTL (OpenFabrics
support) will be disabled for this port.

  Local host:           d-6-10-3
  Local device:         mlx5_1
  Local port:           1
  CPCs attempted:       rdmacm, udcm
--------------------------------------------------------------------------

*************** JDFTx 1.6.0 (git hash 42ebbcc2) ***************

Start date and time: Sat Feb  5 22:46:55 2022
Executable jdftx with command-line: -i Alkali.in
Running on hosts (process indices):  d-6-10-3 (0-18)
Divided in process groups (process indices):  0 (0)  1 (1)  2 (2)  3 (3)  4 (4)  5 (5)  6 (6)  7 (7)  8 (8)  9 (9)  10 (10)  11 (11)  12 (12)  13 (13)  14 (14)  15 (15)  16 (16)  17 (17)  18 (18)
Resource initialization completed at t[s]:      0.00
Run totals: 19 processes, 48 threads, 0 GPUs


Input parsed successfully to the following command list (including defaults):

basis kpoint-dependent
coords-type Lattice
core-overlap-check vector
coulomb-interaction Slab 001
davidson-band-ratio 1.1
dump End None
dump-name $INPUT.$VAR
elec-cutoff 20
elec-eigen-algo Davidson
elec-ex-corr gga-PBE
elec-initial-magnetization -0.720000 yes
elec-smearing Fermi 1e-05
electronic-minimize  \
	dirUpdateScheme      FletcherReeves \
	linminMethod         DirUpdateRecommended \
	nIterations          100 \
	history              15 \
	knormThreshold       0 \
	energyDiffThreshold  1e-08 \
	nEnergyDiff          2 \
	alphaTstart          1 \
	alphaTmin            1e-10 \
	updateTestStepSize   yes \
	alphaTreduceFactor   0.1 \
	alphaTincreaseFactor 3 \
	nAlphaAdjustMax      3 \
	wolfeEnergy          0.0001 \
	wolfeGradient        0.9 \
	fdTest               no
electronic-scf  \
	nIterations	10000 \
	energyDiffThreshold	1e-08 \
	residualThreshold	1e-07 \
	mixFraction	0.5 \
	qMetric	0.8 \
	history	10 \
	nEigSteps	2 \
	eigDiffThreshold	1e-08 \
	mixedVariable	Density \
	qKerker	0.8 \
	qKappa	-1 \
	verbose	no \
	mixFractionMag	1.5
exchange-regularization WignerSeitzTruncated
fluid None
fluid-ex-corr (null) lda-PZ
fluid-gummel-loop 10 1.000000e-05
fluid-minimize  \
	dirUpdateScheme      PolakRibiere \
	linminMethod         DirUpdateRecommended \
	nIterations          100 \
	history              15 \
	knormThreshold       0 \
	energyDiffThreshold  0 \
	nEnergyDiff          2 \
	alphaTstart          1 \
	alphaTmin            1e-10 \
	updateTestStepSize   yes \
	alphaTreduceFactor   0.1 \
	alphaTincreaseFactor 3 \
	nAlphaAdjustMax      3 \
	wolfeEnergy          0.0001 \
	wolfeGradient        0.9 \
	fdTest               no
fluid-solvent H2O 55.338 ScalarEOS \
	epsBulk 78.4 \
	pMol 0.92466 \
	epsInf 1.77 \
	Pvap 1.06736e-10 \
	sigmaBulk 4.62e-05 \
	Rvdw 2.61727 \
	Res 1.42 \
	tauNuc 343133 \
	poleEl 15 7 1
forces-output-coords Positions
ion Li   0.000000000000000   0.000000000000000   0.000000000000000 0
ion-species SG15/$ID_ONCV_PBE.upf
ion-width 0
ionic-minimize  \
	dirUpdateScheme      L-BFGS \
	linminMethod         DirUpdateRecommended \
	nIterations          0 \
	history              15 \
	knormThreshold       0.0001 \
	energyDiffThreshold  1e-06 \
	nEnergyDiff          2 \
	alphaTstart          1 \
	alphaTmin            1e-10 \
	updateTestStepSize   yes \
	alphaTreduceFactor   0.1 \
	alphaTincreaseFactor 3 \
	nAlphaAdjustMax      3 \
	wolfeEnergy          0.0001 \
	wolfeGradient        0.9 \
	fdTest               no
kpoint   0.000000000000   0.000000000000   0.000000000000  1.00000000000000
kpoint-folding 12 12 1 
latt-move-scale 1 1 1
latt-scale 3 3 1 
lattice  \
	   4.727486978767153   -2.363743489383575    0.000000000000000  \
	  -0.000000000000000    4.094123819672498    0.000000000000000  \
	   0.000000000000000    0.000000000000000   40.000000000000000 
lattice-minimize  \
	dirUpdateScheme      L-BFGS \
	linminMethod         DirUpdateRecommended \
	nIterations          0 \
	history              15 \
	knormThreshold       0 \
	energyDiffThreshold  1e-06 \
	nEnergyDiff          2 \
	alphaTstart          1 \
	alphaTmin            1e-10 \
	updateTestStepSize   yes \
	alphaTreduceFactor   0.1 \
	alphaTincreaseFactor 3 \
	nAlphaAdjustMax      3 \
	wolfeEnergy          0.0001 \
	wolfeGradient        0.9 \
	fdTest               no
lcao-params -1 1e-06 1e-05
pcm-variant GLSSA13
spintype z-spin
subspace-rotation-factor 1 yes
symmetries automatic
symmetry-threshold 0.0001



---------- Setting up symmetries ----------

Found 24 point-group symmetries of the bravais lattice
Found 24 space-group symmetries with basis
Applied RMS atom displacement 0 bohrs to make symmetries exact.

---------- Initializing the Grid ----------
R = 
[      14.1825     -7.09123            0  ]
[            0      12.2824            0  ]
[            0            0           40  ]
unit cell volume = 6967.77
G =
[   0.443025   0.255781         -0  ]
[          0   0.511561         -0  ]
[         -0         -0    0.15708  ]
Minimum fftbox size, Smin = [  60  60  164  ]
Chosen fftbox size, S = [  60  60  168  ]

---------- Exchange Correlation functional ----------
Initalized PBE GGA exchange.
Initalized PBE GGA correlation.

---------- Setting up pseudopotentials ----------
Width of ionic core gaussian charges (only for fluid interactions / plotting) set to 0

Reading pseudopotential file '/home/gridsan/aligho/DFT/build-Nov24/pseudopotentials/SG15/Li_ONCV_PBE.upf':
  'Li' pseudopotential, 'PBE' functional
  Generated using ONCVPSP code by D. R. Hamann
  Author: Martin Schlipf and Francois Gygi  Date: 150915.
  3 valence electrons, 2 orbitals, 4 projectors, 1328 radial grid points, with lMax = 1
  Transforming local potential to a uniform radial grid of dG=0.02 with 1489 points.
  Transforming nonlocal projectors to a uniform radial grid of dG=0.02 with 432 points.
    1S    l: 0   occupation:  2.0   eigenvalue: -1.905623
    2S    l: 0   occupation:  1.0   eigenvalue: -0.105624
  Transforming atomic orbitals to a uniform radial grid of dG=0.02 with 432 points.
  WARNING: large normalization error in atomic orbital 1s (integral: 0.000000).
  Core radius for overlap checks: 1.63 bohrs.
  Reading pulay file /home/gridsan/aligho/DFT/build-Nov24/pseudopotentials/SG15/Li_ONCV_PBE.pulay ... using dE_dnG = -1.230239e-02 computed for Ecut = 20.

Initialized 1 species with 1 total atoms.

Folded 1 k-points by 12x12x1 to 144 k-points.

---------- Setting up k-points, bands, fillings ----------
Reduced to 19 k-points under symmetry. 
Computing the number of bands and number of electrons
Calculating initial fillings.
nElectrons:   3.000000   nBands: 3   nStates: 38

----- Setting up reduced wavefunction bases (one per k-point) -----
average nbasis = 29766.104 , ideal nbasis = 29766.845

---------- Setting up coulomb interaction ----------
Initialized slab truncation along lattice direction 001

---------- Setting up 2D ewald sum ----------
Optimum gaussian width for ewald sums = 7.873530 bohr.
Real space sums over 289 unit cells with max indices [  8  8  0  ]
Reciprocal space sums over 81 terms with max indices [  4  4  0  ]

---------- Allocating electronic variables ----------
Initializing wave functions:  linear combination of atomic orbitals
Note: number of bands (3) exceeds available atomic orbitals (2)
Li pseudo-atom occupations:   s ( 2 1 )
[d-6-10-3:63429] 18 more processes have sent help message help-mpi-common-cuda.txt / dlopen failed
[d-6-10-3:63429] Set MCA parameter "orte_base_help_aggregate" to 0 to see all help / error messages
[d-6-10-3:63429] 18 more processes have sent help message help-mpi-btl-openib-cpc-base.txt / no cpcs for port
	FillingsUpdate:  mu: +0.350113938  nElectrons: 3.000000  magneticMoment: [ Abs: 0.72000  Tot: -0.72000 ]
LCAOMinimize: Iter:   0  F: -1.2816542293557864  |grad|_K:  4.494e-05  alpha:  1.000e+00
	FillingsUpdate:  mu: +0.350113336  nElectrons: 3.000000  magneticMoment: [ Abs: 0.72000  Tot: -0.72000 ]
LCAOMinimize: Iter:   1  F: -1.2816545950408034  |grad|_K:  3.616e-07  alpha:  1.059e+00  linmin: -1.435e-03  cgtest:  8.788e-03  t[s]:      7.60
LCAOMinimize: Encountered beta<0, resetting CG.
	FillingsUpdate:  mu: +0.350113337  nElectrons: 3.000000  magneticMoment: [ Abs: 0.72000  Tot: -0.72000 ]
LCAOMinimize: Iter:   2  F: -1.2816545950634517  |grad|_K:  2.459e-08  alpha:  9.678e-01  linmin: -2.389e-02  cgtest:  8.241e-01  t[s]:      9.63
LCAOMinimize: Encountered beta<0, resetting CG.
LCAOMinimize: Converged (|Delta F|<1.000000e-06 for 2 iters).


---- Citations for features of the code used in this run ----

   Software package:
      R. Sundararaman, K. Letchworth-Weaver, K.A. Schwarz, D. Gunceler, Y. Ozhabes and T.A. Arias, 'JDFTx: software for joint density-functional theory', SoftwareX 6, 278 (2017)

   gga-PBE exchange-correlation functional:
      J.P. Perdew, K. Burke and M. Ernzerhof, Phys. Rev. Lett. 77, 3865 (1996)

   Pseudopotentials:
      M Schlipf and F Gygi, Comput. Phys. Commun. 196, 36 (2015)

   Truncated Coulomb potentials:
      R. Sundararaman and T.A. Arias, Phys. Rev. B 87, 165122 (2013)

This list may not be complete. Please suggest additional citations or
report any other bugs at https://github.com/shankar1729/jdftx/issues

Initialization completed successfully at t[s]:      9.72


-------- Electronic minimization -----------
Will mix electronic density at each iteration.
	FillingsUpdate:  mu: +0.350113337  nElectrons: 3.000000  magneticMoment: [ Abs: 0.72000  Tot: -0.72000 ]
	FillingsUpdate:  mu: -0.695970602  nElectrons: 3.000000  magneticMoment: [ Abs: 0.72000  Tot: -0.72000 ]
SCF: Cycle:  0   F: -6.883968133074435   dF: -5.602e+00   |Residual|: 1.224e+00   |deigs|: 4.156e+00  t[s]:     13.09
	FillingsUpdate:  mu: -0.570160186  nElectrons: 3.000000  magneticMoment: [ Abs: 1.14177  Tot: -0.72000 ]
SCF: Cycle:  1   F: -6.918193918213870   dF: -3.423e-02   |Residual|: 7.648e-01   |deigs|: 2.733e-01  t[s]:     15.85
	FillingsUpdate:  mu: -0.373662654  nElectrons: 3.000000  magneticMoment: [ Abs: 1.57209  Tot: -0.72000 ]
SCF: Cycle:  2   F: -7.038701563114556   dF: -1.205e-01   |Residual|: 3.312e-01   |deigs|: 7.078e-01  t[s]:     18.60
	FillingsUpdate:  mu: -0.381104355  nElectrons: 3.000000  magneticMoment: [ Abs: 1.39889  Tot: -0.72000 ]
SCF: Cycle:  3   F: -7.040297846194505   dF: -1.596e-03   |Residual|: 1.686e-01   |deigs|: 8.783e-02  t[s]:     21.41
	FillingsUpdate:  mu: -0.329948883  nElectrons: 3.000000  magneticMoment: [ Abs: 1.16227  Tot: -0.72000 ]
SCF: Cycle:  4   F: -7.044251720001449   dF: -3.954e-03   |Residual|: 3.853e-02   |deigs|: 4.373e-02  t[s]:     24.27
	FillingsUpdate:  mu: -0.310235009  nElectrons: 3.000000  magneticMoment: [ Abs: 1.07848  Tot: -0.72000 ]
SCF: Cycle:  5   F: -7.044523370322350   dF: -2.717e-04   |Residual|: 7.320e-02   |deigs|: 1.872e-02  t[s]:     27.21
	FillingsUpdate:  mu: -0.278020408  nElectrons: 3.000000  magneticMoment: [ Abs: 0.88828  Tot: -0.72000 ]
SCF: Cycle:  6   F: -7.046345500883341   dF: -1.822e-03   |Residual|: 3.637e-02   |deigs|: 6.048e-02  t[s]:     30.21
	FillingsUpdate:  mu: -0.261088454  nElectrons: 3.000000  magneticMoment: [ Abs: 0.85806  Tot: -0.72000 ]
SCF: Cycle:  7   F: -7.048074298930638   dF: -1.729e-03   |Residual|: 3.995e-02   |deigs|: 4.034e-02  t[s]:     33.31
	FillingsUpdate:  mu: -0.256514845  nElectrons: 3.000000  magneticMoment: [ Abs: 0.82471  Tot: -0.72000 ]
SCF: Cycle:  8   F: -7.048505343633135   dF: -4.310e-04   |Residual|: 4.782e-02   |deigs|: 4.974e-03  t[s]:     36.46
	FillingsUpdate:  mu: -0.234006492  nElectrons: 3.000000  magneticMoment: [ Abs: 0.78949  Tot: -0.72000 ]
SCF: Cycle:  9   F: -7.049571780966364   dF: -1.066e-03   |Residual|: 1.637e-02   |deigs|: 1.917e-02  t[s]:     39.67
	FillingsUpdate:  mu: -0.206446341  nElectrons: 3.000000  magneticMoment: [ Abs: 0.85650  Tot: -0.72000 ]
SCF: Cycle: 10   F: -7.049950657066167   dF: -3.789e-04   |Residual|: 6.293e-02   |deigs|: 2.288e-02  t[s]:     42.99
	FillingsUpdate:  mu: -0.190347192  nElectrons: 3.000000  magneticMoment: [ Abs: 0.89810  Tot: -0.72000 ]
SCF: Cycle: 11   F: -7.050233473292448   dF: -2.828e-04   |Residual|: 1.338e-02   |deigs|: 2.559e-02  t[s]:     46.26
	FillingsUpdate:  mu: -0.173720784  nElectrons: 3.000000  magneticMoment: [ Abs: 0.91289  Tot: -0.72000 ]
SCF: Cycle: 12   F: -7.050379868794932   dF: -1.464e-04   |Residual|: 1.010e-02   |deigs|: 1.765e-02  t[s]:     49.51
	FillingsUpdate:  mu: -0.149336689  nElectrons: 3.000000  magneticMoment: [ Abs: 0.90436  Tot: -0.72000 ]
SCF: Cycle: 13   F: -7.050241686967540   dF: +1.382e-04   |Residual|: 7.928e-03   |deigs|: 2.557e-02  t[s]:     52.73
	FillingsUpdate:  mu: -0.136519311  nElectrons: 3.000000  magneticMoment: [ Abs: 0.87108  Tot: -0.72000 ]
SCF: Cycle: 14   F: -7.050263081671693   dF: -2.139e-05   |Residual|: 7.655e-03   |deigs|: 1.357e-02  t[s]:     56.01
	FillingsUpdate:  mu: -0.123342419  nElectrons: 3.000000  magneticMoment: [ Abs: 0.84350  Tot: -0.72000 ]
SCF: Cycle: 15   F: -7.050399808006961   dF: -1.367e-04   |Residual|: 6.653e-03   |deigs|: 1.386e-02  t[s]:     59.28
	FillingsUpdate:  mu: -0.112860368  nElectrons: 3.000000  magneticMoment: [ Abs: 0.80299  Tot: -0.72000 ]
SCF: Cycle: 16   F: -7.050662271312198   dF: -2.625e-04   |Residual|: 4.410e-03   |deigs|: 1.115e-02  t[s]:     62.54
	FillingsUpdate:  mu: -0.104914551  nElectrons: 3.000000  magneticMoment: [ Abs: 0.76845  Tot: -0.72000 ]
SCF: Cycle: 17   F: -7.050884764341149   dF: -2.225e-04   |Residual|: 3.001e-03   |deigs|: 9.470e-03  t[s]:     65.76
	FillingsUpdate:  mu: -0.103637944  nElectrons: 3.000000  magneticMoment: [ Abs: 0.75408  Tot: -0.72000 ]
SCF: Cycle: 18   F: -7.050945026220197   dF: -6.026e-05   |Residual|: 2.073e-03   |deigs|: 1.721e-03  t[s]:     69.03
	FillingsUpdate:  mu: -0.102871793  nElectrons: 3.000000  magneticMoment: [ Abs: 0.74631  Tot: -0.72000 ]
SCF: Cycle: 19   F: -7.050971143129076   dF: -2.612e-05   |Residual|: 1.309e-03   |deigs|: 1.022e-03  t[s]:     72.29
	FillingsUpdate:  mu: -0.102482757  nElectrons: 3.000000  magneticMoment: [ Abs: 0.74242  Tot: -0.72000 ]
SCF: Cycle: 20   F: -7.050989427426996   dF: -1.828e-05   |Residual|: 8.809e-04   |deigs|: 6.207e-04  t[s]:     75.61
	FillingsUpdate:  mu: -0.102355082  nElectrons: 3.000000  magneticMoment: [ Abs: 0.73836  Tot: -0.72000 ]
SCF: Cycle: 21   F: -7.051000916056823   dF: -1.149e-05   |Residual|: 5.048e-04   |deigs|: 2.652e-04  t[s]:     78.87
	FillingsUpdate:  mu: -0.102285703  nElectrons: 3.000000  magneticMoment: [ Abs: 0.73532  Tot: -0.72000 ]
SCF: Cycle: 22   F: -7.051002710229980   dF: -1.794e-06   |Residual|: 3.736e-04   |deigs|: 2.251e-04  t[s]:     82.08
	FillingsUpdate:  mu: -0.102375063  nElectrons: 3.000000  magneticMoment: [ Abs: 0.73049  Tot: -0.72000 ]
SCF: Cycle: 23   F: -7.051003695232599   dF: -9.850e-07   |Residual|: 3.122e-04   |deigs|: 2.875e-04  t[s]:     85.38
	FillingsUpdate:  mu: -0.102627583  nElectrons: 3.000000  magneticMoment: [ Abs: 0.72610  Tot: -0.72000 ]
SCF: Cycle: 24   F: -7.051003661448400   dF: +3.378e-08   |Residual|: 2.614e-04   |deigs|: 2.991e-04  t[s]:     88.63
	FillingsUpdate:  mu: -0.102976108  nElectrons: 3.000000  magneticMoment: [ Abs: 0.72277  Tot: -0.72000 ]
SCF: Cycle: 25   F: -7.051003647792847   dF: +1.366e-08   |Residual|: 1.964e-04   |deigs|: 4.454e-04  t[s]:     91.88
	FillingsUpdate:  mu: -0.103375556  nElectrons: 3.000000  magneticMoment: [ Abs: 0.72074  Tot: -0.72000 ]
SCF: Cycle: 26   F: -7.051004625476033   dF: -9.777e-07   |Residual|: 1.270e-04   |deigs|: 4.609e-04  t[s]:     95.15
	FillingsUpdate:  mu: -0.103502961  nElectrons: 3.000000  magneticMoment: [ Abs: 0.72051  Tot: -0.72000 ]
SCF: Cycle: 27   F: -7.051005120326868   dF: -4.949e-07   |Residual|: 7.879e-05   |deigs|: 1.808e-04  t[s]:     98.39
	FillingsUpdate:  mu: -0.103514786  nElectrons: 3.000000  magneticMoment: [ Abs: 0.72032  Tot: -0.72000 ]
SCF: Cycle: 28   F: -7.051005389048518   dF: -2.687e-07   |Residual|: 4.535e-05   |deigs|: 9.626e-05  t[s]:    101.62
	FillingsUpdate:  mu: -0.103509236  nElectrons: 3.000000  magneticMoment: [ Abs: 0.72028  Tot: -0.72000 ]
SCF: Cycle: 29   F: -7.051005446365189   dF: -5.732e-08   |Residual|: 3.189e-05   |deigs|: 7.699e-05  t[s]:    104.85
	FillingsUpdate:  mu: -0.103470038  nElectrons: 3.000000  magneticMoment: [ Abs: 0.72013  Tot: -0.72000 ]
SCF: Cycle: 30   F: -7.051005491720328   dF: -4.536e-08   |Residual|: 1.838e-05   |deigs|: 7.393e-05  t[s]:    108.17
	FillingsUpdate:  mu: -0.103452924  nElectrons: 3.000000  magneticMoment: [ Abs: 0.72008  Tot: -0.72000 ]
SCF: Cycle: 31   F: -7.051005517964029   dF: -2.624e-08   |Residual|: 1.017e-05   |deigs|: 5.298e-05  t[s]:    111.43
	FillingsUpdate:  mu: -0.103447623  nElectrons: 3.000000  magneticMoment: [ Abs: 0.72004  Tot: -0.72000 ]
SCF: Cycle: 32   F: -7.051005519495789   dF: -1.532e-09   |Residual|: 7.359e-06   |deigs|: 3.214e-05  t[s]:    114.74
	FillingsUpdate:  mu: -0.103440996  nElectrons: 3.000000  magneticMoment: [ Abs: 0.72001  Tot: -0.72000 ]
SCF: Cycle: 33   F: -7.051005521089157   dF: -1.593e-09   |Residual|: 4.279e-06   |deigs|: 2.274e-05  t[s]:    117.93
SCF: Converged (|Delta E|<1.000000e-08 for 2 iters).


# Ionic positions in lattice coordinates:
ion Li   0.000000000000000   0.000000000000000   0.000000000000000 0

# Forces in Lattice coordinates:
force Li  -0.000000000000000  -0.000000000000000   0.000000000000000 0

# Energy components:
   Eewald =       -1.3368908222468645
       EH =        2.2164211584590090
     Eloc =       -7.5605744992504187
      Enl =       -3.6038730649179298
   Epulay =       -0.0000013080581827
      Exc =       -1.5404729210092452
       KE =        4.7743862497671063
-------------------------------------
     Etot =       -7.0510052072565248
       TS =        0.0000003138326323
-------------------------------------
        F =       -7.0510055210891567

IonicMinimize: Iter:   0  F: -7.051005521089157  |grad|_K:  0.000e+00  t[s]:    118.07
IonicMinimize: Converged (|grad|_K<1.000000e-04).

#--- Lowdin population analysis ---
# oxidation-state Li +2.080
# magnetic-moments Li -0.664

End date and time: Sat Feb  5 22:48:53 2022  (Duration: 0-0:01:58.09)
Done!
scale=4
magnetization=-0.72
--------------------------------------------------------------------------
The library attempted to open the following supporting CUDA libraries,
but each of them failed.  CUDA-aware support is disabled.
libcuda.so.1: cannot open shared object file: No such file or directory
libcuda.dylib: cannot open shared object file: No such file or directory
/usr/lib64/libcuda.so.1: cannot open shared object file: No such file or directory
/usr/lib64/libcuda.dylib: cannot open shared object file: No such file or directory
If you are not interested in CUDA-aware support, then run with
--mca opal_warn_on_missing_libcuda 0 to suppress this message.  If you are interested
in CUDA-aware support, then try setting LD_LIBRARY_PATH to the location
of libcuda.so.1 to get passed this issue.
--------------------------------------------------------------------------
--------------------------------------------------------------------------
No OpenFabrics connection schemes reported that they were able to be
used on a specific port.  As such, the openib BTL (OpenFabrics
support) will be disabled for this port.

  Local host:           d-6-10-3
  Local device:         mlx5_1
  Local port:           1
  CPCs attempted:       rdmacm, udcm
--------------------------------------------------------------------------

*************** JDFTx 1.6.0 (git hash 42ebbcc2) ***************

Start date and time: Sat Feb  5 22:48:54 2022
Executable jdftx with command-line: -i Alkali.in
Running on hosts (process indices):  d-6-10-3 (0-18)
Divided in process groups (process indices):  0 (0)  1 (1)  2 (2)  3 (3)  4 (4)  5 (5)  6 (6)  7 (7)  8 (8)  9 (9)  10 (10)  11 (11)  12 (12)  13 (13)  14 (14)  15 (15)  16 (16)  17 (17)  18 (18)
Resource initialization completed at t[s]:      0.00
Run totals: 19 processes, 48 threads, 0 GPUs


Input parsed successfully to the following command list (including defaults):

basis kpoint-dependent
coords-type Lattice
core-overlap-check vector
coulomb-interaction Slab 001
davidson-band-ratio 1.1
dump End None
dump-name $INPUT.$VAR
elec-cutoff 20
elec-eigen-algo Davidson
elec-ex-corr gga-PBE
elec-initial-magnetization -0.720000 yes
elec-smearing Fermi 1e-05
electronic-minimize  \
	dirUpdateScheme      FletcherReeves \
	linminMethod         DirUpdateRecommended \
	nIterations          100 \
	history              15 \
	knormThreshold       0 \
	energyDiffThreshold  1e-08 \
	nEnergyDiff          2 \
	alphaTstart          1 \
	alphaTmin            1e-10 \
	updateTestStepSize   yes \
	alphaTreduceFactor   0.1 \
	alphaTincreaseFactor 3 \
	nAlphaAdjustMax      3 \
	wolfeEnergy          0.0001 \
	wolfeGradient        0.9 \
	fdTest               no
electronic-scf  \
	nIterations	10000 \
	energyDiffThreshold	1e-08 \
	residualThreshold	1e-07 \
	mixFraction	0.5 \
	qMetric	0.8 \
	history	10 \
	nEigSteps	2 \
	eigDiffThreshold	1e-08 \
	mixedVariable	Density \
	qKerker	0.8 \
	qKappa	-1 \
	verbose	no \
	mixFractionMag	1.5
exchange-regularization WignerSeitzTruncated
fluid None
fluid-ex-corr (null) lda-PZ
fluid-gummel-loop 10 1.000000e-05
fluid-minimize  \
	dirUpdateScheme      PolakRibiere \
	linminMethod         DirUpdateRecommended \
	nIterations          100 \
	history              15 \
	knormThreshold       0 \
	energyDiffThreshold  0 \
	nEnergyDiff          2 \
	alphaTstart          1 \
	alphaTmin            1e-10 \
	updateTestStepSize   yes \
	alphaTreduceFactor   0.1 \
	alphaTincreaseFactor 3 \
	nAlphaAdjustMax      3 \
	wolfeEnergy          0.0001 \
	wolfeGradient        0.9 \
	fdTest               no
fluid-solvent H2O 55.338 ScalarEOS \
	epsBulk 78.4 \
	pMol 0.92466 \
	epsInf 1.77 \
	Pvap 1.06736e-10 \
	sigmaBulk 4.62e-05 \
	Rvdw 2.61727 \
	Res 1.42 \
	tauNuc 343133 \
	poleEl 15 7 1
forces-output-coords Positions
ion Li   0.000000000000000   0.000000000000000   0.000000000000000 0
ion-species SG15/$ID_ONCV_PBE.upf
ion-width 0
ionic-minimize  \
	dirUpdateScheme      L-BFGS \
	linminMethod         DirUpdateRecommended \
	nIterations          0 \
	history              15 \
	knormThreshold       0.0001 \
	energyDiffThreshold  1e-06 \
	nEnergyDiff          2 \
	alphaTstart          1 \
	alphaTmin            1e-10 \
	updateTestStepSize   yes \
	alphaTreduceFactor   0.1 \
	alphaTincreaseFactor 3 \
	nAlphaAdjustMax      3 \
	wolfeEnergy          0.0001 \
	wolfeGradient        0.9 \
	fdTest               no
kpoint   0.000000000000   0.000000000000   0.000000000000  1.00000000000000
kpoint-folding 12 12 1 
latt-move-scale 1 1 1
latt-scale 4 4 1 
lattice  \
	   4.727486978767153   -2.363743489383575    0.000000000000000  \
	  -0.000000000000000    4.094123819672498    0.000000000000000  \
	   0.000000000000000    0.000000000000000   40.000000000000000 
lattice-minimize  \
	dirUpdateScheme      L-BFGS \
	linminMethod         DirUpdateRecommended \
	nIterations          0 \
	history              15 \
	knormThreshold       0 \
	energyDiffThreshold  1e-06 \
	nEnergyDiff          2 \
	alphaTstart          1 \
	alphaTmin            1e-10 \
	updateTestStepSize   yes \
	alphaTreduceFactor   0.1 \
	alphaTincreaseFactor 3 \
	nAlphaAdjustMax      3 \
	wolfeEnergy          0.0001 \
	wolfeGradient        0.9 \
	fdTest               no
lcao-params -1 1e-06 1e-05
pcm-variant GLSSA13
spintype z-spin
subspace-rotation-factor 1 yes
symmetries automatic
symmetry-threshold 0.0001



---------- Setting up symmetries ----------

Found 24 point-group symmetries of the bravais lattice
Found 24 space-group symmetries with basis
Applied RMS atom displacement 0 bohrs to make symmetries exact.

---------- Initializing the Grid ----------
R = 
[      18.9099     -9.45497            0  ]
[            0      16.3765            0  ]
[            0            0           40  ]
unit cell volume = 12387.1
G =
[   0.332269   0.191835         -0  ]
[          0   0.383671         -0  ]
[         -0         -0    0.15708  ]
Minimum fftbox size, Smin = [  80  80  164  ]
Chosen fftbox size, S = [  80  80  168  ]

---------- Exchange Correlation functional ----------
Initalized PBE GGA exchange.
Initalized PBE GGA correlation.

---------- Setting up pseudopotentials ----------
Width of ionic core gaussian charges (only for fluid interactions / plotting) set to 0

Reading pseudopotential file '/home/gridsan/aligho/DFT/build-Nov24/pseudopotentials/SG15/Li_ONCV_PBE.upf':
  'Li' pseudopotential, 'PBE' functional
  Generated using ONCVPSP code by D. R. Hamann
  Author: Martin Schlipf and Francois Gygi  Date: 150915.
  3 valence electrons, 2 orbitals, 4 projectors, 1328 radial grid points, with lMax = 1
  Transforming local potential to a uniform radial grid of dG=0.02 with 1489 points.
  Transforming nonlocal projectors to a uniform radial grid of dG=0.02 with 432 points.
    1S    l: 0   occupation:  2.0   eigenvalue: -1.905623
    2S    l: 0   occupation:  1.0   eigenvalue: -0.105624
  Transforming atomic orbitals to a uniform radial grid of dG=0.02 with 432 points.
  WARNING: large normalization error in atomic orbital 1s (integral: 0.000000).
  Core radius for overlap checks: 1.63 bohrs.
  Reading pulay file /home/gridsan/aligho/DFT/build-Nov24/pseudopotentials/SG15/Li_ONCV_PBE.pulay ... using dE_dnG = -1.230239e-02 computed for Ecut = 20.

Initialized 1 species with 1 total atoms.

Folded 1 k-points by 12x12x1 to 144 k-points.

---------- Setting up k-points, bands, fillings ----------
Reduced to 19 k-points under symmetry. 
Computing the number of bands and number of electrons
Calculating initial fillings.
nElectrons:   3.000000   nBands: 3   nStates: 38

----- Setting up reduced wavefunction bases (one per k-point) -----
average nbasis = 52924.021 , ideal nbasis = 52918.836

---------- Setting up coulomb interaction ----------
Initialized slab truncation along lattice direction 001

---------- Setting up 2D ewald sum ----------
Optimum gaussian width for ewald sums = 10.498040 bohr.
Real space sums over 289 unit cells with max indices [  8  8  0  ]
Reciprocal space sums over 81 terms with max indices [  4  4  0  ]

---------- Allocating electronic variables ----------
Initializing wave functions:  linear combination of atomic orbitals
Note: number of bands (3) exceeds available atomic orbitals (2)
Li pseudo-atom occupations:   s ( 2 1 )
[d-6-10-3:45220] 18 more processes have sent help message help-mpi-common-cuda.txt / dlopen failed
[d-6-10-3:45220] Set MCA parameter "orte_base_help_aggregate" to 0 to see all help / error messages
[d-6-10-3:45220] 18 more processes have sent help message help-mpi-btl-openib-cpc-base.txt / no cpcs for port
	FillingsUpdate:  mu: +0.366411572  nElectrons: 3.000000  magneticMoment: [ Abs: 0.72000  Tot: -0.72000 ]
LCAOMinimize: Iter:   0  F: -1.3088784414316705  |grad|_K:  3.967e-05  alpha:  1.000e+00
	FillingsUpdate:  mu: +0.366409426  nElectrons: 3.000000  magneticMoment: [ Abs: 0.72000  Tot: -0.72000 ]
LCAOMinimize: Iter:   1  F: -1.3088787636657300  |grad|_K:  4.421e-06  alpha:  1.155e+00  linmin: -4.356e-03  cgtest: -8.001e-01  t[s]:     12.57
	FillingsUpdate:  mu: +0.366410308  nElectrons: 3.000000  magneticMoment: [ Abs: 0.72000  Tot: -0.72000 ]
LCAOMinimize: Iter:   2  F: -1.3088787672867592  |grad|_K:  3.820e-06  alpha:  6.550e-01  linmin:  8.730e-02  cgtest:  7.860e-01  t[s]:     15.84
LCAOMinimize: Converged (|Delta F|<1.000000e-06 for 2 iters).


---- Citations for features of the code used in this run ----

   Software package:
      R. Sundararaman, K. Letchworth-Weaver, K.A. Schwarz, D. Gunceler, Y. Ozhabes and T.A. Arias, 'JDFTx: software for joint density-functional theory', SoftwareX 6, 278 (2017)

   gga-PBE exchange-correlation functional:
      J.P. Perdew, K. Burke and M. Ernzerhof, Phys. Rev. Lett. 77, 3865 (1996)

   Pseudopotentials:
      M Schlipf and F Gygi, Comput. Phys. Commun. 196, 36 (2015)

   Truncated Coulomb potentials:
      R. Sundararaman and T.A. Arias, Phys. Rev. B 87, 165122 (2013)

This list may not be complete. Please suggest additional citations or
report any other bugs at https://github.com/shankar1729/jdftx/issues

Initialization completed successfully at t[s]:     15.98


-------- Electronic minimization -----------
Will mix electronic density at each iteration.
	FillingsUpdate:  mu: +0.366410308  nElectrons: 3.000000  magneticMoment: [ Abs: 0.72000  Tot: -0.72000 ]
	FillingsUpdate:  mu: -0.616371305  nElectrons: 3.000000  magneticMoment: [ Abs: 0.72000  Tot: -0.72000 ]
SCF: Cycle:  0   F: -6.880610121154933   dF: -5.572e+00   |Residual|: 1.229e+00   |deigs|: 4.155e+00  t[s]:     21.62
	FillingsUpdate:  mu: -0.485751552  nElectrons: 3.000000  magneticMoment: [ Abs: 1.24593  Tot: -0.72000 ]
SCF: Cycle:  1   F: -6.915782359821665   dF: -3.517e-02   |Residual|: 7.638e-01   |deigs|: 2.763e-01  t[s]:     26.12
	FillingsUpdate:  mu: -0.284082256  nElectrons: 3.000000  magneticMoment: [ Abs: 1.61261  Tot: -0.72000 ]
SCF: Cycle:  2   F: -7.037606393418691   dF: -1.218e-01   |Residual|: 3.223e-01   |deigs|: 7.036e-01  t[s]:     30.75
	FillingsUpdate:  mu: -0.290209315  nElectrons: 3.000000  magneticMoment: [ Abs: 1.42538  Tot: -0.72000 ]
SCF: Cycle:  3   F: -7.037845945319378   dF: -2.396e-04   |Residual|: 1.674e-01   |deigs|: 8.328e-02  t[s]:     35.52
	FillingsUpdate:  mu: -0.238312156  nElectrons: 3.000000  magneticMoment: [ Abs: 1.23157  Tot: -0.72000 ]
SCF: Cycle:  4   F: -7.042167997236483   dF: -4.322e-03   |Residual|: 4.250e-02   |deigs|: 4.610e-02  t[s]:     40.46
	FillingsUpdate:  mu: -0.221869802  nElectrons: 3.000000  magneticMoment: [ Abs: 1.21009  Tot: -0.72000 ]
SCF: Cycle:  5   F: -7.043559452041707   dF: -1.391e-03   |Residual|: 7.029e-02   |deigs|: 1.666e-02  t[s]:     45.43
	FillingsUpdate:  mu: -0.200667910  nElectrons: 3.000000  magneticMoment: [ Abs: 1.03221  Tot: -0.72000 ]
SCF: Cycle:  6   F: -7.045384700426667   dF: -1.825e-03   |Residual|: 2.629e-02   |deigs|: 4.697e-02  t[s]:     50.55
	FillingsUpdate:  mu: -0.184436980  nElectrons: 3.000000  magneticMoment: [ Abs: 0.94318  Tot: -0.72000 ]
SCF: Cycle:  7   F: -7.047310996584319   dF: -1.926e-03   |Residual|: 3.848e-02   |deigs|: 3.934e-02  t[s]:     55.73
	FillingsUpdate:  mu: -0.182672441  nElectrons: 3.000000  magneticMoment: [ Abs: 0.87578  Tot: -0.72000 ]
SCF: Cycle:  8   F: -7.047995229585797   dF: -6.842e-04   |Residual|: 3.507e-02   |deigs|: 2.779e-03  t[s]:     61.01
	FillingsUpdate:  mu: -0.180054329  nElectrons: 3.000000  magneticMoment: [ Abs: 0.82295  Tot: -0.72000 ]
SCF: Cycle:  9   F: -7.048653049028747   dF: -6.578e-04   |Residual|: 1.431e-02   |deigs|: 1.644e-02  t[s]:     66.48
	FillingsUpdate:  mu: -0.168638449  nElectrons: 3.000000  magneticMoment: [ Abs: 0.76011  Tot: -0.72000 ]
SCF: Cycle: 10   F: -7.049004486403211   dF: -3.514e-04   |Residual|: 3.715e-02   |deigs|: 9.387e-03  t[s]:     72.04
	FillingsUpdate:  mu: -0.158393128  nElectrons: 3.000000  magneticMoment: [ Abs: 0.79033  Tot: -0.72000 ]
SCF: Cycle: 11   F: -7.049013771255138   dF: -9.285e-06   |Residual|: 9.691e-03   |deigs|: 1.761e-02  t[s]:     77.61
	FillingsUpdate:  mu: -0.148078100  nElectrons: 3.000000  magneticMoment: [ Abs: 0.83592  Tot: -0.72000 ]
SCF: Cycle: 12   F: -7.049231613793292   dF: -2.178e-04   |Residual|: 1.090e-02   |deigs|: 8.393e-03  t[s]:     83.23
	FillingsUpdate:  mu: -0.128377407  nElectrons: 3.000000  magneticMoment: [ Abs: 0.88770  Tot: -0.72000 ]
SCF: Cycle: 13   F: -7.049393740259705   dF: -1.621e-04   |Residual|: 6.399e-03   |deigs|: 2.360e-02  t[s]:     88.73
	FillingsUpdate:  mu: -0.119014818  nElectrons: 3.000000  magneticMoment: [ Abs: 0.88652  Tot: -0.72000 ]
SCF: Cycle: 14   F: -7.049313550583590   dF: +8.019e-05   |Residual|: 5.610e-03   |deigs|: 9.671e-03  t[s]:     94.21
	FillingsUpdate:  mu: -0.113862523  nElectrons: 3.000000  magneticMoment: [ Abs: 0.87186  Tot: -0.72000 ]
SCF: Cycle: 15   F: -7.049375540704275   dF: -6.199e-05   |Residual|: 4.431e-03   |deigs|: 5.741e-03  t[s]:     99.72
	FillingsUpdate:  mu: -0.110168404  nElectrons: 3.000000  magneticMoment: [ Abs: 0.84175  Tot: -0.72000 ]
SCF: Cycle: 16   F: -7.049417042024801   dF: -4.150e-05   |Residual|: 3.467e-03   |deigs|: 3.942e-03  t[s]:    105.29
	FillingsUpdate:  mu: -0.106831978  nElectrons: 3.000000  magneticMoment: [ Abs: 0.80826  Tot: -0.72000 ]
SCF: Cycle: 17   F: -7.049407848837702   dF: +9.193e-06   |Residual|: 3.084e-03   |deigs|: 3.477e-03  t[s]:    110.93
	FillingsUpdate:  mu: -0.103011685  nElectrons: 3.000000  magneticMoment: [ Abs: 0.78837  Tot: -0.72000 ]
SCF: Cycle: 18   F: -7.049444808043938   dF: -3.696e-05   |Residual|: 2.203e-03   |deigs|: 4.305e-03  t[s]:    116.39
	FillingsUpdate:  mu: -0.102409277  nElectrons: 3.000000  magneticMoment: [ Abs: 0.76459  Tot: -0.72000 ]
SCF: Cycle: 19   F: -7.049495507477310   dF: -5.070e-05   |Residual|: 1.714e-03   |deigs|: 1.095e-03  t[s]:    121.95
	FillingsUpdate:  mu: -0.101343558  nElectrons: 3.000000  magneticMoment: [ Abs: 0.75405  Tot: -0.72000 ]
SCF: Cycle: 20   F: -7.049526760994748   dF: -3.125e-05   |Residual|: 1.197e-03   |deigs|: 1.295e-03  t[s]:    127.49
	FillingsUpdate:  mu: -0.100728071  nElectrons: 3.000000  magneticMoment: [ Abs: 0.74111  Tot: -0.72000 ]
SCF: Cycle: 21   F: -7.049548289088637   dF: -2.153e-05   |Residual|: 8.252e-04   |deigs|: 9.096e-04  t[s]:    132.99
	FillingsUpdate:  mu: -0.100960817  nElectrons: 3.000000  magneticMoment: [ Abs: 0.73338  Tot: -0.72000 ]
SCF: Cycle: 22   F: -7.049553846040972   dF: -5.557e-06   |Residual|: 6.381e-04   |deigs|: 3.094e-04  t[s]:    138.50
	FillingsUpdate:  mu: -0.101106179  nElectrons: 3.000000  magneticMoment: [ Abs: 0.72657  Tot: -0.72000 ]
SCF: Cycle: 23   F: -7.049559121987832   dF: -5.276e-06   |Residual|: 4.158e-04   |deigs|: 3.849e-04  t[s]:    144.00
	FillingsUpdate:  mu: -0.101505675  nElectrons: 3.000000  magneticMoment: [ Abs: 0.72308  Tot: -0.72000 ]
SCF: Cycle: 24   F: -7.049561418212658   dF: -2.296e-06   |Residual|: 2.799e-04   |deigs|: 5.533e-04  t[s]:    149.49
	FillingsUpdate:  mu: -0.101518370  nElectrons: 3.000000  magneticMoment: [ Abs: 0.72179  Tot: -0.72000 ]
SCF: Cycle: 25   F: -7.049562761913731   dF: -1.344e-06   |Residual|: 1.465e-04   |deigs|: 2.798e-04  t[s]:    155.00
	FillingsUpdate:  mu: -0.101496639  nElectrons: 3.000000  magneticMoment: [ Abs: 0.72128  Tot: -0.72000 ]
SCF: Cycle: 26   F: -7.049563412115680   dF: -6.502e-07   |Residual|: 9.240e-05   |deigs|: 9.117e-05  t[s]:    160.55
	FillingsUpdate:  mu: -0.101470883  nElectrons: 3.000000  magneticMoment: [ Abs: 0.72091  Tot: -0.72000 ]
SCF: Cycle: 27   F: -7.049563461400346   dF: -4.928e-08   |Residual|: 7.444e-05   |deigs|: 5.969e-05  t[s]:    166.08
	FillingsUpdate:  mu: -0.101419721  nElectrons: 3.000000  magneticMoment: [ Abs: 0.72073  Tot: -0.72000 ]
SCF: Cycle: 28   F: -7.049563524750027   dF: -6.335e-08   |Residual|: 4.987e-05   |deigs|: 6.051e-05  t[s]:    171.62
	FillingsUpdate:  mu: -0.101410556  nElectrons: 3.000000  magneticMoment: [ Abs: 0.72060  Tot: -0.72000 ]
SCF: Cycle: 29   F: -7.049563547928592   dF: -2.318e-08   |Residual|: 4.080e-05   |deigs|: 4.325e-05  t[s]:    177.15
	FillingsUpdate:  mu: -0.101411528  nElectrons: 3.000000  magneticMoment: [ Abs: 0.72046  Tot: -0.72000 ]
SCF: Cycle: 30   F: -7.049563548682499   dF: -7.539e-10   |Residual|: 2.724e-05   |deigs|: 3.825e-05  t[s]:    182.74
	FillingsUpdate:  mu: -0.101421592  nElectrons: 3.000000  magneticMoment: [ Abs: 0.72031  Tot: -0.72000 ]
SCF: Cycle: 31   F: -7.049563570292649   dF: -2.161e-08   |Residual|: 1.722e-05   |deigs|: 3.674e-05  t[s]:    188.23
	FillingsUpdate:  mu: -0.101426538  nElectrons: 3.000000  magneticMoment: [ Abs: 0.72013  Tot: -0.72000 ]
SCF: Cycle: 32   F: -7.049563582148161   dF: -1.186e-08   |Residual|: 1.201e-05   |deigs|: 3.534e-05  t[s]:    193.79
	FillingsUpdate:  mu: -0.101428178  nElectrons: 3.000000  magneticMoment: [ Abs: 0.72007  Tot: -0.72000 ]
SCF: Cycle: 33   F: -7.049563591831606   dF: -9.683e-09   |Residual|: 9.532e-06   |deigs|: 3.180e-05  t[s]:    199.33
	FillingsUpdate:  mu: -0.101427000  nElectrons: 3.000000  magneticMoment: [ Abs: 0.72002  Tot: -0.72000 ]
SCF: Cycle: 34   F: -7.049563564875384   dF: +2.696e-08   |Residual|: 7.374e-06   |deigs|: 2.878e-05  t[s]:    204.93
	FillingsUpdate:  mu: -0.101425616  nElectrons: 3.000000  magneticMoment: [ Abs: 0.72001  Tot: -0.72000 ]
SCF: Cycle: 35   F: -7.049563597191267   dF: -3.232e-08   |Residual|: 5.433e-06   |deigs|: 2.525e-05  t[s]:    210.42
	FillingsUpdate:  mu: -0.101425032  nElectrons: 3.000000  magneticMoment: [ Abs: 0.72000  Tot: -0.72000 ]
SCF: Cycle: 36   F: -7.049563595829946   dF: +1.361e-09   |Residual|: 3.748e-06   |deigs|: 2.254e-05  t[s]:    215.98
	FillingsUpdate:  mu: -0.101424934  nElectrons: 3.000000  magneticMoment: [ Abs: 0.72000  Tot: -0.72000 ]
SCF: Cycle: 37   F: -7.049563605882474   dF: -1.005e-08   |Residual|: 2.751e-06   |deigs|: 1.989e-05  t[s]:    221.52
	FillingsUpdate:  mu: -0.101424824  nElectrons: 3.000000  magneticMoment: [ Abs: 0.72000  Tot: -0.72000 ]
SCF: Cycle: 38   F: -7.049563606341378   dF: -4.589e-10   |Residual|: 1.940e-06   |deigs|: 1.739e-05  t[s]:    227.08
	FillingsUpdate:  mu: -0.101424828  nElectrons: 3.000000  magneticMoment: [ Abs: 0.72000  Tot: -0.72000 ]
SCF: Cycle: 39   F: -7.049563611012925   dF: -4.672e-09   |Residual|: 1.325e-06   |deigs|: 1.536e-05  t[s]:    232.58
SCF: Converged (|Delta E|<1.000000e-08 for 2 iters).


# Ionic positions in lattice coordinates:
ion Li   0.000000000000000   0.000000000000000   0.000000000000000 0

# Forces in Lattice coordinates:
force Li  -0.000000000000000   0.000000000000000   0.000000000000000 0

# Energy components:
   Eewald =       -1.0026681166851483
       EH =        2.5577985993567167
     Eloc =       -8.2383771403021822
      Enl =       -3.6050866397436061
   Epulay =        0.0000051497655618
      Exc =       -1.5421003750958135
       KE =        4.7808654989579704
-------------------------------------
     Etot =       -7.0495630237465008
       TS =        0.0000005872664243
-------------------------------------
        F =       -7.0495636110129247

IonicMinimize: Iter:   0  F: -7.049563611012925  |grad|_K:  0.000e+00  t[s]:    232.82
IonicMinimize: Converged (|grad|_K<1.000000e-04).

#--- Lowdin population analysis ---
# oxidation-state Li +2.069
# magnetic-moments Li -0.667

End date and time: Sat Feb  5 22:52:47 2022  (Duration: 0-0:03:52.85)
Done!
