The alkali metal is Li
scale=2
magnetization=0.1
--------------------------------------------------------------------------
The library attempted to open the following supporting CUDA libraries,
but each of them failed.  CUDA-aware support is disabled.
libcuda.so.1: cannot open shared object file: No such file or directory
libcuda.dylib: cannot open shared object file: No such file or directory
/usr/lib64/libcuda.so.1: cannot open shared object file: No such file or directory
/usr/lib64/libcuda.dylib: cannot open shared object file: No such file or directory
If you are not interested in CUDA-aware support, then run with
--mca opal_warn_on_missing_libcuda 0 to suppress this message.  If you are interested
in CUDA-aware support, then try setting LD_LIBRARY_PATH to the location
of libcuda.so.1 to get passed this issue.
--------------------------------------------------------------------------
--------------------------------------------------------------------------
No OpenFabrics connection schemes reported that they were able to be
used on a specific port.  As such, the openib BTL (OpenFabrics
support) will be disabled for this port.

  Local host:           d-4-6-3
  Local device:         mlx5_1
  Local port:           1
  CPCs attempted:       rdmacm, udcm
--------------------------------------------------------------------------

*************** JDFTx 1.6.0 (git hash 42ebbcc2) ***************

Start date and time: Sat Feb  5 22:59:55 2022
Executable jdftx with command-line: -i Alkali.in
Running on hosts (process indices):  d-4-6-3 (0-18)
Divided in process groups (process indices):  0 (0)  1 (1)  2 (2)  3 (3)  4 (4)  5 (5)  6 (6)  7 (7)  8 (8)  9 (9)  10 (10)  11 (11)  12 (12)  13 (13)  14 (14)  15 (15)  16 (16)  17 (17)  18 (18)
Resource initialization completed at t[s]:      0.00
Run totals: 19 processes, 48 threads, 0 GPUs


Input parsed successfully to the following command list (including defaults):

basis kpoint-dependent
coords-type Lattice
core-overlap-check vector
coulomb-interaction Slab 001
davidson-band-ratio 1.1
dump End None
dump-name $INPUT.$VAR
elec-cutoff 20
elec-eigen-algo Davidson
elec-ex-corr gga-PBE
elec-initial-magnetization 0.100000 yes
elec-smearing Fermi 1e-05
electronic-minimize  \
	dirUpdateScheme      FletcherReeves \
	linminMethod         DirUpdateRecommended \
	nIterations          100 \
	history              15 \
	knormThreshold       0 \
	energyDiffThreshold  1e-08 \
	nEnergyDiff          2 \
	alphaTstart          1 \
	alphaTmin            1e-10 \
	updateTestStepSize   yes \
	alphaTreduceFactor   0.1 \
	alphaTincreaseFactor 3 \
	nAlphaAdjustMax      3 \
	wolfeEnergy          0.0001 \
	wolfeGradient        0.9 \
	fdTest               no
electronic-scf  \
	nIterations	10000 \
	energyDiffThreshold	1e-08 \
	residualThreshold	1e-07 \
	mixFraction	0.5 \
	qMetric	0.8 \
	history	10 \
	nEigSteps	2 \
	eigDiffThreshold	1e-08 \
	mixedVariable	Density \
	qKerker	0.8 \
	qKappa	-1 \
	verbose	no \
	mixFractionMag	1.5
exchange-regularization WignerSeitzTruncated
fluid None
fluid-ex-corr (null) lda-PZ
fluid-gummel-loop 10 1.000000e-05
fluid-minimize  \
	dirUpdateScheme      PolakRibiere \
	linminMethod         DirUpdateRecommended \
	nIterations          100 \
	history              15 \
	knormThreshold       0 \
	energyDiffThreshold  0 \
	nEnergyDiff          2 \
	alphaTstart          1 \
	alphaTmin            1e-10 \
	updateTestStepSize   yes \
	alphaTreduceFactor   0.1 \
	alphaTincreaseFactor 3 \
	nAlphaAdjustMax      3 \
	wolfeEnergy          0.0001 \
	wolfeGradient        0.9 \
	fdTest               no
fluid-solvent H2O 55.338 ScalarEOS \
	epsBulk 78.4 \
	pMol 0.92466 \
	epsInf 1.77 \
	Pvap 1.06736e-10 \
	sigmaBulk 4.62e-05 \
	Rvdw 2.61727 \
	Res 1.42 \
	tauNuc 343133 \
	poleEl 15 7 1
forces-output-coords Positions
ion Li   0.000000000000000   0.000000000000000   0.000000000000000 0
ion-species SG15/$ID_ONCV_PBE.upf
ion-width 0
ionic-minimize  \
	dirUpdateScheme      L-BFGS \
	linminMethod         DirUpdateRecommended \
	nIterations          0 \
	history              15 \
	knormThreshold       0.0001 \
	energyDiffThreshold  1e-06 \
	nEnergyDiff          2 \
	alphaTstart          1 \
	alphaTmin            1e-10 \
	updateTestStepSize   yes \
	alphaTreduceFactor   0.1 \
	alphaTincreaseFactor 3 \
	nAlphaAdjustMax      3 \
	wolfeEnergy          0.0001 \
	wolfeGradient        0.9 \
	fdTest               no
kpoint   0.000000000000   0.000000000000   0.000000000000  1.00000000000000
kpoint-folding 12 12 1 
latt-move-scale 1 1 1
latt-scale 2 2 1 
lattice  \
	   4.727486978767153   -2.363743489383575    0.000000000000000  \
	  -0.000000000000000    4.094123819672498    0.000000000000000  \
	   0.000000000000000    0.000000000000000   40.000000000000000 
lattice-minimize  \
	dirUpdateScheme      L-BFGS \
	linminMethod         DirUpdateRecommended \
	nIterations          0 \
	history              15 \
	knormThreshold       0 \
	energyDiffThreshold  1e-06 \
	nEnergyDiff          2 \
	alphaTstart          1 \
	alphaTmin            1e-10 \
	updateTestStepSize   yes \
	alphaTreduceFactor   0.1 \
	alphaTincreaseFactor 3 \
	nAlphaAdjustMax      3 \
	wolfeEnergy          0.0001 \
	wolfeGradient        0.9 \
	fdTest               no
lcao-params -1 1e-06 1e-05
pcm-variant GLSSA13
spintype z-spin
subspace-rotation-factor 1 yes
symmetries automatic
symmetry-threshold 0.0001



---------- Setting up symmetries ----------

Found 24 point-group symmetries of the bravais lattice
Found 24 space-group symmetries with basis
Applied RMS atom displacement 0 bohrs to make symmetries exact.

---------- Initializing the Grid ----------
R = 
[      9.45497     -4.72749            0  ]
[            0      8.18825            0  ]
[            0            0           40  ]
unit cell volume = 3096.79
G =
[   0.664538   0.383671         -0  ]
[          0   0.767342         -0  ]
[         -0         -0    0.15708  ]
Minimum fftbox size, Smin = [  40  40  164  ]
Chosen fftbox size, S = [  40  40  168  ]

---------- Exchange Correlation functional ----------
Initalized PBE GGA exchange.
Initalized PBE GGA correlation.

---------- Setting up pseudopotentials ----------
Width of ionic core gaussian charges (only for fluid interactions / plotting) set to 0

Reading pseudopotential file '/home/gridsan/aligho/DFT/build-Nov24/pseudopotentials/SG15/Li_ONCV_PBE.upf':
  'Li' pseudopotential, 'PBE' functional
  Generated using ONCVPSP code by D. R. Hamann
  Author: Martin Schlipf and Francois Gygi  Date: 150915.
  3 valence electrons, 2 orbitals, 4 projectors, 1328 radial grid points, with lMax = 1
  Transforming local potential to a uniform radial grid of dG=0.02 with 1489 points.
  Transforming nonlocal projectors to a uniform radial grid of dG=0.02 with 432 points.
    1S    l: 0   occupation:  2.0   eigenvalue: -1.905623
    2S    l: 0   occupation:  1.0   eigenvalue: -0.105624
  Transforming atomic orbitals to a uniform radial grid of dG=0.02 with 432 points.
  WARNING: large normalization error in atomic orbital 1s (integral: 0.000000).
  Core radius for overlap checks: 1.63 bohrs.
  Reading pulay file /home/gridsan/aligho/DFT/build-Nov24/pseudopotentials/SG15/Li_ONCV_PBE.pulay ... using dE_dnG = -1.230239e-02 computed for Ecut = 20.

Initialized 1 species with 1 total atoms.

Folded 1 k-points by 12x12x1 to 144 k-points.

---------- Setting up k-points, bands, fillings ----------
Reduced to 19 k-points under symmetry. 
Computing the number of bands and number of electrons
Calculating initial fillings.
nElectrons:   3.000000   nBands: 3   nStates: 38

----- Setting up reduced wavefunction bases (one per k-point) -----
average nbasis = 13230.521 , ideal nbasis = 13229.709

---------- Setting up coulomb interaction ----------
Initialized slab truncation along lattice direction 001

---------- Setting up 2D ewald sum ----------
Optimum gaussian width for ewald sums = 5.249020 bohr.
Real space sums over 289 unit cells with max indices [  8  8  0  ]
Reciprocal space sums over 81 terms with max indices [  4  4  0  ]

---------- Allocating electronic variables ----------
Initializing wave functions:  linear combination of atomic orbitals
Note: number of bands (3) exceeds available atomic orbitals (2)
Li pseudo-atom occupations:   s ( 2 1 )
	FillingsUpdate:  mu: +0.325111640  nElectrons: 3.000000  magneticMoment: [ Abs: 0.11334  Tot: +0.10000 ]
LCAOMinimize: Iter:   0  F: -1.1789198917946258  |grad|_K:  7.125e-05  alpha:  1.000e+00
	FillingsUpdate:  mu: +0.325110389  nElectrons: 3.000000  magneticMoment: [ Abs: 0.11335  Tot: +0.10000 ]
LCAOMinimize: Iter:   1  F: -1.1789207980341405  |grad|_K:  1.692e-06  alpha:  1.044e+00  linmin: -1.828e-03  cgtest:  2.812e-02  t[s]:      3.85
LCAOMinimize: Encountered beta<0, resetting CG.
[d-4-6-3:27359] 18 more processes have sent help message help-mpi-common-cuda.txt / dlopen failed
[d-4-6-3:27359] Set MCA parameter "orte_base_help_aggregate" to 0 to see all help / error messages
[d-4-6-3:27359] 18 more processes have sent help message help-mpi-btl-openib-cpc-base.txt / no cpcs for port
	FillingsUpdate:  mu: +0.325110399  nElectrons: 3.000000  magneticMoment: [ Abs: 0.11335  Tot: +0.10000 ]
LCAOMinimize: Iter:   2  F: -1.1789207985286130  |grad|_K:  4.141e-08  alpha:  1.013e+00  linmin: -4.241e-04  cgtest:  1.173e-02  t[s]:      4.98
LCAOMinimize: Converged (|Delta F|<1.000000e-06 for 2 iters).


---- Citations for features of the code used in this run ----

   Software package:
      R. Sundararaman, K. Letchworth-Weaver, K.A. Schwarz, D. Gunceler, Y. Ozhabes and T.A. Arias, 'JDFTx: software for joint density-functional theory', SoftwareX 6, 278 (2017)

   gga-PBE exchange-correlation functional:
      J.P. Perdew, K. Burke and M. Ernzerhof, Phys. Rev. Lett. 77, 3865 (1996)

   Pseudopotentials:
      M Schlipf and F Gygi, Comput. Phys. Commun. 196, 36 (2015)

   Truncated Coulomb potentials:
      R. Sundararaman and T.A. Arias, Phys. Rev. B 87, 165122 (2013)

This list may not be complete. Please suggest additional citations or
report any other bugs at https://github.com/shankar1729/jdftx/issues

Initialization completed successfully at t[s]:      5.04


-------- Electronic minimization -----------
Will mix electronic density at each iteration.
	FillingsUpdate:  mu: +0.325110399  nElectrons: 3.000000  magneticMoment: [ Abs: 0.11335  Tot: +0.10000 ]
	FillingsUpdate:  mu: -0.978548742  nElectrons: 3.000000  magneticMoment: [ Abs: 0.11335  Tot: +0.10000 ]
SCF: Cycle:  0   F: -6.826673926754429   dF: -5.648e+00   |Residual|: 1.172e+00   |deigs|: 4.170e+00  t[s]:      6.71
	FillingsUpdate:  mu: -0.865750005  nElectrons: 3.000000  magneticMoment: [ Abs: 0.17799  Tot: +0.10000 ]
SCF: Cycle:  1   F: -6.935730100534981   dF: -1.091e-01   |Residual|: 7.729e-01   |deigs|: 2.329e-01  t[s]:      8.02
	FillingsUpdate:  mu: -0.614236017  nElectrons: 3.000000  magneticMoment: [ Abs: 0.23090  Tot: +0.10000 ]
SCF: Cycle:  2   F: -7.050399003239523   dF: -1.147e-01   |Residual|: 4.191e-01   |deigs|: 7.856e-01  t[s]:      9.39
	FillingsUpdate:  mu: -0.653422746  nElectrons: 3.000000  magneticMoment: [ Abs: 0.20921  Tot: +0.10000 ]
SCF: Cycle:  3   F: -7.057604579734467   dF: -7.206e-03   |Residual|: 2.110e-01   |deigs|: 1.275e-01  t[s]:     10.72
	FillingsUpdate:  mu: -0.619324737  nElectrons: 3.000000  magneticMoment: [ Abs: 0.27732  Tot: +0.10000 ]
SCF: Cycle:  4   F: -7.055804584750435   dF: +1.800e-03   |Residual|: 6.391e-02   |deigs|: 3.973e-02  t[s]:     12.13
	FillingsUpdate:  mu: -0.586138459  nElectrons: 3.000000  magneticMoment: [ Abs: 0.22269  Tot: +0.10000 ]
SCF: Cycle:  5   F: -7.055525232782751   dF: +2.794e-04   |Residual|: 1.551e-01   |deigs|: 2.652e-02  t[s]:     13.52
	FillingsUpdate:  mu: -0.488096946  nElectrons: 3.000000  magneticMoment: [ Abs: 0.26279  Tot: +0.10000 ]
SCF: Cycle:  6   F: -7.060285107560187   dF: -4.760e-03   |Residual|: 8.110e-02   |deigs|: 1.304e-01  t[s]:     15.00
	FillingsUpdate:  mu: -0.428332242  nElectrons: 3.000000  magneticMoment: [ Abs: 0.23836  Tot: +0.10000 ]
SCF: Cycle:  7   F: -7.061521430078676   dF: -1.236e-03   |Residual|: 1.651e-01   |deigs|: 1.301e-01  t[s]:     16.49
	FillingsUpdate:  mu: -0.368477026  nElectrons: 3.000000  magneticMoment: [ Abs: 0.16380  Tot: +0.10000 ]
SCF: Cycle:  8   F: -7.064976492191021   dF: -3.455e-03   |Residual|: 4.610e-02   |deigs|: 4.817e-02  t[s]:     17.99
	FillingsUpdate:  mu: -0.318181253  nElectrons: 3.000000  magneticMoment: [ Abs: 0.41176  Tot: +0.10000 ]
SCF: Cycle:  9   F: -7.064994293354335   dF: -1.780e-05   |Residual|: 1.212e-01   |deigs|: 5.533e-02  t[s]:     19.48
	FillingsUpdate:  mu: -0.286499766  nElectrons: 3.000000  magneticMoment: [ Abs: 0.29575  Tot: +0.10000 ]
SCF: Cycle: 10   F: -7.065417441351570   dF: -4.231e-04   |Residual|: 1.418e-01   |deigs|: 2.510e-02  t[s]:     21.03
	FillingsUpdate:  mu: -0.236885025  nElectrons: 3.000000  magneticMoment: [ Abs: 0.28840  Tot: +0.10000 ]
SCF: Cycle: 11   F: -7.067047706514971   dF: -1.630e-03   |Residual|: 3.522e-02   |deigs|: 1.101e-01  t[s]:     22.58
	FillingsUpdate:  mu: -0.210620349  nElectrons: 3.000000  magneticMoment: [ Abs: 0.15567  Tot: +0.10000 ]
SCF: Cycle: 12   F: -7.067652942949058   dF: -6.052e-04   |Residual|: 1.384e-02   |deigs|: 2.083e-02  t[s]:     24.14
	FillingsUpdate:  mu: -0.171307068  nElectrons: 3.000000  magneticMoment: [ Abs: 0.14861  Tot: +0.10000 ]
SCF: Cycle: 13   F: -7.067871654339983   dF: -2.187e-04   |Residual|: 1.035e-02   |deigs|: 4.070e-02  t[s]:     25.68
	FillingsUpdate:  mu: -0.143145700  nElectrons: 3.000000  magneticMoment: [ Abs: 0.13266  Tot: +0.10000 ]
SCF: Cycle: 14   F: -7.067894773155125   dF: -2.312e-05   |Residual|: 8.331e-03   |deigs|: 2.934e-02  t[s]:     27.26
	FillingsUpdate:  mu: -0.130217767  nElectrons: 3.000000  magneticMoment: [ Abs: 0.12973  Tot: +0.10000 ]
SCF: Cycle: 15   F: -7.067942377821184   dF: -4.760e-05   |Residual|: 6.395e-03   |deigs|: 1.260e-02  t[s]:     28.79
	FillingsUpdate:  mu: -0.115458507  nElectrons: 3.000000  magneticMoment: [ Abs: 0.11995  Tot: +0.10000 ]
SCF: Cycle: 16   F: -7.068061739708163   dF: -1.194e-04   |Residual|: 3.787e-03   |deigs|: 1.431e-02  t[s]:     30.36
	FillingsUpdate:  mu: -0.114844342  nElectrons: 3.000000  magneticMoment: [ Abs: 0.11278  Tot: +0.10000 ]
SCF: Cycle: 17   F: -7.068127702669722   dF: -6.596e-05   |Residual|: 2.424e-03   |deigs|: 6.751e-04  t[s]:     31.92
	FillingsUpdate:  mu: -0.114661281  nElectrons: 3.000000  magneticMoment: [ Abs: 0.10849  Tot: +0.10000 ]
SCF: Cycle: 18   F: -7.068157669758936   dF: -2.997e-05   |Residual|: 1.567e-03   |deigs|: 5.363e-04  t[s]:     33.44
	FillingsUpdate:  mu: -0.115036885  nElectrons: 3.000000  magneticMoment: [ Abs: 0.10580  Tot: +0.10000 ]
SCF: Cycle: 19   F: -7.068169180299195   dF: -1.151e-05   |Residual|: 8.720e-04   |deigs|: 4.569e-04  t[s]:     34.93
	FillingsUpdate:  mu: -0.113440992  nElectrons: 3.000000  magneticMoment: [ Abs: 0.10537  Tot: +0.10000 ]
SCF: Cycle: 20   F: -7.068175592619209   dF: -6.412e-06   |Residual|: 4.357e-04   |deigs|: 1.483e-03  t[s]:     36.45
	FillingsUpdate:  mu: -0.112301434  nElectrons: 3.000000  magneticMoment: [ Abs: 0.10449  Tot: +0.10000 ]
SCF: Cycle: 21   F: -7.068176649171608   dF: -1.057e-06   |Residual|: 2.726e-04   |deigs|: 1.227e-03  t[s]:     37.97
	FillingsUpdate:  mu: -0.111820718  nElectrons: 3.000000  magneticMoment: [ Abs: 0.10395  Tot: +0.10000 ]
SCF: Cycle: 22   F: -7.068176870407662   dF: -2.212e-07   |Residual|: 1.658e-04   |deigs|: 5.846e-04  t[s]:     39.61
	FillingsUpdate:  mu: -0.111610796  nElectrons: 3.000000  magneticMoment: [ Abs: 0.10347  Tot: +0.10000 ]
SCF: Cycle: 23   F: -7.068176989136664   dF: -1.187e-07   |Residual|: 1.157e-04   |deigs|: 3.584e-04  t[s]:     41.12
	FillingsUpdate:  mu: -0.111618734  nElectrons: 3.000000  magneticMoment: [ Abs: 0.10291  Tot: +0.10000 ]
SCF: Cycle: 24   F: -7.068177012303559   dF: -2.317e-08   |Residual|: 8.785e-05   |deigs|: 8.086e-05  t[s]:     42.67
	FillingsUpdate:  mu: -0.111702917  nElectrons: 3.000000  magneticMoment: [ Abs: 0.10220  Tot: +0.10000 ]
SCF: Cycle: 25   F: -7.068177047288447   dF: -3.498e-08   |Residual|: 8.641e-05   |deigs|: 1.236e-04  t[s]:     44.20
	FillingsUpdate:  mu: -0.111756427  nElectrons: 3.000000  magneticMoment: [ Abs: 0.10135  Tot: +0.10000 ]
SCF: Cycle: 26   F: -7.068177076695016   dF: -2.941e-08   |Residual|: 7.629e-05   |deigs|: 1.039e-04  t[s]:     45.73
	FillingsUpdate:  mu: -0.111821191  nElectrons: 3.000000  magneticMoment: [ Abs: 0.10054  Tot: +0.10000 ]
SCF: Cycle: 27   F: -7.068177105989349   dF: -2.929e-08   |Residual|: 5.562e-05   |deigs|: 9.581e-05  t[s]:     47.24
	FillingsUpdate:  mu: -0.111869650  nElectrons: 3.000000  magneticMoment: [ Abs: 0.10020  Tot: +0.10000 ]
SCF: Cycle: 28   F: -7.068177129537782   dF: -2.355e-08   |Residual|: 3.414e-05   |deigs|: 7.727e-05  t[s]:     48.74
	FillingsUpdate:  mu: -0.111868009  nElectrons: 3.000000  magneticMoment: [ Abs: 0.10010  Tot: +0.10000 ]
SCF: Cycle: 29   F: -7.068177133913741   dF: -4.376e-09   |Residual|: 2.335e-05   |deigs|: 5.037e-05  t[s]:     50.25
	FillingsUpdate:  mu: -0.111856579  nElectrons: 3.000000  magneticMoment: [ Abs: 0.10004  Tot: +0.10000 ]
SCF: Cycle: 30   F: -7.068177140990272   dF: -7.077e-09   |Residual|: 1.528e-05   |deigs|: 4.714e-05  t[s]:     51.87
SCF: Converged (|Delta E|<1.000000e-08 for 2 iters).


# Ionic positions in lattice coordinates:
ion Li   0.000000000000000   0.000000000000000   0.000000000000000 0

# Forces in Lattice coordinates:
force Li  -0.000000000000000   0.000000000000000   0.000000000000000 0

# Energy components:
   Eewald =       -2.0053362333702967
       EH =        1.5277804356151656
     Eloc =       -6.1884312089288551
      Enl =       -3.5905158908196881
   Epulay =        0.0000032255226020
      Exc =       -1.5370488121258472
       KE =        4.7253724405523378
-------------------------------------
     Etot =       -7.0681760435545815
       TS =        0.0000010974356905
-------------------------------------
        F =       -7.0681771409902723

IonicMinimize: Iter:   0  F: -7.068177140990272  |grad|_K:  0.000e+00  t[s]:     51.94
IonicMinimize: Converged (|grad|_K<1.000000e-04).

#--- Lowdin population analysis ---
# oxidation-state Li +2.161
# magnetic-moments Li +0.069

End date and time: Sat Feb  5 23:00:47 2022  (Duration: 0-0:00:51.96)
Done!
scale=3
magnetization=0.1
--------------------------------------------------------------------------
The library attempted to open the following supporting CUDA libraries,
but each of them failed.  CUDA-aware support is disabled.
libcuda.so.1: cannot open shared object file: No such file or directory
libcuda.dylib: cannot open shared object file: No such file or directory
/usr/lib64/libcuda.so.1: cannot open shared object file: No such file or directory
/usr/lib64/libcuda.dylib: cannot open shared object file: No such file or directory
If you are not interested in CUDA-aware support, then run with
--mca opal_warn_on_missing_libcuda 0 to suppress this message.  If you are interested
in CUDA-aware support, then try setting LD_LIBRARY_PATH to the location
of libcuda.so.1 to get passed this issue.
--------------------------------------------------------------------------
--------------------------------------------------------------------------
No OpenFabrics connection schemes reported that they were able to be
used on a specific port.  As such, the openib BTL (OpenFabrics
support) will be disabled for this port.

  Local host:           d-4-6-3
  Local device:         mlx5_1
  Local port:           1
  CPCs attempted:       rdmacm, udcm
--------------------------------------------------------------------------

*************** JDFTx 1.6.0 (git hash 42ebbcc2) ***************

Start date and time: Sat Feb  5 23:00:48 2022
Executable jdftx with command-line: -i Alkali.in
Running on hosts (process indices):  d-4-6-3 (0-18)
Divided in process groups (process indices):  0 (0)  1 (1)  2 (2)  3 (3)  4 (4)  5 (5)  6 (6)  7 (7)  8 (8)  9 (9)  10 (10)  11 (11)  12 (12)  13 (13)  14 (14)  15 (15)  16 (16)  17 (17)  18 (18)
Resource initialization completed at t[s]:      0.00
Run totals: 19 processes, 48 threads, 0 GPUs


Input parsed successfully to the following command list (including defaults):

basis kpoint-dependent
coords-type Lattice
core-overlap-check vector
coulomb-interaction Slab 001
davidson-band-ratio 1.1
dump End None
dump-name $INPUT.$VAR
elec-cutoff 20
elec-eigen-algo Davidson
elec-ex-corr gga-PBE
elec-initial-magnetization 0.100000 yes
elec-smearing Fermi 1e-05
electronic-minimize  \
	dirUpdateScheme      FletcherReeves \
	linminMethod         DirUpdateRecommended \
	nIterations          100 \
	history              15 \
	knormThreshold       0 \
	energyDiffThreshold  1e-08 \
	nEnergyDiff          2 \
	alphaTstart          1 \
	alphaTmin            1e-10 \
	updateTestStepSize   yes \
	alphaTreduceFactor   0.1 \
	alphaTincreaseFactor 3 \
	nAlphaAdjustMax      3 \
	wolfeEnergy          0.0001 \
	wolfeGradient        0.9 \
	fdTest               no
electronic-scf  \
	nIterations	10000 \
	energyDiffThreshold	1e-08 \
	residualThreshold	1e-07 \
	mixFraction	0.5 \
	qMetric	0.8 \
	history	10 \
	nEigSteps	2 \
	eigDiffThreshold	1e-08 \
	mixedVariable	Density \
	qKerker	0.8 \
	qKappa	-1 \
	verbose	no \
	mixFractionMag	1.5
exchange-regularization WignerSeitzTruncated
fluid None
fluid-ex-corr (null) lda-PZ
fluid-gummel-loop 10 1.000000e-05
fluid-minimize  \
	dirUpdateScheme      PolakRibiere \
	linminMethod         DirUpdateRecommended \
	nIterations          100 \
	history              15 \
	knormThreshold       0 \
	energyDiffThreshold  0 \
	nEnergyDiff          2 \
	alphaTstart          1 \
	alphaTmin            1e-10 \
	updateTestStepSize   yes \
	alphaTreduceFactor   0.1 \
	alphaTincreaseFactor 3 \
	nAlphaAdjustMax      3 \
	wolfeEnergy          0.0001 \
	wolfeGradient        0.9 \
	fdTest               no
fluid-solvent H2O 55.338 ScalarEOS \
	epsBulk 78.4 \
	pMol 0.92466 \
	epsInf 1.77 \
	Pvap 1.06736e-10 \
	sigmaBulk 4.62e-05 \
	Rvdw 2.61727 \
	Res 1.42 \
	tauNuc 343133 \
	poleEl 15 7 1
forces-output-coords Positions
ion Li   0.000000000000000   0.000000000000000   0.000000000000000 0
ion-species SG15/$ID_ONCV_PBE.upf
ion-width 0
ionic-minimize  \
	dirUpdateScheme      L-BFGS \
	linminMethod         DirUpdateRecommended \
	nIterations          0 \
	history              15 \
	knormThreshold       0.0001 \
	energyDiffThreshold  1e-06 \
	nEnergyDiff          2 \
	alphaTstart          1 \
	alphaTmin            1e-10 \
	updateTestStepSize   yes \
	alphaTreduceFactor   0.1 \
	alphaTincreaseFactor 3 \
	nAlphaAdjustMax      3 \
	wolfeEnergy          0.0001 \
	wolfeGradient        0.9 \
	fdTest               no
kpoint   0.000000000000   0.000000000000   0.000000000000  1.00000000000000
kpoint-folding 12 12 1 
latt-move-scale 1 1 1
latt-scale 3 3 1 
lattice  \
	   4.727486978767153   -2.363743489383575    0.000000000000000  \
	  -0.000000000000000    4.094123819672498    0.000000000000000  \
	   0.000000000000000    0.000000000000000   40.000000000000000 
lattice-minimize  \
	dirUpdateScheme      L-BFGS \
	linminMethod         DirUpdateRecommended \
	nIterations          0 \
	history              15 \
	knormThreshold       0 \
	energyDiffThreshold  1e-06 \
	nEnergyDiff          2 \
	alphaTstart          1 \
	alphaTmin            1e-10 \
	updateTestStepSize   yes \
	alphaTreduceFactor   0.1 \
	alphaTincreaseFactor 3 \
	nAlphaAdjustMax      3 \
	wolfeEnergy          0.0001 \
	wolfeGradient        0.9 \
	fdTest               no
lcao-params -1 1e-06 1e-05
pcm-variant GLSSA13
spintype z-spin
subspace-rotation-factor 1 yes
symmetries automatic
symmetry-threshold 0.0001



---------- Setting up symmetries ----------

Found 24 point-group symmetries of the bravais lattice
Found 24 space-group symmetries with basis
Applied RMS atom displacement 0 bohrs to make symmetries exact.

---------- Initializing the Grid ----------
R = 
[      14.1825     -7.09123            0  ]
[            0      12.2824            0  ]
[            0            0           40  ]
unit cell volume = 6967.77
G =
[   0.443025   0.255781         -0  ]
[          0   0.511561         -0  ]
[         -0         -0    0.15708  ]
Minimum fftbox size, Smin = [  60  60  164  ]
Chosen fftbox size, S = [  60  60  168  ]

---------- Exchange Correlation functional ----------
Initalized PBE GGA exchange.
Initalized PBE GGA correlation.

---------- Setting up pseudopotentials ----------
Width of ionic core gaussian charges (only for fluid interactions / plotting) set to 0

Reading pseudopotential file '/home/gridsan/aligho/DFT/build-Nov24/pseudopotentials/SG15/Li_ONCV_PBE.upf':
  'Li' pseudopotential, 'PBE' functional
  Generated using ONCVPSP code by D. R. Hamann
  Author: Martin Schlipf and Francois Gygi  Date: 150915.
  3 valence electrons, 2 orbitals, 4 projectors, 1328 radial grid points, with lMax = 1
  Transforming local potential to a uniform radial grid of dG=0.02 with 1489 points.
  Transforming nonlocal projectors to a uniform radial grid of dG=0.02 with 432 points.
    1S    l: 0   occupation:  2.0   eigenvalue: -1.905623
    2S    l: 0   occupation:  1.0   eigenvalue: -0.105624
  Transforming atomic orbitals to a uniform radial grid of dG=0.02 with 432 points.
  WARNING: large normalization error in atomic orbital 1s (integral: 0.000000).
  Core radius for overlap checks: 1.63 bohrs.
  Reading pulay file /home/gridsan/aligho/DFT/build-Nov24/pseudopotentials/SG15/Li_ONCV_PBE.pulay ... using dE_dnG = -1.230239e-02 computed for Ecut = 20.

Initialized 1 species with 1 total atoms.

Folded 1 k-points by 12x12x1 to 144 k-points.

---------- Setting up k-points, bands, fillings ----------
Reduced to 19 k-points under symmetry. 
Computing the number of bands and number of electrons
Calculating initial fillings.
nElectrons:   3.000000   nBands: 3   nStates: 38

----- Setting up reduced wavefunction bases (one per k-point) -----
average nbasis = 29766.104 , ideal nbasis = 29766.845

---------- Setting up coulomb interaction ----------
Initialized slab truncation along lattice direction 001

---------- Setting up 2D ewald sum ----------
Optimum gaussian width for ewald sums = 7.873530 bohr.
Real space sums over 289 unit cells with max indices [  8  8  0  ]
Reciprocal space sums over 81 terms with max indices [  4  4  0  ]

---------- Allocating electronic variables ----------
Initializing wave functions:  linear combination of atomic orbitals
Note: number of bands (3) exceeds available atomic orbitals (2)
Li pseudo-atom occupations:   s ( 2 1 )
[d-4-6-3:63416] 18 more processes have sent help message help-mpi-common-cuda.txt / dlopen failed
[d-4-6-3:63416] Set MCA parameter "orte_base_help_aggregate" to 0 to see all help / error messages
[d-4-6-3:63416] 18 more processes have sent help message help-mpi-btl-openib-cpc-base.txt / no cpcs for port
	FillingsUpdate:  mu: +0.351080681  nElectrons: 3.000000  magneticMoment: [ Abs: 0.10654  Tot: +0.10000 ]
LCAOMinimize: Iter:   0  F: -1.2891670273248401  |grad|_K:  4.892e-05  alpha:  1.000e+00
	FillingsUpdate:  mu: +0.351079990  nElectrons: 3.000000  magneticMoment: [ Abs: 0.10654  Tot: +0.10000 ]
LCAOMinimize: Iter:   1  F: -1.2891674595855778  |grad|_K:  5.538e-07  alpha:  1.056e+00  linmin: -1.100e-03  cgtest:  9.849e-03  t[s]:      7.56
	FillingsUpdate:  mu: +0.351079992  nElectrons: 3.000000  magneticMoment: [ Abs: 0.10654  Tot: +0.10000 ]
LCAOMinimize: Iter:   2  F: -1.2891674596376193  |grad|_K:  2.191e-08  alpha:  1.041e+00  linmin:  2.048e-02  cgtest: -9.397e-01  t[s]:      9.65
LCAOMinimize: Converged (|Delta F|<1.000000e-06 for 2 iters).


---- Citations for features of the code used in this run ----

   Software package:
      R. Sundararaman, K. Letchworth-Weaver, K.A. Schwarz, D. Gunceler, Y. Ozhabes and T.A. Arias, 'JDFTx: software for joint density-functional theory', SoftwareX 6, 278 (2017)

   gga-PBE exchange-correlation functional:
      J.P. Perdew, K. Burke and M. Ernzerhof, Phys. Rev. Lett. 77, 3865 (1996)

   Pseudopotentials:
      M Schlipf and F Gygi, Comput. Phys. Commun. 196, 36 (2015)

   Truncated Coulomb potentials:
      R. Sundararaman and T.A. Arias, Phys. Rev. B 87, 165122 (2013)

This list may not be complete. Please suggest additional citations or
report any other bugs at https://github.com/shankar1729/jdftx/issues

Initialization completed successfully at t[s]:      9.75


-------- Electronic minimization -----------
Will mix electronic density at each iteration.
	FillingsUpdate:  mu: +0.351079992  nElectrons: 3.000000  magneticMoment: [ Abs: 0.10654  Tot: +0.10000 ]
	FillingsUpdate:  mu: -0.692065248  nElectrons: 3.000000  magneticMoment: [ Abs: 0.10654  Tot: +0.10000 ]
SCF: Cycle:  0   F: -6.868353054995061   dF: -5.579e+00   |Residual|: 1.224e+00   |deigs|: 4.156e+00  t[s]:     13.12
	FillingsUpdate:  mu: -0.577728538  nElectrons: 3.000000  magneticMoment: [ Abs: 0.16935  Tot: +0.10000 ]
SCF: Cycle:  1   F: -6.914929266715803   dF: -4.658e-02   |Residual|: 7.608e-01   |deigs|: 2.722e-01  t[s]:     15.94
	FillingsUpdate:  mu: -0.319973911  nElectrons: 3.000000  magneticMoment: [ Abs: 0.22039  Tot: +0.10000 ]
SCF: Cycle:  2   F: -7.040527931610482   dF: -1.256e-01   |Residual|: 3.258e-01   |deigs|: 7.172e-01  t[s]:     18.69
	FillingsUpdate:  mu: -0.356719279  nElectrons: 3.000000  magneticMoment: [ Abs: 0.24081  Tot: +0.10000 ]
SCF: Cycle:  3   F: -7.041712542098272   dF: -1.185e-03   |Residual|: 1.827e-01   |deigs|: 8.538e-02  t[s]:     21.53
	FillingsUpdate:  mu: -0.327181480  nElectrons: 3.000000  magneticMoment: [ Abs: 0.28264  Tot: +0.10000 ]
SCF: Cycle:  4   F: -7.038153007791748   dF: +3.560e-03   |Residual|: 1.106e-01   |deigs|: 2.867e-02  t[s]:     24.36
	FillingsUpdate:  mu: -0.315250917  nElectrons: 3.000000  magneticMoment: [ Abs: 0.26054  Tot: +0.10000 ]
SCF: Cycle:  5   F: -7.038578068711614   dF: -4.251e-04   |Residual|: 8.625e-02   |deigs|: 2.280e-02  t[s]:     27.32
	FillingsUpdate:  mu: -0.286169733  nElectrons: 3.000000  magneticMoment: [ Abs: 0.17742  Tot: +0.10000 ]
SCF: Cycle:  6   F: -7.042071515686899   dF: -3.493e-03   |Residual|: 3.603e-02   |deigs|: 7.023e-02  t[s]:     30.43
	FillingsUpdate:  mu: -0.238532017  nElectrons: 3.000000  magneticMoment: [ Abs: 0.17514  Tot: +0.10000 ]
SCF: Cycle:  7   F: -7.044502271220379   dF: -2.431e-03   |Residual|: 1.578e-01   |deigs|: 9.973e-02  t[s]:     33.55
	FillingsUpdate:  mu: -0.225901427  nElectrons: 3.000000  magneticMoment: [ Abs: 0.16873  Tot: +0.10000 ]
SCF: Cycle:  8   F: -7.045548461064533   dF: -1.046e-03   |Residual|: 5.633e-02   |deigs|: 2.883e-02  t[s]:     36.66
	FillingsUpdate:  mu: -0.235096140  nElectrons: 3.000000  magneticMoment: [ Abs: 0.28449  Tot: +0.10000 ]
SCF: Cycle:  9   F: -7.043496276965492   dF: +2.052e-03   |Residual|: 2.362e-01   |deigs|: 1.337e-01  t[s]:     39.87
	FillingsUpdate:  mu: -0.211686993  nElectrons: 3.000000  magneticMoment: [ Abs: 0.33535  Tot: +0.10000 ]
SCF: Cycle: 10   F: -7.043180759152404   dF: +3.155e-04   |Residual|: 2.330e-01   |deigs|: 1.883e-02  t[s]:     43.10
	FillingsUpdate:  mu: -0.178899119  nElectrons: 3.000000  magneticMoment: [ Abs: 0.21826  Tot: +0.10000 ]
SCF: Cycle: 11   F: -7.046491816825631   dF: -3.311e-03   |Residual|: 2.839e-02   |deigs|: 1.253e-01  t[s]:     46.33
	FillingsUpdate:  mu: -0.163350236  nElectrons: 3.000000  magneticMoment: [ Abs: 0.18362  Tot: +0.10000 ]
SCF: Cycle: 12   F: -7.046910382831531   dF: -4.186e-04   |Residual|: 1.148e-02   |deigs|: 1.459e-02  t[s]:     49.56
	FillingsUpdate:  mu: -0.142596800  nElectrons: 3.000000  magneticMoment: [ Abs: 0.15925  Tot: +0.10000 ]
SCF: Cycle: 13   F: -7.047093647563134   dF: -1.833e-04   |Residual|: 9.427e-03   |deigs|: 2.189e-02  t[s]:     52.94
	FillingsUpdate:  mu: -0.130474665  nElectrons: 3.000000  magneticMoment: [ Abs: 0.15059  Tot: +0.10000 ]
SCF: Cycle: 14   F: -7.047105028563164   dF: -1.138e-05   |Residual|: 6.946e-03   |deigs|: 1.337e-02  t[s]:     56.13
	FillingsUpdate:  mu: -0.123730552  nElectrons: 3.000000  magneticMoment: [ Abs: 0.14060  Tot: +0.10000 ]
SCF: Cycle: 15   F: -7.047144880735058   dF: -3.985e-05   |Residual|: 5.508e-03   |deigs|: 5.814e-03  t[s]:     59.39
	FillingsUpdate:  mu: -0.114208371  nElectrons: 3.000000  magneticMoment: [ Abs: 0.13334  Tot: +0.10000 ]
SCF: Cycle: 16   F: -7.047222078101742   dF: -7.720e-05   |Residual|: 4.266e-03   |deigs|: 1.050e-02  t[s]:     62.72
	FillingsUpdate:  mu: -0.108356732  nElectrons: 3.000000  magneticMoment: [ Abs: 0.12515  Tot: +0.10000 ]
SCF: Cycle: 17   F: -7.047345172743715   dF: -1.231e-04   |Residual|: 2.945e-03   |deigs|: 6.704e-03  t[s]:     66.08
	FillingsUpdate:  mu: -0.107528759  nElectrons: 3.000000  magneticMoment: [ Abs: 0.11548  Tot: +0.10000 ]
SCF: Cycle: 18   F: -7.047408698719639   dF: -6.353e-05   |Residual|: 2.246e-03   |deigs|: 1.095e-03  t[s]:     69.37
	FillingsUpdate:  mu: -0.107481403  nElectrons: 3.000000  magneticMoment: [ Abs: 0.11491  Tot: +0.10000 ]
SCF: Cycle: 19   F: -7.047461903139473   dF: -5.320e-05   |Residual|: 1.225e-03   |deigs|: 4.468e-04  t[s]:     72.62
	FillingsUpdate:  mu: -0.107347623  nElectrons: 3.000000  magneticMoment: [ Abs: 0.10980  Tot: +0.10000 ]
SCF: Cycle: 20   F: -7.047478459157099   dF: -1.656e-05   |Residual|: 7.982e-04   |deigs|: 2.939e-04  t[s]:     75.91
	FillingsUpdate:  mu: -0.107651786  nElectrons: 3.000000  magneticMoment: [ Abs: 0.10459  Tot: +0.10000 ]
SCF: Cycle: 21   F: -7.047485937329633   dF: -7.478e-06   |Residual|: 4.448e-04   |deigs|: 3.523e-04  t[s]:     79.14
	FillingsUpdate:  mu: -0.107196195  nElectrons: 3.000000  magneticMoment: [ Abs: 0.10398  Tot: +0.10000 ]
SCF: Cycle: 22   F: -7.047488935263287   dF: -2.998e-06   |Residual|: 2.516e-04   |deigs|: 5.412e-04  t[s]:     82.38
	FillingsUpdate:  mu: -0.107004447  nElectrons: 3.000000  magneticMoment: [ Abs: 0.10281  Tot: +0.10000 ]
SCF: Cycle: 23   F: -7.047489936840291   dF: -1.002e-06   |Residual|: 1.456e-04   |deigs|: 1.817e-04  t[s]:     85.61
	FillingsUpdate:  mu: -0.106883081  nElectrons: 3.000000  magneticMoment: [ Abs: 0.10225  Tot: +0.10000 ]
SCF: Cycle: 24   F: -7.047490401503001   dF: -4.647e-07   |Residual|: 9.959e-05   |deigs|: 1.447e-04  t[s]:     88.80
	FillingsUpdate:  mu: -0.106832140  nElectrons: 3.000000  magneticMoment: [ Abs: 0.10180  Tot: +0.10000 ]
SCF: Cycle: 25   F: -7.047490505021474   dF: -1.035e-07   |Residual|: 6.936e-05   |deigs|: 1.231e-04  t[s]:     92.14
	FillingsUpdate:  mu: -0.106775240  nElectrons: 3.000000  magneticMoment: [ Abs: 0.10152  Tot: +0.10000 ]
SCF: Cycle: 26   F: -7.047490562930816   dF: -5.791e-08   |Residual|: 4.383e-05   |deigs|: 1.035e-04  t[s]:     95.43
	FillingsUpdate:  mu: -0.106731974  nElectrons: 3.000000  magneticMoment: [ Abs: 0.10128  Tot: +0.10000 ]
SCF: Cycle: 27   F: -7.047490587400207   dF: -2.447e-08   |Residual|: 2.912e-05   |deigs|: 8.664e-05  t[s]:     98.69
	FillingsUpdate:  mu: -0.106719738  nElectrons: 3.000000  magneticMoment: [ Abs: 0.10103  Tot: +0.10000 ]
SCF: Cycle: 28   F: -7.047490584811234   dF: +2.589e-09   |Residual|: 2.424e-05   |deigs|: 5.597e-05  t[s]:    101.99
	FillingsUpdate:  mu: -0.106745237  nElectrons: 3.000000  magneticMoment: [ Abs: 0.10076  Tot: +0.10000 ]
SCF: Cycle: 29   F: -7.047490587523658   dF: -2.712e-09   |Residual|: 2.067e-05   |deigs|: 5.112e-05  t[s]:    105.34
	FillingsUpdate:  mu: -0.106775790  nElectrons: 3.000000  magneticMoment: [ Abs: 0.10047  Tot: +0.10000 ]
SCF: Cycle: 30   F: -7.047490595529267   dF: -8.006e-09   |Residual|: 1.752e-05   |deigs|: 4.600e-05  t[s]:    108.59
SCF: Converged (|Delta E|<1.000000e-08 for 2 iters).


# Ionic positions in lattice coordinates:
ion Li   0.000000000000000   0.000000000000000   0.000000000000000 0

# Forces in Lattice coordinates:
force Li  -0.000000000000000  -0.000000000000000   0.000000000000000 0

# Energy components:
   Eewald =       -1.3368908222468645
       EH =        2.1949882236744407
     Eloc =       -7.5332039187657553
      Enl =       -3.6005438114244841
   Epulay =       -0.0000013080581827
      Exc =       -1.5304830407325660
       KE =        4.7586451794598341
-------------------------------------
     Etot =       -7.0474894980935767
       TS =        0.0000010974356905
-------------------------------------
        F =       -7.0474905955292675

IonicMinimize: Iter:   0  F: -7.047490595529267  |grad|_K:  0.000e+00  t[s]:    108.73
IonicMinimize: Converged (|grad|_K<1.000000e-04).

#--- Lowdin population analysis ---
# oxidation-state Li +2.106
# magnetic-moments Li +0.092

End date and time: Sat Feb  5 23:02:37 2022  (Duration: 0-0:01:48.75)
Done!
scale=4
magnetization=0.1
--------------------------------------------------------------------------
The library attempted to open the following supporting CUDA libraries,
but each of them failed.  CUDA-aware support is disabled.
libcuda.so.1: cannot open shared object file: No such file or directory
libcuda.dylib: cannot open shared object file: No such file or directory
/usr/lib64/libcuda.so.1: cannot open shared object file: No such file or directory
/usr/lib64/libcuda.dylib: cannot open shared object file: No such file or directory
If you are not interested in CUDA-aware support, then run with
--mca opal_warn_on_missing_libcuda 0 to suppress this message.  If you are interested
in CUDA-aware support, then try setting LD_LIBRARY_PATH to the location
of libcuda.so.1 to get passed this issue.
--------------------------------------------------------------------------
--------------------------------------------------------------------------
No OpenFabrics connection schemes reported that they were able to be
used on a specific port.  As such, the openib BTL (OpenFabrics
support) will be disabled for this port.

  Local host:           d-4-6-3
  Local device:         mlx5_1
  Local port:           1
  CPCs attempted:       rdmacm, udcm
--------------------------------------------------------------------------

*************** JDFTx 1.6.0 (git hash 42ebbcc2) ***************

Start date and time: Sat Feb  5 23:02:38 2022
Executable jdftx with command-line: -i Alkali.in
Running on hosts (process indices):  d-4-6-3 (0-18)
Divided in process groups (process indices):  0 (0)  1 (1)  2 (2)  3 (3)  4 (4)  5 (5)  6 (6)  7 (7)  8 (8)  9 (9)  10 (10)  11 (11)  12 (12)  13 (13)  14 (14)  15 (15)  16 (16)  17 (17)  18 (18)
Resource initialization completed at t[s]:      0.00
Run totals: 19 processes, 48 threads, 0 GPUs


Input parsed successfully to the following command list (including defaults):

basis kpoint-dependent
coords-type Lattice
core-overlap-check vector
coulomb-interaction Slab 001
davidson-band-ratio 1.1
dump End None
dump-name $INPUT.$VAR
elec-cutoff 20
elec-eigen-algo Davidson
elec-ex-corr gga-PBE
elec-initial-magnetization 0.100000 yes
elec-smearing Fermi 1e-05
electronic-minimize  \
	dirUpdateScheme      FletcherReeves \
	linminMethod         DirUpdateRecommended \
	nIterations          100 \
	history              15 \
	knormThreshold       0 \
	energyDiffThreshold  1e-08 \
	nEnergyDiff          2 \
	alphaTstart          1 \
	alphaTmin            1e-10 \
	updateTestStepSize   yes \
	alphaTreduceFactor   0.1 \
	alphaTincreaseFactor 3 \
	nAlphaAdjustMax      3 \
	wolfeEnergy          0.0001 \
	wolfeGradient        0.9 \
	fdTest               no
electronic-scf  \
	nIterations	10000 \
	energyDiffThreshold	1e-08 \
	residualThreshold	1e-07 \
	mixFraction	0.5 \
	qMetric	0.8 \
	history	10 \
	nEigSteps	2 \
	eigDiffThreshold	1e-08 \
	mixedVariable	Density \
	qKerker	0.8 \
	qKappa	-1 \
	verbose	no \
	mixFractionMag	1.5
exchange-regularization WignerSeitzTruncated
fluid None
fluid-ex-corr (null) lda-PZ
fluid-gummel-loop 10 1.000000e-05
fluid-minimize  \
	dirUpdateScheme      PolakRibiere \
	linminMethod         DirUpdateRecommended \
	nIterations          100 \
	history              15 \
	knormThreshold       0 \
	energyDiffThreshold  0 \
	nEnergyDiff          2 \
	alphaTstart          1 \
	alphaTmin            1e-10 \
	updateTestStepSize   yes \
	alphaTreduceFactor   0.1 \
	alphaTincreaseFactor 3 \
	nAlphaAdjustMax      3 \
	wolfeEnergy          0.0001 \
	wolfeGradient        0.9 \
	fdTest               no
fluid-solvent H2O 55.338 ScalarEOS \
	epsBulk 78.4 \
	pMol 0.92466 \
	epsInf 1.77 \
	Pvap 1.06736e-10 \
	sigmaBulk 4.62e-05 \
	Rvdw 2.61727 \
	Res 1.42 \
	tauNuc 343133 \
	poleEl 15 7 1
forces-output-coords Positions
ion Li   0.000000000000000   0.000000000000000   0.000000000000000 0
ion-species SG15/$ID_ONCV_PBE.upf
ion-width 0
ionic-minimize  \
	dirUpdateScheme      L-BFGS \
	linminMethod         DirUpdateRecommended \
	nIterations          0 \
	history              15 \
	knormThreshold       0.0001 \
	energyDiffThreshold  1e-06 \
	nEnergyDiff          2 \
	alphaTstart          1 \
	alphaTmin            1e-10 \
	updateTestStepSize   yes \
	alphaTreduceFactor   0.1 \
	alphaTincreaseFactor 3 \
	nAlphaAdjustMax      3 \
	wolfeEnergy          0.0001 \
	wolfeGradient        0.9 \
	fdTest               no
kpoint   0.000000000000   0.000000000000   0.000000000000  1.00000000000000
kpoint-folding 12 12 1 
latt-move-scale 1 1 1
latt-scale 4 4 1 
lattice  \
	   4.727486978767153   -2.363743489383575    0.000000000000000  \
	  -0.000000000000000    4.094123819672498    0.000000000000000  \
	   0.000000000000000    0.000000000000000   40.000000000000000 
lattice-minimize  \
	dirUpdateScheme      L-BFGS \
	linminMethod         DirUpdateRecommended \
	nIterations          0 \
	history              15 \
	knormThreshold       0 \
	energyDiffThreshold  1e-06 \
	nEnergyDiff          2 \
	alphaTstart          1 \
	alphaTmin            1e-10 \
	updateTestStepSize   yes \
	alphaTreduceFactor   0.1 \
	alphaTincreaseFactor 3 \
	nAlphaAdjustMax      3 \
	wolfeEnergy          0.0001 \
	wolfeGradient        0.9 \
	fdTest               no
lcao-params -1 1e-06 1e-05
pcm-variant GLSSA13
spintype z-spin
subspace-rotation-factor 1 yes
symmetries automatic
symmetry-threshold 0.0001



---------- Setting up symmetries ----------

Found 24 point-group symmetries of the bravais lattice
Found 24 space-group symmetries with basis
Applied RMS atom displacement 0 bohrs to make symmetries exact.

---------- Initializing the Grid ----------
R = 
[      18.9099     -9.45497            0  ]
[            0      16.3765            0  ]
[            0            0           40  ]
unit cell volume = 12387.1
G =
[   0.332269   0.191835         -0  ]
[          0   0.383671         -0  ]
[         -0         -0    0.15708  ]
Minimum fftbox size, Smin = [  80  80  164  ]
Chosen fftbox size, S = [  80  80  168  ]

---------- Exchange Correlation functional ----------
Initalized PBE GGA exchange.
Initalized PBE GGA correlation.

---------- Setting up pseudopotentials ----------
Width of ionic core gaussian charges (only for fluid interactions / plotting) set to 0

Reading pseudopotential file '/home/gridsan/aligho/DFT/build-Nov24/pseudopotentials/SG15/Li_ONCV_PBE.upf':
  'Li' pseudopotential, 'PBE' functional
  Generated using ONCVPSP code by D. R. Hamann
  Author: Martin Schlipf and Francois Gygi  Date: 150915.
  3 valence electrons, 2 orbitals, 4 projectors, 1328 radial grid points, with lMax = 1
  Transforming local potential to a uniform radial grid of dG=0.02 with 1489 points.
  Transforming nonlocal projectors to a uniform radial grid of dG=0.02 with 432 points.
    1S    l: 0   occupation:  2.0   eigenvalue: -1.905623
    2S    l: 0   occupation:  1.0   eigenvalue: -0.105624
  Transforming atomic orbitals to a uniform radial grid of dG=0.02 with 432 points.
  WARNING: large normalization error in atomic orbital 1s (integral: 0.000000).
  Core radius for overlap checks: 1.63 bohrs.
  Reading pulay file /home/gridsan/aligho/DFT/build-Nov24/pseudopotentials/SG15/Li_ONCV_PBE.pulay ... using dE_dnG = -1.230239e-02 computed for Ecut = 20.

Initialized 1 species with 1 total atoms.

Folded 1 k-points by 12x12x1 to 144 k-points.

---------- Setting up k-points, bands, fillings ----------
Reduced to 19 k-points under symmetry. 
Computing the number of bands and number of electrons
Calculating initial fillings.
nElectrons:   3.000000   nBands: 3   nStates: 38

----- Setting up reduced wavefunction bases (one per k-point) -----
average nbasis = 52924.021 , ideal nbasis = 52918.836

---------- Setting up coulomb interaction ----------
Initialized slab truncation along lattice direction 001

---------- Setting up 2D ewald sum ----------
Optimum gaussian width for ewald sums = 10.498040 bohr.
Real space sums over 289 unit cells with max indices [  8  8  0  ]
Reciprocal space sums over 81 terms with max indices [  4  4  0  ]

---------- Allocating electronic variables ----------
Initializing wave functions:  linear combination of atomic orbitals
Note: number of bands (3) exceeds available atomic orbitals (2)
Li pseudo-atom occupations:   s ( 2 1 )
[d-4-6-3:12651] 18 more processes have sent help message help-mpi-common-cuda.txt / dlopen failed
[d-4-6-3:12651] Set MCA parameter "orte_base_help_aggregate" to 0 to see all help / error messages
[d-4-6-3:12651] 18 more processes have sent help message help-mpi-btl-openib-cpc-base.txt / no cpcs for port
	FillingsUpdate:  mu: +0.361037741  nElectrons: 3.000000  magneticMoment: [ Abs: 0.10571  Tot: +0.10000 ]
LCAOMinimize: Iter:   0  F: -1.3116548358130462  |grad|_K:  4.095e-05  alpha:  1.000e+00
	FillingsUpdate:  mu: +0.361037248  nElectrons: 3.000000  magneticMoment: [ Abs: 0.10571  Tot: +0.10000 ]
LCAOMinimize: Iter:   1  F: -1.3116551393419280  |grad|_K:  9.068e-08  alpha:  1.059e+00  linmin: -6.544e-03  cgtest:  2.886e-02  t[s]:     12.77
LCAOMinimize: Encountered beta<0, resetting CG.
LCAOMinimize: 	Step increased F by 2.020606e-14, reducing alpha to 4.403228e-02.
	FillingsUpdate:  mu: +0.361037248  nElectrons: 3.000000  magneticMoment: [ Abs: 0.10571  Tot: +0.10000 ]
LCAOMinimize: Iter:   2  F: -1.3116551393425480  |grad|_K:  8.677e-08  alpha:  4.403e-02  linmin: -1.097e-02  cgtest:  1.000e+00  t[s]:     17.88
LCAOMinimize: Encountered beta<0, resetting CG.
LCAOMinimize: Converged (|Delta F|<1.000000e-06 for 2 iters).


---- Citations for features of the code used in this run ----

   Software package:
      R. Sundararaman, K. Letchworth-Weaver, K.A. Schwarz, D. Gunceler, Y. Ozhabes and T.A. Arias, 'JDFTx: software for joint density-functional theory', SoftwareX 6, 278 (2017)

   gga-PBE exchange-correlation functional:
      J.P. Perdew, K. Burke and M. Ernzerhof, Phys. Rev. Lett. 77, 3865 (1996)

   Pseudopotentials:
      M Schlipf and F Gygi, Comput. Phys. Commun. 196, 36 (2015)

   Truncated Coulomb potentials:
      R. Sundararaman and T.A. Arias, Phys. Rev. B 87, 165122 (2013)

This list may not be complete. Please suggest additional citations or
report any other bugs at https://github.com/shankar1729/jdftx/issues

Initialization completed successfully at t[s]:     18.02


-------- Electronic minimization -----------
Will mix electronic density at each iteration.
	FillingsUpdate:  mu: +0.361037248  nElectrons: 3.000000  magneticMoment: [ Abs: 0.10571  Tot: +0.10000 ]
	FillingsUpdate:  mu: -0.613304697  nElectrons: 3.000000  magneticMoment: [ Abs: 0.10571  Tot: +0.10000 ]
SCF: Cycle:  0   F: -6.867949731030259   dF: -5.556e+00   |Residual|: 1.229e+00   |deigs|: 4.155e+00  t[s]:     23.66
	FillingsUpdate:  mu: -0.496272320  nElectrons: 3.000000  magneticMoment: [ Abs: 0.17180  Tot: +0.10000 ]
SCF: Cycle:  1   F: -6.913745643292252   dF: -4.580e-02   |Residual|: 7.597e-01   |deigs|: 2.753e-01  t[s]:     28.27
	FillingsUpdate:  mu: -0.226675261  nElectrons: 3.000000  magneticMoment: [ Abs: 0.22072  Tot: +0.10000 ]
SCF: Cycle:  2   F: -7.038119581498706   dF: -1.244e-01   |Residual|: 3.160e-01   |deigs|: 7.146e-01  t[s]:     32.91
	FillingsUpdate:  mu: -0.268597851  nElectrons: 3.000000  magneticMoment: [ Abs: 0.24223  Tot: +0.10000 ]
SCF: Cycle:  3   F: -7.038466915214268   dF: -3.473e-04   |Residual|: 1.839e-01   |deigs|: 8.020e-02  t[s]:     37.73
	FillingsUpdate:  mu: -0.237544033  nElectrons: 3.000000  magneticMoment: [ Abs: 0.24810  Tot: +0.10000 ]
SCF: Cycle:  4   F: -7.034206127654550   dF: +4.261e-03   |Residual|: 1.098e-01   |deigs|: 2.834e-02  t[s]:     42.69
	FillingsUpdate:  mu: -0.227075578  nElectrons: 3.000000  magneticMoment: [ Abs: 0.23470  Tot: +0.10000 ]
SCF: Cycle:  5   F: -7.036148653394255   dF: -1.943e-03   |Residual|: 9.411e-02   |deigs|: 2.352e-02  t[s]:     47.67
	FillingsUpdate:  mu: -0.208509974  nElectrons: 3.000000  magneticMoment: [ Abs: 0.20699  Tot: +0.10000 ]
SCF: Cycle:  6   F: -7.039516431104532   dF: -3.368e-03   |Residual|: 2.322e-02   |deigs|: 5.486e-02  t[s]:     52.73
	FillingsUpdate:  mu: -0.176914812  nElectrons: 3.000000  magneticMoment: [ Abs: 0.14815  Tot: +0.10000 ]
SCF: Cycle:  7   F: -7.042409401270922   dF: -2.893e-03   |Residual|: 1.194e-01   |deigs|: 7.446e-02  t[s]:     57.92
	FillingsUpdate:  mu: -0.175683114  nElectrons: 3.000000  magneticMoment: [ Abs: 0.16580  Tot: +0.10000 ]
SCF: Cycle:  8   F: -7.043177152033794   dF: -7.678e-04   |Residual|: 4.282e-02   |deigs|: 2.439e-02  t[s]:     63.26
	FillingsUpdate:  mu: -0.182622205  nElectrons: 3.000000  magneticMoment: [ Abs: 0.21549  Tot: +0.10000 ]
SCF: Cycle:  9   F: -7.043137646728384   dF: +3.951e-05   |Residual|: 9.366e-02   |deigs|: 5.903e-02  t[s]:     68.69
	FillingsUpdate:  mu: -0.175284576  nElectrons: 3.000000  magneticMoment: [ Abs: 0.17800  Tot: +0.10000 ]
SCF: Cycle: 10   F: -7.043650759248303   dF: -5.131e-04   |Residual|: 7.004e-02   |deigs|: 7.027e-03  t[s]:     74.25
	FillingsUpdate:  mu: -0.157727409  nElectrons: 3.000000  magneticMoment: [ Abs: 0.44867  Tot: +0.10000 ]
SCF: Cycle: 11   F: -7.043265063118460   dF: +3.857e-04   |Residual|: 5.301e-02   |deigs|: 4.335e-02  t[s]:     79.80
	FillingsUpdate:  mu: -0.150128087  nElectrons: 3.000000  magneticMoment: [ Abs: 0.23665  Tot: +0.10000 ]
SCF: Cycle: 12   F: -7.044135766324958   dF: -8.707e-04   |Residual|: 1.399e-02   |deigs|: 1.195e-02  t[s]:     85.28
	FillingsUpdate:  mu: -0.135547521  nElectrons: 3.000000  magneticMoment: [ Abs: 0.21980  Tot: +0.10000 ]
SCF: Cycle: 13   F: -7.044409492937134   dF: -2.737e-04   |Residual|: 7.923e-03   |deigs|: 2.157e-02  t[s]:     90.75
	FillingsUpdate:  mu: -0.122110761  nElectrons: 3.000000  magneticMoment: [ Abs: 0.17596  Tot: +0.10000 ]
SCF: Cycle: 14   F: -7.044523899337529   dF: -1.144e-04   |Residual|: 6.165e-03   |deigs|: 1.626e-02  t[s]:     96.28
	FillingsUpdate:  mu: -0.115824556  nElectrons: 3.000000  magneticMoment: [ Abs: 0.15435  Tot: +0.10000 ]
SCF: Cycle: 15   F: -7.044538238400182   dF: -1.434e-05   |Residual|: 4.845e-03   |deigs|: 5.776e-03  t[s]:    101.84
	FillingsUpdate:  mu: -0.113462414  nElectrons: 3.000000  magneticMoment: [ Abs: 0.13494  Tot: +0.10000 ]
SCF: Cycle: 16   F: -7.044545615058253   dF: -7.377e-06   |Residual|: 3.595e-03   |deigs|: 1.949e-03  t[s]:    107.37
	FillingsUpdate:  mu: -0.110673682  nElectrons: 3.000000  magneticMoment: [ Abs: 0.12692  Tot: +0.10000 ]
SCF: Cycle: 17   F: -7.044556269038258   dF: -1.065e-05   |Residual|: 2.756e-03   |deigs|: 3.041e-03  t[s]:    112.94
	FillingsUpdate:  mu: -0.107253466  nElectrons: 3.000000  magneticMoment: [ Abs: 0.12471  Tot: +0.10000 ]
SCF: Cycle: 18   F: -7.044550657417331   dF: +5.612e-06   |Residual|: 1.974e-03   |deigs|: 3.508e-03  t[s]:    118.42
	FillingsUpdate:  mu: -0.106028293  nElectrons: 3.000000  magneticMoment: [ Abs: 0.11827  Tot: +0.10000 ]
SCF: Cycle: 19   F: -7.044556159267377   dF: -5.502e-06   |Residual|: 1.487e-03   |deigs|: 1.265e-03  t[s]:    124.01
	FillingsUpdate:  mu: -0.104719233  nElectrons: 3.000000  magneticMoment: [ Abs: 0.11340  Tot: +0.10000 ]
SCF: Cycle: 20   F: -7.044584917342516   dF: -2.876e-05   |Residual|: 9.785e-04   |deigs|: 1.278e-03  t[s]:    129.60
	FillingsUpdate:  mu: -0.104968348  nElectrons: 3.000000  magneticMoment: [ Abs: 0.10833  Tot: +0.10000 ]
SCF: Cycle: 21   F: -7.044597813907710   dF: -1.290e-05   |Residual|: 7.458e-04   |deigs|: 3.098e-04  t[s]:    135.17
	FillingsUpdate:  mu: -0.105389636  nElectrons: 3.000000  magneticMoment: [ Abs: 0.10605  Tot: +0.10000 ]
SCF: Cycle: 22   F: -7.044602175888339   dF: -4.362e-06   |Residual|: 5.069e-04   |deigs|: 3.600e-04  t[s]:    140.72
	FillingsUpdate:  mu: -0.105537924  nElectrons: 3.000000  magneticMoment: [ Abs: 0.10417  Tot: +0.10000 ]
SCF: Cycle: 23   F: -7.044609113924507   dF: -6.938e-06   |Residual|: 3.485e-04   |deigs|: 1.616e-04  t[s]:    146.25
	FillingsUpdate:  mu: -0.105612306  nElectrons: 3.000000  magneticMoment: [ Abs: 0.10299  Tot: +0.10000 ]
SCF: Cycle: 24   F: -7.044613305486840   dF: -4.192e-06   |Residual|: 2.542e-04   |deigs|: 1.113e-04  t[s]:    151.76
	FillingsUpdate:  mu: -0.105563936  nElectrons: 3.000000  magneticMoment: [ Abs: 0.10216  Tot: +0.10000 ]
SCF: Cycle: 25   F: -7.044614769608871   dF: -1.464e-06   |Residual|: 1.723e-04   |deigs|: 8.971e-05  t[s]:    157.25
	FillingsUpdate:  mu: -0.105496627  nElectrons: 3.000000  magneticMoment: [ Abs: 0.10118  Tot: +0.10000 ]
SCF: Cycle: 26   F: -7.044615440179860   dF: -6.706e-07   |Residual|: 7.894e-05   |deigs|: 8.634e-05  t[s]:    162.74
	FillingsUpdate:  mu: -0.105499330  nElectrons: 3.000000  magneticMoment: [ Abs: 0.10076  Tot: +0.10000 ]
SCF: Cycle: 27   F: -7.044615555562960   dF: -1.154e-07   |Residual|: 5.736e-05   |deigs|: 7.556e-05  t[s]:    168.21
	FillingsUpdate:  mu: -0.105512577  nElectrons: 3.000000  magneticMoment: [ Abs: 0.10062  Tot: +0.10000 ]
SCF: Cycle: 28   F: -7.044615643458053   dF: -8.790e-08   |Residual|: 4.269e-05   |deigs|: 7.583e-05  t[s]:    173.87
	FillingsUpdate:  mu: -0.105546517  nElectrons: 3.000000  magneticMoment: [ Abs: 0.10044  Tot: +0.10000 ]
SCF: Cycle: 29   F: -7.044615672067805   dF: -2.861e-08   |Residual|: 2.679e-05   |deigs|: 8.211e-05  t[s]:    179.37
	FillingsUpdate:  mu: -0.105566325  nElectrons: 3.000000  magneticMoment: [ Abs: 0.10038  Tot: +0.10000 ]
SCF: Cycle: 30   F: -7.044615712443004   dF: -4.038e-08   |Residual|: 1.761e-05   |deigs|: 5.901e-05  t[s]:    184.91
	FillingsUpdate:  mu: -0.105575610  nElectrons: 3.000000  magneticMoment: [ Abs: 0.10028  Tot: +0.10000 ]
SCF: Cycle: 31   F: -7.044615700460884   dF: +1.198e-08   |Residual|: 1.255e-05   |deigs|: 4.449e-05  t[s]:    190.46
	FillingsUpdate:  mu: -0.105582386  nElectrons: 3.000000  magneticMoment: [ Abs: 0.10019  Tot: +0.10000 ]
SCF: Cycle: 32   F: -7.044615708193870   dF: -7.733e-09   |Residual|: 8.821e-06   |deigs|: 3.635e-05  t[s]:    195.94
	FillingsUpdate:  mu: -0.105586685  nElectrons: 3.000000  magneticMoment: [ Abs: 0.10014  Tot: +0.10000 ]
SCF: Cycle: 33   F: -7.044615725355012   dF: -1.716e-08   |Residual|: 6.162e-06   |deigs|: 2.937e-05  t[s]:    201.43
	FillingsUpdate:  mu: -0.105590419  nElectrons: 3.000000  magneticMoment: [ Abs: 0.10010  Tot: +0.10000 ]
SCF: Cycle: 34   F: -7.044615728728922   dF: -3.374e-09   |Residual|: 4.401e-06   |deigs|: 2.389e-05  t[s]:    206.95
	FillingsUpdate:  mu: -0.105591894  nElectrons: 3.000000  magneticMoment: [ Abs: 0.10008  Tot: +0.10000 ]
SCF: Cycle: 35   F: -7.044615732959578   dF: -4.231e-09   |Residual|: 3.544e-06   |deigs|: 1.940e-05  t[s]:    212.53
SCF: Converged (|Delta E|<1.000000e-08 for 2 iters).


# Ionic positions in lattice coordinates:
ion Li   0.000000000000000   0.000000000000000   0.000000000000000 0

# Forces in Lattice coordinates:
force Li  -0.000000000000000  -0.000000000000000   0.000000000000000 0

# Energy components:
   Eewald =       -1.0026681166851483
       EH =        2.5454952975745377
     Eloc =       -8.2230409665448416
      Enl =       -3.6031926564131069
   Epulay =        0.0000051497655618
      Exc =       -1.5341158446453618
       KE =        4.7729025567277024
-------------------------------------
     Etot =       -7.0446145802206566
       TS =        0.0000011527389214
-------------------------------------
        F =       -7.0446157329595778

IonicMinimize: Iter:   0  F: -7.044615732959578  |grad|_K:  0.000e+00  t[s]:    212.77
IonicMinimize: Converged (|grad|_K<1.000000e-04).

#--- Lowdin population analysis ---
# oxidation-state Li +2.082
# magnetic-moments Li +0.093

End date and time: Sat Feb  5 23:06:11 2022  (Duration: 0-0:03:32.80)
Done!
