The alkali metal is Li
scale=2
magnetization=0.2
--------------------------------------------------------------------------
The library attempted to open the following supporting CUDA libraries,
but each of them failed.  CUDA-aware support is disabled.
libcuda.so.1: cannot open shared object file: No such file or directory
libcuda.dylib: cannot open shared object file: No such file or directory
/usr/lib64/libcuda.so.1: cannot open shared object file: No such file or directory
/usr/lib64/libcuda.dylib: cannot open shared object file: No such file or directory
If you are not interested in CUDA-aware support, then run with
--mca opal_warn_on_missing_libcuda 0 to suppress this message.  If you are interested
in CUDA-aware support, then try setting LD_LIBRARY_PATH to the location
of libcuda.so.1 to get passed this issue.
--------------------------------------------------------------------------
--------------------------------------------------------------------------
No OpenFabrics connection schemes reported that they were able to be
used on a specific port.  As such, the openib BTL (OpenFabrics
support) will be disabled for this port.

  Local host:           d-17-2-2
  Local device:         mlx5_1
  Local port:           1
  CPCs attempted:       rdmacm, udcm
--------------------------------------------------------------------------

*************** JDFTx 1.6.0 (git hash 42ebbcc2) ***************

Start date and time: Sat Feb  5 22:59:55 2022
Executable jdftx with command-line: -i Alkali.in
Running on hosts (process indices):  d-17-2-2 (0-18)
Divided in process groups (process indices):  0 (0)  1 (1)  2 (2)  3 (3)  4 (4)  5 (5)  6 (6)  7 (7)  8 (8)  9 (9)  10 (10)  11 (11)  12 (12)  13 (13)  14 (14)  15 (15)  16 (16)  17 (17)  18 (18)
Resource initialization completed at t[s]:      0.00
Run totals: 19 processes, 48 threads, 0 GPUs


Input parsed successfully to the following command list (including defaults):

basis kpoint-dependent
coords-type Lattice
core-overlap-check vector
coulomb-interaction Slab 001
davidson-band-ratio 1.1
dump End None
dump-name $INPUT.$VAR
elec-cutoff 20
elec-eigen-algo Davidson
elec-ex-corr gga-PBE
elec-initial-magnetization 0.200000 yes
elec-smearing Fermi 1e-05
electronic-minimize  \
	dirUpdateScheme      FletcherReeves \
	linminMethod         DirUpdateRecommended \
	nIterations          100 \
	history              15 \
	knormThreshold       0 \
	energyDiffThreshold  1e-08 \
	nEnergyDiff          2 \
	alphaTstart          1 \
	alphaTmin            1e-10 \
	updateTestStepSize   yes \
	alphaTreduceFactor   0.1 \
	alphaTincreaseFactor 3 \
	nAlphaAdjustMax      3 \
	wolfeEnergy          0.0001 \
	wolfeGradient        0.9 \
	fdTest               no
electronic-scf  \
	nIterations	10000 \
	energyDiffThreshold	1e-08 \
	residualThreshold	1e-07 \
	mixFraction	0.5 \
	qMetric	0.8 \
	history	10 \
	nEigSteps	2 \
	eigDiffThreshold	1e-08 \
	mixedVariable	Density \
	qKerker	0.8 \
	qKappa	-1 \
	verbose	no \
	mixFractionMag	1.5
exchange-regularization WignerSeitzTruncated
fluid None
fluid-ex-corr (null) lda-PZ
fluid-gummel-loop 10 1.000000e-05
fluid-minimize  \
	dirUpdateScheme      PolakRibiere \
	linminMethod         DirUpdateRecommended \
	nIterations          100 \
	history              15 \
	knormThreshold       0 \
	energyDiffThreshold  0 \
	nEnergyDiff          2 \
	alphaTstart          1 \
	alphaTmin            1e-10 \
	updateTestStepSize   yes \
	alphaTreduceFactor   0.1 \
	alphaTincreaseFactor 3 \
	nAlphaAdjustMax      3 \
	wolfeEnergy          0.0001 \
	wolfeGradient        0.9 \
	fdTest               no
fluid-solvent H2O 55.338 ScalarEOS \
	epsBulk 78.4 \
	pMol 0.92466 \
	epsInf 1.77 \
	Pvap 1.06736e-10 \
	sigmaBulk 4.62e-05 \
	Rvdw 2.61727 \
	Res 1.42 \
	tauNuc 343133 \
	poleEl 15 7 1
forces-output-coords Positions
ion Li   0.000000000000000   0.000000000000000   0.000000000000000 0
ion-species SG15/$ID_ONCV_PBE.upf
ion-width 0
ionic-minimize  \
	dirUpdateScheme      L-BFGS \
	linminMethod         DirUpdateRecommended \
	nIterations          0 \
	history              15 \
	knormThreshold       0.0001 \
	energyDiffThreshold  1e-06 \
	nEnergyDiff          2 \
	alphaTstart          1 \
	alphaTmin            1e-10 \
	updateTestStepSize   yes \
	alphaTreduceFactor   0.1 \
	alphaTincreaseFactor 3 \
	nAlphaAdjustMax      3 \
	wolfeEnergy          0.0001 \
	wolfeGradient        0.9 \
	fdTest               no
kpoint   0.000000000000   0.000000000000   0.000000000000  1.00000000000000
kpoint-folding 12 12 1 
latt-move-scale 1 1 1
latt-scale 2 2 1 
lattice  \
	   4.727486978767153   -2.363743489383575    0.000000000000000  \
	  -0.000000000000000    4.094123819672498    0.000000000000000  \
	   0.000000000000000    0.000000000000000   40.000000000000000 
lattice-minimize  \
	dirUpdateScheme      L-BFGS \
	linminMethod         DirUpdateRecommended \
	nIterations          0 \
	history              15 \
	knormThreshold       0 \
	energyDiffThreshold  1e-06 \
	nEnergyDiff          2 \
	alphaTstart          1 \
	alphaTmin            1e-10 \
	updateTestStepSize   yes \
	alphaTreduceFactor   0.1 \
	alphaTincreaseFactor 3 \
	nAlphaAdjustMax      3 \
	wolfeEnergy          0.0001 \
	wolfeGradient        0.9 \
	fdTest               no
lcao-params -1 1e-06 1e-05
pcm-variant GLSSA13
spintype z-spin
subspace-rotation-factor 1 yes
symmetries automatic
symmetry-threshold 0.0001



---------- Setting up symmetries ----------

Found 24 point-group symmetries of the bravais lattice
Found 24 space-group symmetries with basis
Applied RMS atom displacement 0 bohrs to make symmetries exact.

---------- Initializing the Grid ----------
R = 
[      9.45497     -4.72749            0  ]
[            0      8.18825            0  ]
[            0            0           40  ]
unit cell volume = 3096.79
G =
[   0.664538   0.383671         -0  ]
[          0   0.767342         -0  ]
[         -0         -0    0.15708  ]
Minimum fftbox size, Smin = [  40  40  164  ]
Chosen fftbox size, S = [  40  40  168  ]

---------- Exchange Correlation functional ----------
Initalized PBE GGA exchange.
Initalized PBE GGA correlation.

---------- Setting up pseudopotentials ----------
Width of ionic core gaussian charges (only for fluid interactions / plotting) set to 0

Reading pseudopotential file '/home/gridsan/aligho/DFT/build-Nov24/pseudopotentials/SG15/Li_ONCV_PBE.upf':
  'Li' pseudopotential, 'PBE' functional
  Generated using ONCVPSP code by D. R. Hamann
  Author: Martin Schlipf and Francois Gygi  Date: 150915.
  3 valence electrons, 2 orbitals, 4 projectors, 1328 radial grid points, with lMax = 1
  Transforming local potential to a uniform radial grid of dG=0.02 with 1489 points.
  Transforming nonlocal projectors to a uniform radial grid of dG=0.02 with 432 points.
    1S    l: 0   occupation:  2.0   eigenvalue: -1.905623
    2S    l: 0   occupation:  1.0   eigenvalue: -0.105624
  Transforming atomic orbitals to a uniform radial grid of dG=0.02 with 432 points.
  WARNING: large normalization error in atomic orbital 1s (integral: 0.000000).
  Core radius for overlap checks: 1.63 bohrs.
  Reading pulay file /home/gridsan/aligho/DFT/build-Nov24/pseudopotentials/SG15/Li_ONCV_PBE.pulay ... using dE_dnG = -1.230239e-02 computed for Ecut = 20.

Initialized 1 species with 1 total atoms.

Folded 1 k-points by 12x12x1 to 144 k-points.

---------- Setting up k-points, bands, fillings ----------
Reduced to 19 k-points under symmetry. 
Computing the number of bands and number of electrons
Calculating initial fillings.
nElectrons:   3.000000   nBands: 3   nStates: 38

----- Setting up reduced wavefunction bases (one per k-point) -----
average nbasis = 13230.521 , ideal nbasis = 13229.709

---------- Setting up coulomb interaction ----------
Initialized slab truncation along lattice direction 001

---------- Setting up 2D ewald sum ----------
Optimum gaussian width for ewald sums = 5.249020 bohr.
Real space sums over 289 unit cells with max indices [  8  8  0  ]
Reciprocal space sums over 81 terms with max indices [  4  4  0  ]

---------- Allocating electronic variables ----------
Initializing wave functions:  linear combination of atomic orbitals
Note: number of bands (3) exceeds available atomic orbitals (2)
Li pseudo-atom occupations:   s ( 2 1 )
	FillingsUpdate:  mu: +0.329728212  nElectrons: 3.000000  magneticMoment: [ Abs: 0.20172  Tot: +0.20000 ]
LCAOMinimize: Iter:   0  F: -1.1771984458061893  |grad|_K:  7.174e-05  alpha:  1.000e+00
	FillingsUpdate:  mu: +0.329726390  nElectrons: 3.000000  magneticMoment: [ Abs: 0.20172  Tot: +0.20000 ]
LCAOMinimize: Iter:   1  F: -1.1771993642714575  |grad|_K:  1.715e-06  alpha:  1.044e+00  linmin: -1.941e-03  cgtest:  2.896e-02  t[s]:      3.97
LCAOMinimize: Encountered beta<0, resetting CG.
[d-17-2-2:64528] 18 more processes have sent help message help-mpi-common-cuda.txt / dlopen failed
[d-17-2-2:64528] Set MCA parameter "orte_base_help_aggregate" to 0 to see all help / error messages
[d-17-2-2:64528] 18 more processes have sent help message help-mpi-btl-openib-cpc-base.txt / no cpcs for port
	FillingsUpdate:  mu: +0.329726387  nElectrons: 3.000000  magneticMoment: [ Abs: 0.20172  Tot: +0.20000 ]
LCAOMinimize: Iter:   2  F: -1.1771993647770003  |grad|_K:  4.190e-08  alpha:  1.010e+00  linmin: -6.126e-03  cgtest:  1.567e-01  t[s]:      5.02
LCAOMinimize: Encountered beta<0, resetting CG.
LCAOMinimize: Converged (|Delta F|<1.000000e-06 for 2 iters).


---- Citations for features of the code used in this run ----

   Software package:
      R. Sundararaman, K. Letchworth-Weaver, K.A. Schwarz, D. Gunceler, Y. Ozhabes and T.A. Arias, 'JDFTx: software for joint density-functional theory', SoftwareX 6, 278 (2017)

   gga-PBE exchange-correlation functional:
      J.P. Perdew, K. Burke and M. Ernzerhof, Phys. Rev. Lett. 77, 3865 (1996)

   Pseudopotentials:
      M Schlipf and F Gygi, Comput. Phys. Commun. 196, 36 (2015)

   Truncated Coulomb potentials:
      R. Sundararaman and T.A. Arias, Phys. Rev. B 87, 165122 (2013)

This list may not be complete. Please suggest additional citations or
report any other bugs at https://github.com/shankar1729/jdftx/issues

Initialization completed successfully at t[s]:      5.08


-------- Electronic minimization -----------
Will mix electronic density at each iteration.
	FillingsUpdate:  mu: +0.329726387  nElectrons: 3.000000  magneticMoment: [ Abs: 0.20172  Tot: +0.20000 ]
	FillingsUpdate:  mu: -0.978791473  nElectrons: 3.000000  magneticMoment: [ Abs: 0.20172  Tot: +0.20000 ]
SCF: Cycle:  0   F: -6.826124370312369   dF: -5.649e+00   |Residual|: 1.172e+00   |deigs|: 4.170e+00  t[s]:      6.77
	FillingsUpdate:  mu: -0.866414336  nElectrons: 3.000000  magneticMoment: [ Abs: 0.33488  Tot: +0.20000 ]
SCF: Cycle:  1   F: -6.935882733529507   dF: -1.098e-01   |Residual|: 7.729e-01   |deigs|: 2.331e-01  t[s]:      8.07
	FillingsUpdate:  mu: -0.627190316  nElectrons: 3.000000  magneticMoment: [ Abs: 0.42396  Tot: +0.20000 ]
SCF: Cycle:  2   F: -7.050046493182632   dF: -1.142e-01   |Residual|: 4.184e-01   |deigs|: 7.825e-01  t[s]:      9.40
	FillingsUpdate:  mu: -0.655766003  nElectrons: 3.000000  magneticMoment: [ Abs: 0.37395  Tot: +0.20000 ]
SCF: Cycle:  3   F: -7.057564659864009   dF: -7.518e-03   |Residual|: 2.094e-01   |deigs|: 1.245e-01  t[s]:     10.78
	FillingsUpdate:  mu: -0.620597333  nElectrons: 3.000000  magneticMoment: [ Abs: 0.34937  Tot: +0.20000 ]
SCF: Cycle:  4   F: -7.056504791030960   dF: +1.060e-03   |Residual|: 5.177e-02   |deigs|: 3.650e-02  t[s]:     12.18
	FillingsUpdate:  mu: -0.560447507  nElectrons: 3.000000  magneticMoment: [ Abs: 0.32038  Tot: +0.20000 ]
SCF: Cycle:  5   F: -7.055488217216291   dF: +1.017e-03   |Residual|: 2.409e-01   |deigs|: 4.910e-02  t[s]:     13.60
	FillingsUpdate:  mu: -0.476837278  nElectrons: 3.000000  magneticMoment: [ Abs: 0.33802  Tot: +0.20000 ]
SCF: Cycle:  6   F: -7.060626875552322   dF: -5.139e-03   |Residual|: 8.240e-02   |deigs|: 1.379e-01  t[s]:     15.15
	FillingsUpdate:  mu: -0.416102048  nElectrons: 3.000000  magneticMoment: [ Abs: 0.28738  Tot: +0.20000 ]
SCF: Cycle:  7   F: -7.061424028925960   dF: -7.972e-04   |Residual|: 1.896e-01   |deigs|: 1.369e-01  t[s]:     16.71
	FillingsUpdate:  mu: -0.369940288  nElectrons: 3.000000  magneticMoment: [ Abs: 0.27544  Tot: +0.20000 ]
SCF: Cycle:  8   F: -7.064488347897339   dF: -3.064e-03   |Residual|: 8.659e-02   |deigs|: 7.815e-02  t[s]:     18.20
	FillingsUpdate:  mu: -0.320072919  nElectrons: 3.000000  magneticMoment: [ Abs: 0.51587  Tot: +0.20000 ]
SCF: Cycle:  9   F: -7.063590990196570   dF: +8.974e-04   |Residual|: 1.668e-01   |deigs|: 4.615e-02  t[s]:     19.77
	FillingsUpdate:  mu: -0.292196482  nElectrons: 3.000000  magneticMoment: [ Abs: 0.37286  Tot: +0.20000 ]
SCF: Cycle: 10   F: -7.065045764058545   dF: -1.455e-03   |Residual|: 1.268e-01   |deigs|: 3.640e-02  t[s]:     21.34
	FillingsUpdate:  mu: -0.250174604  nElectrons: 3.000000  magneticMoment: [ Abs: 0.29083  Tot: +0.20000 ]
SCF: Cycle: 11   F: -7.067153918761615   dF: -2.108e-03   |Residual|: 1.829e-02   |deigs|: 9.290e-02  t[s]:     22.85
	FillingsUpdate:  mu: -0.209706100  nElectrons: 3.000000  magneticMoment: [ Abs: 0.28424  Tot: +0.20000 ]
SCF: Cycle: 12   F: -7.067512545039761   dF: -3.586e-04   |Residual|: 1.352e-02   |deigs|: 3.774e-02  t[s]:     24.39
	FillingsUpdate:  mu: -0.170127496  nElectrons: 3.000000  magneticMoment: [ Abs: 0.26869  Tot: +0.20000 ]
SCF: Cycle: 13   F: -7.067743974903805   dF: -2.314e-04   |Residual|: 9.849e-03   |deigs|: 4.068e-02  t[s]:     25.98
	FillingsUpdate:  mu: -0.144721438  nElectrons: 3.000000  magneticMoment: [ Abs: 0.25299  Tot: +0.20000 ]
SCF: Cycle: 14   F: -7.067774435145219   dF: -3.046e-05   |Residual|: 8.426e-03   |deigs|: 2.636e-02  t[s]:     27.57
	FillingsUpdate:  mu: -0.128636445  nElectrons: 3.000000  magneticMoment: [ Abs: 0.24561  Tot: +0.20000 ]
SCF: Cycle: 15   F: -7.067822766072617   dF: -4.833e-05   |Residual|: 6.388e-03   |deigs|: 1.614e-02  t[s]:     29.09
	FillingsUpdate:  mu: -0.116729255  nElectrons: 3.000000  magneticMoment: [ Abs: 0.22778  Tot: +0.20000 ]
SCF: Cycle: 16   F: -7.067933087400765   dF: -1.103e-04   |Residual|: 3.700e-03   |deigs|: 1.098e-02  t[s]:     30.73
	FillingsUpdate:  mu: -0.115274155  nElectrons: 3.000000  magneticMoment: [ Abs: 0.21762  Tot: +0.20000 ]
SCF: Cycle: 17   F: -7.067997460455656   dF: -6.437e-05   |Residual|: 2.560e-03   |deigs|: 1.477e-03  t[s]:     32.23
	FillingsUpdate:  mu: -0.115204184  nElectrons: 3.000000  magneticMoment: [ Abs: 0.21076  Tot: +0.20000 ]
SCF: Cycle: 18   F: -7.068041722038953   dF: -4.426e-05   |Residual|: 1.536e-03   |deigs|: 6.402e-04  t[s]:     33.77
	FillingsUpdate:  mu: -0.114687051  nElectrons: 3.000000  magneticMoment: [ Abs: 0.20849  Tot: +0.20000 ]
SCF: Cycle: 19   F: -7.068055381281767   dF: -1.366e-05   |Residual|: 9.593e-04   |deigs|: 5.740e-04  t[s]:     35.28
	FillingsUpdate:  mu: -0.112087179  nElectrons: 3.000000  magneticMoment: [ Abs: 0.20828  Tot: +0.20000 ]
SCF: Cycle: 20   F: -7.068062650778860   dF: -7.269e-06   |Residual|: 4.962e-04   |deigs|: 2.550e-03  t[s]:     36.85
	FillingsUpdate:  mu: -0.111363194  nElectrons: 3.000000  magneticMoment: [ Abs: 0.20686  Tot: +0.20000 ]
SCF: Cycle: 21   F: -7.068063436354424   dF: -7.856e-07   |Residual|: 3.335e-04   |deigs|: 8.299e-04  t[s]:     38.36
	FillingsUpdate:  mu: -0.110701666  nElectrons: 3.000000  magneticMoment: [ Abs: 0.20590  Tot: +0.20000 ]
SCF: Cycle: 22   F: -7.068064356093227   dF: -9.197e-07   |Residual|: 2.288e-04   |deigs|: 7.685e-04  t[s]:     39.93
	FillingsUpdate:  mu: -0.110511244  nElectrons: 3.000000  magneticMoment: [ Abs: 0.20486  Tot: +0.20000 ]
SCF: Cycle: 23   F: -7.068065435414867   dF: -1.079e-06   |Residual|: 1.827e-04   |deigs|: 2.880e-04  t[s]:     41.49
	FillingsUpdate:  mu: -0.110230942  nElectrons: 3.000000  magneticMoment: [ Abs: 0.20318  Tot: +0.20000 ]
SCF: Cycle: 24   F: -7.068065699224992   dF: -2.638e-07   |Residual|: 1.638e-04   |deigs|: 3.494e-04  t[s]:     43.00
	FillingsUpdate:  mu: -0.110251346  nElectrons: 3.000000  magneticMoment: [ Abs: 0.20205  Tot: +0.20000 ]
SCF: Cycle: 25   F: -7.068065788622495   dF: -8.940e-08   |Residual|: 1.343e-04   |deigs|: 7.435e-05  t[s]:     44.52
	FillingsUpdate:  mu: -0.110298139  nElectrons: 3.000000  magneticMoment: [ Abs: 0.20094  Tot: +0.20000 ]
SCF: Cycle: 26   F: -7.068065711669708   dF: +7.695e-08   |Residual|: 9.684e-05   |deigs|: 1.191e-04  t[s]:     46.08
	FillingsUpdate:  mu: -0.110335417  nElectrons: 3.000000  magneticMoment: [ Abs: 0.20030  Tot: +0.20000 ]
SCF: Cycle: 27   F: -7.068065828082626   dF: -1.164e-07   |Residual|: 6.538e-05   |deigs|: 9.726e-05  t[s]:     47.64
	FillingsUpdate:  mu: -0.110381742  nElectrons: 3.000000  magneticMoment: [ Abs: 0.20008  Tot: +0.20000 ]
SCF: Cycle: 28   F: -7.068065851289519   dF: -2.321e-08   |Residual|: 4.457e-05   |deigs|: 9.562e-05  t[s]:     49.14
	FillingsUpdate:  mu: -0.110470034  nElectrons: 3.000000  magneticMoment: [ Abs: 0.20002  Tot: +0.20000 ]
SCF: Cycle: 29   F: -7.068065869229232   dF: -1.794e-08   |Residual|: 3.090e-05   |deigs|: 1.282e-04  t[s]:     50.62
	FillingsUpdate:  mu: -0.110546134  nElectrons: 3.000000  magneticMoment: [ Abs: 0.20000  Tot: +0.20000 ]
SCF: Cycle: 30   F: -7.068065882797780   dF: -1.357e-08   |Residual|: 2.244e-05   |deigs|: 1.141e-04  t[s]:     52.14
	FillingsUpdate:  mu: -0.110577926  nElectrons: 3.000000  magneticMoment: [ Abs: 0.20000  Tot: +0.20000 ]
SCF: Cycle: 31   F: -7.068065895548755   dF: -1.275e-08   |Residual|: 1.634e-05   |deigs|: 7.826e-05  t[s]:     53.71
	FillingsUpdate:  mu: -0.110597550  nElectrons: 3.000000  magneticMoment: [ Abs: 0.20000  Tot: +0.20000 ]
SCF: Cycle: 32   F: -7.068065901252349   dF: -5.704e-09   |Residual|: 1.406e-05   |deigs|: 6.341e-05  t[s]:     55.30
	FillingsUpdate:  mu: -0.110616075  nElectrons: 3.000000  magneticMoment: [ Abs: 0.20000  Tot: +0.20000 ]
SCF: Cycle: 33   F: -7.068065902795458   dF: -1.543e-09   |Residual|: 1.196e-05   |deigs|: 5.292e-05  t[s]:     56.84
SCF: Converged (|Delta E|<1.000000e-08 for 2 iters).


# Ionic positions in lattice coordinates:
ion Li   0.000000000000000   0.000000000000000   0.000000000000000 0

# Forces in Lattice coordinates:
force Li   0.000000000000000   0.000000000000000   0.000000000000000 0

# Energy components:
   Eewald =       -2.0053362333702967
       EH =        1.5283672240801245
     Eloc =       -6.1890997164116586
      Enl =       -3.5904935428528564
   Epulay =        0.0000032255226020
      Exc =       -1.5373823171632424
       KE =        4.7258759688600964
-------------------------------------
     Etot =       -7.0680653913352298
       TS =        0.0000005114602277
-------------------------------------
        F =       -7.0680659027954578

IonicMinimize: Iter:   0  F: -7.068065902795458  |grad|_K:  0.000e+00  t[s]:     56.91
IonicMinimize: Converged (|grad|_K<1.000000e-04).

#--- Lowdin population analysis ---
# oxidation-state Li +2.164
# magnetic-moments Li +0.139

End date and time: Sat Feb  5 23:00:52 2022  (Duration: 0-0:00:56.92)
Done!
scale=3
magnetization=0.2
--------------------------------------------------------------------------
The library attempted to open the following supporting CUDA libraries,
but each of them failed.  CUDA-aware support is disabled.
libcuda.so.1: cannot open shared object file: No such file or directory
libcuda.dylib: cannot open shared object file: No such file or directory
/usr/lib64/libcuda.so.1: cannot open shared object file: No such file or directory
/usr/lib64/libcuda.dylib: cannot open shared object file: No such file or directory
If you are not interested in CUDA-aware support, then run with
--mca opal_warn_on_missing_libcuda 0 to suppress this message.  If you are interested
in CUDA-aware support, then try setting LD_LIBRARY_PATH to the location
of libcuda.so.1 to get passed this issue.
--------------------------------------------------------------------------
--------------------------------------------------------------------------
No OpenFabrics connection schemes reported that they were able to be
used on a specific port.  As such, the openib BTL (OpenFabrics
support) will be disabled for this port.

  Local host:           d-17-2-2
  Local device:         mlx5_1
  Local port:           1
  CPCs attempted:       rdmacm, udcm
--------------------------------------------------------------------------

*************** JDFTx 1.6.0 (git hash 42ebbcc2) ***************

Start date and time: Sat Feb  5 23:00:53 2022
Executable jdftx with command-line: -i Alkali.in
Running on hosts (process indices):  d-17-2-2 (0-18)
Divided in process groups (process indices):  0 (0)  1 (1)  2 (2)  3 (3)  4 (4)  5 (5)  6 (6)  7 (7)  8 (8)  9 (9)  10 (10)  11 (11)  12 (12)  13 (13)  14 (14)  15 (15)  16 (16)  17 (17)  18 (18)
Resource initialization completed at t[s]:      0.00
Run totals: 19 processes, 48 threads, 0 GPUs


Input parsed successfully to the following command list (including defaults):

basis kpoint-dependent
coords-type Lattice
core-overlap-check vector
coulomb-interaction Slab 001
davidson-band-ratio 1.1
dump End None
dump-name $INPUT.$VAR
elec-cutoff 20
elec-eigen-algo Davidson
elec-ex-corr gga-PBE
elec-initial-magnetization 0.200000 yes
elec-smearing Fermi 1e-05
electronic-minimize  \
	dirUpdateScheme      FletcherReeves \
	linminMethod         DirUpdateRecommended \
	nIterations          100 \
	history              15 \
	knormThreshold       0 \
	energyDiffThreshold  1e-08 \
	nEnergyDiff          2 \
	alphaTstart          1 \
	alphaTmin            1e-10 \
	updateTestStepSize   yes \
	alphaTreduceFactor   0.1 \
	alphaTincreaseFactor 3 \
	nAlphaAdjustMax      3 \
	wolfeEnergy          0.0001 \
	wolfeGradient        0.9 \
	fdTest               no
electronic-scf  \
	nIterations	10000 \
	energyDiffThreshold	1e-08 \
	residualThreshold	1e-07 \
	mixFraction	0.5 \
	qMetric	0.8 \
	history	10 \
	nEigSteps	2 \
	eigDiffThreshold	1e-08 \
	mixedVariable	Density \
	qKerker	0.8 \
	qKappa	-1 \
	verbose	no \
	mixFractionMag	1.5
exchange-regularization WignerSeitzTruncated
fluid None
fluid-ex-corr (null) lda-PZ
fluid-gummel-loop 10 1.000000e-05
fluid-minimize  \
	dirUpdateScheme      PolakRibiere \
	linminMethod         DirUpdateRecommended \
	nIterations          100 \
	history              15 \
	knormThreshold       0 \
	energyDiffThreshold  0 \
	nEnergyDiff          2 \
	alphaTstart          1 \
	alphaTmin            1e-10 \
	updateTestStepSize   yes \
	alphaTreduceFactor   0.1 \
	alphaTincreaseFactor 3 \
	nAlphaAdjustMax      3 \
	wolfeEnergy          0.0001 \
	wolfeGradient        0.9 \
	fdTest               no
fluid-solvent H2O 55.338 ScalarEOS \
	epsBulk 78.4 \
	pMol 0.92466 \
	epsInf 1.77 \
	Pvap 1.06736e-10 \
	sigmaBulk 4.62e-05 \
	Rvdw 2.61727 \
	Res 1.42 \
	tauNuc 343133 \
	poleEl 15 7 1
forces-output-coords Positions
ion Li   0.000000000000000   0.000000000000000   0.000000000000000 0
ion-species SG15/$ID_ONCV_PBE.upf
ion-width 0
ionic-minimize  \
	dirUpdateScheme      L-BFGS \
	linminMethod         DirUpdateRecommended \
	nIterations          0 \
	history              15 \
	knormThreshold       0.0001 \
	energyDiffThreshold  1e-06 \
	nEnergyDiff          2 \
	alphaTstart          1 \
	alphaTmin            1e-10 \
	updateTestStepSize   yes \
	alphaTreduceFactor   0.1 \
	alphaTincreaseFactor 3 \
	nAlphaAdjustMax      3 \
	wolfeEnergy          0.0001 \
	wolfeGradient        0.9 \
	fdTest               no
kpoint   0.000000000000   0.000000000000   0.000000000000  1.00000000000000
kpoint-folding 12 12 1 
latt-move-scale 1 1 1
latt-scale 3 3 1 
lattice  \
	   4.727486978767153   -2.363743489383575    0.000000000000000  \
	  -0.000000000000000    4.094123819672498    0.000000000000000  \
	   0.000000000000000    0.000000000000000   40.000000000000000 
lattice-minimize  \
	dirUpdateScheme      L-BFGS \
	linminMethod         DirUpdateRecommended \
	nIterations          0 \
	history              15 \
	knormThreshold       0 \
	energyDiffThreshold  1e-06 \
	nEnergyDiff          2 \
	alphaTstart          1 \
	alphaTmin            1e-10 \
	updateTestStepSize   yes \
	alphaTreduceFactor   0.1 \
	alphaTincreaseFactor 3 \
	nAlphaAdjustMax      3 \
	wolfeEnergy          0.0001 \
	wolfeGradient        0.9 \
	fdTest               no
lcao-params -1 1e-06 1e-05
pcm-variant GLSSA13
spintype z-spin
subspace-rotation-factor 1 yes
symmetries automatic
symmetry-threshold 0.0001



---------- Setting up symmetries ----------

Found 24 point-group symmetries of the bravais lattice
Found 24 space-group symmetries with basis
Applied RMS atom displacement 0 bohrs to make symmetries exact.

---------- Initializing the Grid ----------
R = 
[      14.1825     -7.09123            0  ]
[            0      12.2824            0  ]
[            0            0           40  ]
unit cell volume = 6967.77
G =
[   0.443025   0.255781         -0  ]
[          0   0.511561         -0  ]
[         -0         -0    0.15708  ]
Minimum fftbox size, Smin = [  60  60  164  ]
Chosen fftbox size, S = [  60  60  168  ]

---------- Exchange Correlation functional ----------
Initalized PBE GGA exchange.
Initalized PBE GGA correlation.

---------- Setting up pseudopotentials ----------
Width of ionic core gaussian charges (only for fluid interactions / plotting) set to 0

Reading pseudopotential file '/home/gridsan/aligho/DFT/build-Nov24/pseudopotentials/SG15/Li_ONCV_PBE.upf':
  'Li' pseudopotential, 'PBE' functional
  Generated using ONCVPSP code by D. R. Hamann
  Author: Martin Schlipf and Francois Gygi  Date: 150915.
  3 valence electrons, 2 orbitals, 4 projectors, 1328 radial grid points, with lMax = 1
  Transforming local potential to a uniform radial grid of dG=0.02 with 1489 points.
  Transforming nonlocal projectors to a uniform radial grid of dG=0.02 with 432 points.
    1S    l: 0   occupation:  2.0   eigenvalue: -1.905623
    2S    l: 0   occupation:  1.0   eigenvalue: -0.105624
  Transforming atomic orbitals to a uniform radial grid of dG=0.02 with 432 points.
  WARNING: large normalization error in atomic orbital 1s (integral: 0.000000).
  Core radius for overlap checks: 1.63 bohrs.
  Reading pulay file /home/gridsan/aligho/DFT/build-Nov24/pseudopotentials/SG15/Li_ONCV_PBE.pulay ... using dE_dnG = -1.230239e-02 computed for Ecut = 20.

Initialized 1 species with 1 total atoms.

Folded 1 k-points by 12x12x1 to 144 k-points.

---------- Setting up k-points, bands, fillings ----------
Reduced to 19 k-points under symmetry. 
Computing the number of bands and number of electrons
Calculating initial fillings.
nElectrons:   3.000000   nBands: 3   nStates: 38

----- Setting up reduced wavefunction bases (one per k-point) -----
average nbasis = 29766.104 , ideal nbasis = 29766.845

---------- Setting up coulomb interaction ----------
Initialized slab truncation along lattice direction 001

---------- Setting up 2D ewald sum ----------
Optimum gaussian width for ewald sums = 7.873530 bohr.
Real space sums over 289 unit cells with max indices [  8  8  0  ]
Reciprocal space sums over 81 terms with max indices [  4  4  0  ]

---------- Allocating electronic variables ----------
Initializing wave functions:  linear combination of atomic orbitals
Note: number of bands (3) exceeds available atomic orbitals (2)
Li pseudo-atom occupations:   s ( 2 1 )
[d-17-2-2:32014] 18 more processes have sent help message help-mpi-common-cuda.txt / dlopen failed
[d-17-2-2:32014] Set MCA parameter "orte_base_help_aggregate" to 0 to see all help / error messages
[d-17-2-2:32014] 18 more processes have sent help message help-mpi-btl-openib-cpc-base.txt / no cpcs for port
	FillingsUpdate:  mu: +0.350478982  nElectrons: 3.000000  magneticMoment: [ Abs: 0.20129  Tot: +0.20000 ]
LCAOMinimize: Iter:   0  F: -1.2890676894240916  |grad|_K:  4.884e-05  alpha:  1.000e+00
	FillingsUpdate:  mu: +0.350478370  nElectrons: 3.000000  magneticMoment: [ Abs: 0.20129  Tot: +0.20000 ]
LCAOMinimize: Iter:   1  F: -1.2890681203586549  |grad|_K:  5.334e-07  alpha:  1.057e+00  linmin: -1.050e-03  cgtest:  9.454e-03  t[s]:      7.59
	FillingsUpdate:  mu: +0.350478372  nElectrons: 3.000000  magneticMoment: [ Abs: 0.20129  Tot: +0.20000 ]
LCAOMinimize: Iter:   2  F: -1.2890681204079237  |grad|_K:  1.090e-08  alpha:  9.888e-01  linmin: -1.789e-02  cgtest:  7.187e-01  t[s]:      9.60
LCAOMinimize: Encountered beta<0, resetting CG.
LCAOMinimize: Converged (|Delta F|<1.000000e-06 for 2 iters).


---- Citations for features of the code used in this run ----

   Software package:
      R. Sundararaman, K. Letchworth-Weaver, K.A. Schwarz, D. Gunceler, Y. Ozhabes and T.A. Arias, 'JDFTx: software for joint density-functional theory', SoftwareX 6, 278 (2017)

   gga-PBE exchange-correlation functional:
      J.P. Perdew, K. Burke and M. Ernzerhof, Phys. Rev. Lett. 77, 3865 (1996)

   Pseudopotentials:
      M Schlipf and F Gygi, Comput. Phys. Commun. 196, 36 (2015)

   Truncated Coulomb potentials:
      R. Sundararaman and T.A. Arias, Phys. Rev. B 87, 165122 (2013)

This list may not be complete. Please suggest additional citations or
report any other bugs at https://github.com/shankar1729/jdftx/issues

Initialization completed successfully at t[s]:      9.70


-------- Electronic minimization -----------
Will mix electronic density at each iteration.
	FillingsUpdate:  mu: +0.350478372  nElectrons: 3.000000  magneticMoment: [ Abs: 0.20129  Tot: +0.20000 ]
	FillingsUpdate:  mu: -0.692821531  nElectrons: 3.000000  magneticMoment: [ Abs: 0.20129  Tot: +0.20000 ]
SCF: Cycle:  0   F: -6.868865412821068   dF: -5.580e+00   |Residual|: 1.224e+00   |deigs|: 4.156e+00  t[s]:     13.09
	FillingsUpdate:  mu: -0.575233686  nElectrons: 3.000000  magneticMoment: [ Abs: 0.32649  Tot: +0.20000 ]
SCF: Cycle:  1   F: -6.915861196497584   dF: -4.700e-02   |Residual|: 7.613e-01   |deigs|: 2.729e-01  t[s]:     15.79
	FillingsUpdate:  mu: -0.332942112  nElectrons: 3.000000  magneticMoment: [ Abs: 0.43780  Tot: +0.20000 ]
SCF: Cycle:  2   F: -7.039736638288631   dF: -1.239e-01   |Residual|: 3.282e-01   |deigs|: 7.134e-01  t[s]:     18.54
	FillingsUpdate:  mu: -0.353141191  nElectrons: 3.000000  magneticMoment: [ Abs: 0.43463  Tot: +0.20000 ]
SCF: Cycle:  3   F: -7.041413381863419   dF: -1.677e-03   |Residual|: 1.872e-01   |deigs|: 7.871e-02  t[s]:     21.40
	FillingsUpdate:  mu: -0.331067193  nElectrons: 3.000000  magneticMoment: [ Abs: 0.51393  Tot: +0.20000 ]
SCF: Cycle:  4   F: -7.039941981714706   dF: +1.471e-03   |Residual|: 5.197e-02   |deigs|: 2.090e-02  t[s]:     24.32
	FillingsUpdate:  mu: -0.321473053  nElectrons: 3.000000  magneticMoment: [ Abs: 0.47614  Tot: +0.20000 ]
SCF: Cycle:  5   F: -7.039572003058420   dF: +3.700e-04   |Residual|: 1.034e-01   |deigs|: 9.609e-03  t[s]:     27.25
	FillingsUpdate:  mu: -0.272467461  nElectrons: 3.000000  magneticMoment: [ Abs: 0.33456  Tot: +0.20000 ]
SCF: Cycle:  6   F: -7.043047965046572   dF: -3.476e-03   |Residual|: 7.356e-02   |deigs|: 7.923e-02  t[s]:     30.34
	FillingsUpdate:  mu: -0.236879930  nElectrons: 3.000000  magneticMoment: [ Abs: 0.27056  Tot: +0.20000 ]
SCF: Cycle:  7   F: -7.045000367640832   dF: -1.952e-03   |Residual|: 1.264e-01   |deigs|: 9.822e-02  t[s]:     33.39
	FillingsUpdate:  mu: -0.237163220  nElectrons: 3.000000  magneticMoment: [ Abs: 0.24157  Tot: +0.20000 ]
SCF: Cycle:  8   F: -7.045201909648147   dF: -2.015e-04   |Residual|: 8.387e-02   |deigs|: 1.758e-02  t[s]:     36.58
	FillingsUpdate:  mu: -0.233663066  nElectrons: 3.000000  magneticMoment: [ Abs: 0.39999  Tot: +0.20000 ]
SCF: Cycle:  9   F: -7.045018915191533   dF: +1.830e-04   |Residual|: 1.148e-01   |deigs|: 8.340e-02  t[s]:     39.77
	FillingsUpdate:  mu: -0.209139456  nElectrons: 3.000000  magneticMoment: [ Abs: 0.39918  Tot: +0.20000 ]
SCF: Cycle: 10   F: -7.044995199756823   dF: +2.372e-05   |Residual|: 1.545e-01   |deigs|: 2.013e-02  t[s]:     43.09
	FillingsUpdate:  mu: -0.169022727  nElectrons: 3.000000  magneticMoment: [ Abs: 0.29706  Tot: +0.20000 ]
SCF: Cycle: 11   F: -7.047033992147603   dF: -2.039e-03   |Residual|: 3.478e-02   |deigs|: 1.009e-01  t[s]:     46.34
	FillingsUpdate:  mu: -0.164129973  nElectrons: 3.000000  magneticMoment: [ Abs: 0.27634  Tot: +0.20000 ]
SCF: Cycle: 12   F: -7.047200634680331   dF: -1.666e-04   |Residual|: 1.153e-02   |deigs|: 1.361e-02  t[s]:     49.62
	FillingsUpdate:  mu: -0.146683931  nElectrons: 3.000000  magneticMoment: [ Abs: 0.27568  Tot: +0.20000 ]
SCF: Cycle: 13   F: -7.047331075978524   dF: -1.304e-04   |Residual|: 8.555e-03   |deigs|: 1.725e-02  t[s]:     52.92
	FillingsUpdate:  mu: -0.134578673  nElectrons: 3.000000  magneticMoment: [ Abs: 0.27383  Tot: +0.20000 ]
SCF: Cycle: 14   F: -7.047351975748102   dF: -2.090e-05   |Residual|: 6.992e-03   |deigs|: 1.333e-02  t[s]:     56.18
	FillingsUpdate:  mu: -0.123692251  nElectrons: 3.000000  magneticMoment: [ Abs: 0.26197  Tot: +0.20000 ]
SCF: Cycle: 15   F: -7.047370614885309   dF: -1.864e-05   |Residual|: 6.035e-03   |deigs|: 1.101e-02  t[s]:     59.45
	FillingsUpdate:  mu: -0.116679022  nElectrons: 3.000000  magneticMoment: [ Abs: 0.24602  Tot: +0.20000 ]
SCF: Cycle: 16   F: -7.047418177025687   dF: -4.756e-05   |Residual|: 4.610e-03   |deigs|: 7.011e-03  t[s]:     62.73
	FillingsUpdate:  mu: -0.109700239  nElectrons: 3.000000  magneticMoment: [ Abs: 0.23166  Tot: +0.20000 ]
SCF: Cycle: 17   F: -7.047552095000568   dF: -1.339e-04   |Residual|: 3.276e-03   |deigs|: 7.362e-03  t[s]:     66.05
	FillingsUpdate:  mu: -0.106137461  nElectrons: 3.000000  magneticMoment: [ Abs: 0.22417  Tot: +0.20000 ]
SCF: Cycle: 18   F: -7.047633527994432   dF: -8.143e-05   |Residual|: 2.262e-03   |deigs|: 4.510e-03  t[s]:     69.34
	FillingsUpdate:  mu: -0.104738003  nElectrons: 3.000000  magneticMoment: [ Abs: 0.21888  Tot: +0.20000 ]
SCF: Cycle: 19   F: -7.047679282374505   dF: -4.575e-05   |Residual|: 1.482e-03   |deigs|: 1.808e-03  t[s]:     72.59
	FillingsUpdate:  mu: -0.105421887  nElectrons: 3.000000  magneticMoment: [ Abs: 0.21315  Tot: +0.20000 ]
SCF: Cycle: 20   F: -7.047696134303952   dF: -1.685e-05   |Residual|: 9.473e-04   |deigs|: 9.388e-04  t[s]:     75.84
	FillingsUpdate:  mu: -0.106393821  nElectrons: 3.000000  magneticMoment: [ Abs: 0.20933  Tot: +0.20000 ]
SCF: Cycle: 21   F: -7.047708703084789   dF: -1.257e-05   |Residual|: 4.335e-04   |deigs|: 1.128e-03  t[s]:     79.12
	FillingsUpdate:  mu: -0.106570347  nElectrons: 3.000000  magneticMoment: [ Abs: 0.20693  Tot: +0.20000 ]
SCF: Cycle: 22   F: -7.047711867870214   dF: -3.165e-06   |Residual|: 2.377e-04   |deigs|: 3.347e-04  t[s]:     82.49
	FillingsUpdate:  mu: -0.106685178  nElectrons: 3.000000  magneticMoment: [ Abs: 0.20518  Tot: +0.20000 ]
SCF: Cycle: 23   F: -7.047712611852428   dF: -7.440e-07   |Residual|: 1.642e-04   |deigs|: 1.930e-04  t[s]:     85.72
	FillingsUpdate:  mu: -0.106703909  nElectrons: 3.000000  magneticMoment: [ Abs: 0.20358  Tot: +0.20000 ]
SCF: Cycle: 24   F: -7.047713109080138   dF: -4.972e-07   |Residual|: 1.025e-04   |deigs|: 1.045e-04  t[s]:     89.02
	FillingsUpdate:  mu: -0.106740631  nElectrons: 3.000000  magneticMoment: [ Abs: 0.20280  Tot: +0.20000 ]
SCF: Cycle: 25   F: -7.047713211870541   dF: -1.028e-07   |Residual|: 7.368e-05   |deigs|: 1.096e-04  t[s]:     92.30
	FillingsUpdate:  mu: -0.106809515  nElectrons: 3.000000  magneticMoment: [ Abs: 0.20215  Tot: +0.20000 ]
SCF: Cycle: 26   F: -7.047713264062263   dF: -5.219e-08   |Residual|: 6.570e-05   |deigs|: 1.123e-04  t[s]:     95.62
	FillingsUpdate:  mu: -0.106824155  nElectrons: 3.000000  magneticMoment: [ Abs: 0.20141  Tot: +0.20000 ]
SCF: Cycle: 27   F: -7.047713271592740   dF: -7.530e-09   |Residual|: 5.517e-05   |deigs|: 7.972e-05  t[s]:     98.89
	FillingsUpdate:  mu: -0.106800976  nElectrons: 3.000000  magneticMoment: [ Abs: 0.20079  Tot: +0.20000 ]
SCF: Cycle: 28   F: -7.047713257288580   dF: +1.430e-08   |Residual|: 4.073e-05   |deigs|: 8.474e-05  t[s]:    102.20
	FillingsUpdate:  mu: -0.106756435  nElectrons: 3.000000  magneticMoment: [ Abs: 0.20041  Tot: +0.20000 ]
SCF: Cycle: 29   F: -7.047713284825992   dF: -2.754e-08   |Residual|: 2.739e-05   |deigs|: 9.082e-05  t[s]:    105.45
	FillingsUpdate:  mu: -0.106719660  nElectrons: 3.000000  magneticMoment: [ Abs: 0.20017  Tot: +0.20000 ]
SCF: Cycle: 30   F: -7.047713309748961   dF: -2.492e-08   |Residual|: 2.014e-05   |deigs|: 8.366e-05  t[s]:    108.66
	FillingsUpdate:  mu: -0.106704038  nElectrons: 3.000000  magneticMoment: [ Abs: 0.20006  Tot: +0.20000 ]
SCF: Cycle: 31   F: -7.047713321409952   dF: -1.166e-08   |Residual|: 1.513e-05   |deigs|: 7.324e-05  t[s]:    111.89
	FillingsUpdate:  mu: -0.106694453  nElectrons: 3.000000  magneticMoment: [ Abs: 0.20003  Tot: +0.20000 ]
SCF: Cycle: 32   F: -7.047713325947238   dF: -4.537e-09   |Residual|: 1.072e-05   |deigs|: 6.300e-05  t[s]:    115.21
	FillingsUpdate:  mu: -0.106689732  nElectrons: 3.000000  magneticMoment: [ Abs: 0.20002  Tot: +0.20000 ]
SCF: Cycle: 33   F: -7.047713328708972   dF: -2.762e-09   |Residual|: 6.995e-06   |deigs|: 5.255e-05  t[s]:    118.44
SCF: Converged (|Delta E|<1.000000e-08 for 2 iters).


# Ionic positions in lattice coordinates:
ion Li   0.000000000000000   0.000000000000000   0.000000000000000 0

# Forces in Lattice coordinates:
force Li  -0.000000000000000   0.000000000000000   0.000000000000000 0

# Energy components:
   Eewald =       -1.3368908222468645
       EH =        2.1961753900501613
     Eloc =       -7.5347280476633385
      Enl =       -3.6007281833438758
   Epulay =       -0.0000013080581827
      Exc =       -1.5310344190723415
       KE =        4.7594945730856981
-------------------------------------
     Etot =       -7.0477128172487440
       TS =        0.0000005114602277
-------------------------------------
        F =       -7.0477133287089719

IonicMinimize: Iter:   0  F: -7.047713328708972  |grad|_K:  0.000e+00  t[s]:    118.59
IonicMinimize: Converged (|grad|_K<1.000000e-04).

#--- Lowdin population analysis ---
# oxidation-state Li +2.105
# magnetic-moments Li +0.184

End date and time: Sat Feb  5 23:02:52 2022  (Duration: 0-0:01:58.61)
Done!
scale=4
magnetization=0.2
--------------------------------------------------------------------------
The library attempted to open the following supporting CUDA libraries,
but each of them failed.  CUDA-aware support is disabled.
libcuda.so.1: cannot open shared object file: No such file or directory
libcuda.dylib: cannot open shared object file: No such file or directory
/usr/lib64/libcuda.so.1: cannot open shared object file: No such file or directory
/usr/lib64/libcuda.dylib: cannot open shared object file: No such file or directory
If you are not interested in CUDA-aware support, then run with
--mca opal_warn_on_missing_libcuda 0 to suppress this message.  If you are interested
in CUDA-aware support, then try setting LD_LIBRARY_PATH to the location
of libcuda.so.1 to get passed this issue.
--------------------------------------------------------------------------
--------------------------------------------------------------------------
No OpenFabrics connection schemes reported that they were able to be
used on a specific port.  As such, the openib BTL (OpenFabrics
support) will be disabled for this port.

  Local host:           d-17-2-2
  Local device:         mlx5_1
  Local port:           1
  CPCs attempted:       rdmacm, udcm
--------------------------------------------------------------------------

*************** JDFTx 1.6.0 (git hash 42ebbcc2) ***************

Start date and time: Sat Feb  5 23:02:53 2022
Executable jdftx with command-line: -i Alkali.in
Running on hosts (process indices):  d-17-2-2 (0-18)
Divided in process groups (process indices):  0 (0)  1 (1)  2 (2)  3 (3)  4 (4)  5 (5)  6 (6)  7 (7)  8 (8)  9 (9)  10 (10)  11 (11)  12 (12)  13 (13)  14 (14)  15 (15)  16 (16)  17 (17)  18 (18)
Resource initialization completed at t[s]:      0.00
Run totals: 19 processes, 48 threads, 0 GPUs


Input parsed successfully to the following command list (including defaults):

basis kpoint-dependent
coords-type Lattice
core-overlap-check vector
coulomb-interaction Slab 001
davidson-band-ratio 1.1
dump End None
dump-name $INPUT.$VAR
elec-cutoff 20
elec-eigen-algo Davidson
elec-ex-corr gga-PBE
elec-initial-magnetization 0.200000 yes
elec-smearing Fermi 1e-05
electronic-minimize  \
	dirUpdateScheme      FletcherReeves \
	linminMethod         DirUpdateRecommended \
	nIterations          100 \
	history              15 \
	knormThreshold       0 \
	energyDiffThreshold  1e-08 \
	nEnergyDiff          2 \
	alphaTstart          1 \
	alphaTmin            1e-10 \
	updateTestStepSize   yes \
	alphaTreduceFactor   0.1 \
	alphaTincreaseFactor 3 \
	nAlphaAdjustMax      3 \
	wolfeEnergy          0.0001 \
	wolfeGradient        0.9 \
	fdTest               no
electronic-scf  \
	nIterations	10000 \
	energyDiffThreshold	1e-08 \
	residualThreshold	1e-07 \
	mixFraction	0.5 \
	qMetric	0.8 \
	history	10 \
	nEigSteps	2 \
	eigDiffThreshold	1e-08 \
	mixedVariable	Density \
	qKerker	0.8 \
	qKappa	-1 \
	verbose	no \
	mixFractionMag	1.5
exchange-regularization WignerSeitzTruncated
fluid None
fluid-ex-corr (null) lda-PZ
fluid-gummel-loop 10 1.000000e-05
fluid-minimize  \
	dirUpdateScheme      PolakRibiere \
	linminMethod         DirUpdateRecommended \
	nIterations          100 \
	history              15 \
	knormThreshold       0 \
	energyDiffThreshold  0 \
	nEnergyDiff          2 \
	alphaTstart          1 \
	alphaTmin            1e-10 \
	updateTestStepSize   yes \
	alphaTreduceFactor   0.1 \
	alphaTincreaseFactor 3 \
	nAlphaAdjustMax      3 \
	wolfeEnergy          0.0001 \
	wolfeGradient        0.9 \
	fdTest               no
fluid-solvent H2O 55.338 ScalarEOS \
	epsBulk 78.4 \
	pMol 0.92466 \
	epsInf 1.77 \
	Pvap 1.06736e-10 \
	sigmaBulk 4.62e-05 \
	Rvdw 2.61727 \
	Res 1.42 \
	tauNuc 343133 \
	poleEl 15 7 1
forces-output-coords Positions
ion Li   0.000000000000000   0.000000000000000   0.000000000000000 0
ion-species SG15/$ID_ONCV_PBE.upf
ion-width 0
ionic-minimize  \
	dirUpdateScheme      L-BFGS \
	linminMethod         DirUpdateRecommended \
	nIterations          0 \
	history              15 \
	knormThreshold       0.0001 \
	energyDiffThreshold  1e-06 \
	nEnergyDiff          2 \
	alphaTstart          1 \
	alphaTmin            1e-10 \
	updateTestStepSize   yes \
	alphaTreduceFactor   0.1 \
	alphaTincreaseFactor 3 \
	nAlphaAdjustMax      3 \
	wolfeEnergy          0.0001 \
	wolfeGradient        0.9 \
	fdTest               no
kpoint   0.000000000000   0.000000000000   0.000000000000  1.00000000000000
kpoint-folding 12 12 1 
latt-move-scale 1 1 1
latt-scale 4 4 1 
lattice  \
	   4.727486978767153   -2.363743489383575    0.000000000000000  \
	  -0.000000000000000    4.094123819672498    0.000000000000000  \
	   0.000000000000000    0.000000000000000   40.000000000000000 
lattice-minimize  \
	dirUpdateScheme      L-BFGS \
	linminMethod         DirUpdateRecommended \
	nIterations          0 \
	history              15 \
	knormThreshold       0 \
	energyDiffThreshold  1e-06 \
	nEnergyDiff          2 \
	alphaTstart          1 \
	alphaTmin            1e-10 \
	updateTestStepSize   yes \
	alphaTreduceFactor   0.1 \
	alphaTincreaseFactor 3 \
	nAlphaAdjustMax      3 \
	wolfeEnergy          0.0001 \
	wolfeGradient        0.9 \
	fdTest               no
lcao-params -1 1e-06 1e-05
pcm-variant GLSSA13
spintype z-spin
subspace-rotation-factor 1 yes
symmetries automatic
symmetry-threshold 0.0001



---------- Setting up symmetries ----------

Found 24 point-group symmetries of the bravais lattice
Found 24 space-group symmetries with basis
Applied RMS atom displacement 0 bohrs to make symmetries exact.

---------- Initializing the Grid ----------
R = 
[      18.9099     -9.45497            0  ]
[            0      16.3765            0  ]
[            0            0           40  ]
unit cell volume = 12387.1
G =
[   0.332269   0.191835         -0  ]
[          0   0.383671         -0  ]
[         -0         -0    0.15708  ]
Minimum fftbox size, Smin = [  80  80  164  ]
Chosen fftbox size, S = [  80  80  168  ]

---------- Exchange Correlation functional ----------
Initalized PBE GGA exchange.
Initalized PBE GGA correlation.

---------- Setting up pseudopotentials ----------
Width of ionic core gaussian charges (only for fluid interactions / plotting) set to 0

Reading pseudopotential file '/home/gridsan/aligho/DFT/build-Nov24/pseudopotentials/SG15/Li_ONCV_PBE.upf':
  'Li' pseudopotential, 'PBE' functional
  Generated using ONCVPSP code by D. R. Hamann
  Author: Martin Schlipf and Francois Gygi  Date: 150915.
  3 valence electrons, 2 orbitals, 4 projectors, 1328 radial grid points, with lMax = 1
  Transforming local potential to a uniform radial grid of dG=0.02 with 1489 points.
  Transforming nonlocal projectors to a uniform radial grid of dG=0.02 with 432 points.
    1S    l: 0   occupation:  2.0   eigenvalue: -1.905623
    2S    l: 0   occupation:  1.0   eigenvalue: -0.105624
  Transforming atomic orbitals to a uniform radial grid of dG=0.02 with 432 points.
  WARNING: large normalization error in atomic orbital 1s (integral: 0.000000).
  Core radius for overlap checks: 1.63 bohrs.
  Reading pulay file /home/gridsan/aligho/DFT/build-Nov24/pseudopotentials/SG15/Li_ONCV_PBE.pulay ... using dE_dnG = -1.230239e-02 computed for Ecut = 20.

Initialized 1 species with 1 total atoms.

Folded 1 k-points by 12x12x1 to 144 k-points.

---------- Setting up k-points, bands, fillings ----------
Reduced to 19 k-points under symmetry. 
Computing the number of bands and number of electrons
Calculating initial fillings.
nElectrons:   3.000000   nBands: 3   nStates: 38

----- Setting up reduced wavefunction bases (one per k-point) -----
average nbasis = 52924.021 , ideal nbasis = 52918.836

---------- Setting up coulomb interaction ----------
Initialized slab truncation along lattice direction 001

---------- Setting up 2D ewald sum ----------
Optimum gaussian width for ewald sums = 10.498040 bohr.
Real space sums over 289 unit cells with max indices [  8  8  0  ]
Reciprocal space sums over 81 terms with max indices [  4  4  0  ]

---------- Allocating electronic variables ----------
Initializing wave functions:  linear combination of atomic orbitals
Note: number of bands (3) exceeds available atomic orbitals (2)
Li pseudo-atom occupations:   s ( 2 1 )
[d-17-2-2:13905] 18 more processes have sent help message help-mpi-common-cuda.txt / dlopen failed
[d-17-2-2:13905] Set MCA parameter "orte_base_help_aggregate" to 0 to see all help / error messages
[d-17-2-2:13905] 18 more processes have sent help message help-mpi-btl-openib-cpc-base.txt / no cpcs for port
	FillingsUpdate:  mu: +0.361783597  nElectrons: 3.000000  magneticMoment: [ Abs: 0.20016  Tot: +0.20000 ]
LCAOMinimize: Iter:   0  F: -1.3112206588921180  |grad|_K:  4.118e-05  alpha:  1.000e+00
	FillingsUpdate:  mu: +0.361783216  nElectrons: 3.000000  magneticMoment: [ Abs: 0.20016  Tot: +0.20000 ]
LCAOMinimize: Iter:   1  F: -1.3112209658508516  |grad|_K:  9.897e-08  alpha:  1.059e+00  linmin: -1.113e-02  cgtest:  3.327e-02  t[s]:     12.64
LCAOMinimize: Encountered beta<0, resetting CG.
LCAOMinimize: 	Wrong curvature in test step, increasing alphaT to 3.175622e+00.
	FillingsUpdate:  mu: +0.361783217  nElectrons: 3.000000  magneticMoment: [ Abs: 0.20016  Tot: +0.20000 ]
LCAOMinimize: Iter:   2  F: -1.3112209658552059  |grad|_K:  5.158e-09  alpha: -2.321e+00  linmin:  1.099e-02  cgtest: -5.403e-01  t[s]:     15.92
LCAOMinimize: Converged (|Delta F|<1.000000e-06 for 2 iters).


---- Citations for features of the code used in this run ----

   Software package:
      R. Sundararaman, K. Letchworth-Weaver, K.A. Schwarz, D. Gunceler, Y. Ozhabes and T.A. Arias, 'JDFTx: software for joint density-functional theory', SoftwareX 6, 278 (2017)

   gga-PBE exchange-correlation functional:
      J.P. Perdew, K. Burke and M. Ernzerhof, Phys. Rev. Lett. 77, 3865 (1996)

   Pseudopotentials:
      M Schlipf and F Gygi, Comput. Phys. Commun. 196, 36 (2015)

   Truncated Coulomb potentials:
      R. Sundararaman and T.A. Arias, Phys. Rev. B 87, 165122 (2013)

This list may not be complete. Please suggest additional citations or
report any other bugs at https://github.com/shankar1729/jdftx/issues

Initialization completed successfully at t[s]:     16.06


-------- Electronic minimization -----------
Will mix electronic density at each iteration.
	FillingsUpdate:  mu: +0.361783217  nElectrons: 3.000000  magneticMoment: [ Abs: 0.20016  Tot: +0.20000 ]
	FillingsUpdate:  mu: -0.613021283  nElectrons: 3.000000  magneticMoment: [ Abs: 0.20016  Tot: +0.20000 ]
SCF: Cycle:  0   F: -6.868790050367113   dF: -5.558e+00   |Residual|: 1.230e+00   |deigs|: 4.155e+00  t[s]:     21.67
	FillingsUpdate:  mu: -0.493459006  nElectrons: 3.000000  magneticMoment: [ Abs: 0.34343  Tot: +0.20000 ]
SCF: Cycle:  1   F: -6.915022097633431   dF: -4.623e-02   |Residual|: 7.599e-01   |deigs|: 2.757e-01  t[s]:     26.22
	FillingsUpdate:  mu: -0.241408245  nElectrons: 3.000000  magneticMoment: [ Abs: 0.44174  Tot: +0.20000 ]
SCF: Cycle:  2   F: -7.036490747277267   dF: -1.215e-01   |Residual|: 3.171e-01   |deigs|: 7.096e-01  t[s]:     30.83
	FillingsUpdate:  mu: -0.260591487  nElectrons: 3.000000  magneticMoment: [ Abs: 0.43868  Tot: +0.20000 ]
SCF: Cycle:  3   F: -7.037610746425471   dF: -1.120e-03   |Residual|: 1.872e-01   |deigs|: 7.158e-02  t[s]:     35.65
	FillingsUpdate:  mu: -0.239820818  nElectrons: 3.000000  magneticMoment: [ Abs: 0.49080  Tot: +0.20000 ]
SCF: Cycle:  4   F: -7.035181513614866   dF: +2.429e-03   |Residual|: 6.591e-02   |deigs|: 2.149e-02  t[s]:     40.47
	FillingsUpdate:  mu: -0.228095847  nElectrons: 3.000000  magneticMoment: [ Abs: 0.45800  Tot: +0.20000 ]
SCF: Cycle:  5   F: -7.036143004074103   dF: -9.615e-04   |Residual|: 1.199e-01   |deigs|: 1.017e-02  t[s]:     45.42
	FillingsUpdate:  mu: -0.200803828  nElectrons: 3.000000  magneticMoment: [ Abs: 0.42413  Tot: +0.20000 ]
SCF: Cycle:  6   F: -7.040297228787442   dF: -4.154e-03   |Residual|: 6.442e-02   |deigs|: 5.780e-02  t[s]:     50.53
	FillingsUpdate:  mu: -0.176935058  nElectrons: 3.000000  magneticMoment: [ Abs: 0.32430  Tot: +0.20000 ]
SCF: Cycle:  7   F: -7.042659946701537   dF: -2.363e-03   |Residual|: 1.021e-01   |deigs|: 7.767e-02  t[s]:     55.75
	FillingsUpdate:  mu: -0.182813228  nElectrons: 3.000000  magneticMoment: [ Abs: 0.24076  Tot: +0.20000 ]
SCF: Cycle:  8   F: -7.042863953432825   dF: -2.040e-04   |Residual|: 6.371e-02   |deigs|: 2.023e-02  t[s]:     61.14
	FillingsUpdate:  mu: -0.186657327  nElectrons: 3.000000  magneticMoment: [ Abs: 0.30048  Tot: +0.20000 ]
SCF: Cycle:  9   F: -7.043337626142977   dF: -4.737e-04   |Residual|: 7.287e-02   |deigs|: 5.429e-02  t[s]:     66.56
	FillingsUpdate:  mu: -0.177605269  nElectrons: 3.000000  magneticMoment: [ Abs: 0.33769  Tot: +0.20000 ]
SCF: Cycle: 10   F: -7.043202565516098   dF: +1.351e-04   |Residual|: 1.386e-01   |deigs|: 2.463e-02  t[s]:     72.16
	FillingsUpdate:  mu: -0.158234444  nElectrons: 3.000000  magneticMoment: [ Abs: 0.29583  Tot: +0.20000 ]
SCF: Cycle: 11   F: -7.044474626046061   dF: -1.272e-03   |Residual|: 2.036e-02   |deigs|: 7.194e-02  t[s]:     77.67
	FillingsUpdate:  mu: -0.151606080  nElectrons: 3.000000  magneticMoment: [ Abs: 0.26152  Tot: +0.20000 ]
SCF: Cycle: 12   F: -7.044560010289027   dF: -8.538e-05   |Residual|: 9.267e-03   |deigs|: 7.219e-03  t[s]:     83.18
	FillingsUpdate:  mu: -0.132607932  nElectrons: 3.000000  magneticMoment: [ Abs: 0.27648  Tot: +0.20000 ]
SCF: Cycle: 13   F: -7.044758217485249   dF: -1.982e-04   |Residual|: 7.489e-03   |deigs|: 1.843e-02  t[s]:     88.68
	FillingsUpdate:  mu: -0.123876532  nElectrons: 3.000000  magneticMoment: [ Abs: 0.27867  Tot: +0.20000 ]
SCF: Cycle: 14   F: -7.044799816264649   dF: -4.160e-05   |Residual|: 6.085e-03   |deigs|: 1.056e-02  t[s]:     94.24
	FillingsUpdate:  mu: -0.115489881  nElectrons: 3.000000  magneticMoment: [ Abs: 0.25781  Tot: +0.20000 ]
SCF: Cycle: 15   F: -7.044819240183063   dF: -1.942e-05   |Residual|: 4.702e-03   |deigs|: 9.085e-03  t[s]:     99.73
	FillingsUpdate:  mu: -0.111575890  nElectrons: 3.000000  magneticMoment: [ Abs: 0.24988  Tot: +0.20000 ]
SCF: Cycle: 16   F: -7.044844563208667   dF: -2.532e-05   |Residual|: 3.285e-03   |deigs|: 3.686e-03  t[s]:    105.20
	FillingsUpdate:  mu: -0.109785500  nElectrons: 3.000000  magneticMoment: [ Abs: 0.24479  Tot: +0.20000 ]
SCF: Cycle: 17   F: -7.044830733180016   dF: +1.383e-05   |Residual|: 2.433e-03   |deigs|: 1.449e-03  t[s]:    110.78
	FillingsUpdate:  mu: -0.107249384  nElectrons: 3.000000  magneticMoment: [ Abs: 0.23445  Tot: +0.20000 ]
SCF: Cycle: 18   F: -7.044812880818016   dF: +1.785e-05   |Residual|: 1.818e-03   |deigs|: 2.908e-03  t[s]:    116.30
	FillingsUpdate:  mu: -0.105882195  nElectrons: 3.000000  magneticMoment: [ Abs: 0.23024  Tot: +0.20000 ]
SCF: Cycle: 19   F: -7.044842341702992   dF: -2.946e-05   |Residual|: 1.210e-03   |deigs|: 1.619e-03  t[s]:    121.87
	FillingsUpdate:  mu: -0.105304016  nElectrons: 3.000000  magneticMoment: [ Abs: 0.22345  Tot: +0.20000 ]
SCF: Cycle: 20   F: -7.044867792308830   dF: -2.545e-05   |Residual|: 9.439e-04   |deigs|: 5.695e-04  t[s]:    127.47
	FillingsUpdate:  mu: -0.105183026  nElectrons: 3.000000  magneticMoment: [ Abs: 0.21460  Tot: +0.20000 ]
SCF: Cycle: 21   F: -7.044881771633984   dF: -1.398e-05   |Residual|: 6.454e-04   |deigs|: 3.050e-04  t[s]:    133.00
	FillingsUpdate:  mu: -0.104944650  nElectrons: 3.000000  magneticMoment: [ Abs: 0.21052  Tot: +0.20000 ]
SCF: Cycle: 22   F: -7.044891612757990   dF: -9.841e-06   |Residual|: 4.964e-04   |deigs|: 3.318e-04  t[s]:    138.53
	FillingsUpdate:  mu: -0.105000551  nElectrons: 3.000000  magneticMoment: [ Abs: 0.20670  Tot: +0.20000 ]
SCF: Cycle: 23   F: -7.044897251628671   dF: -5.639e-06   |Residual|: 3.610e-04   |deigs|: 9.866e-05  t[s]:    144.11
	FillingsUpdate:  mu: -0.105010022  nElectrons: 3.000000  magneticMoment: [ Abs: 0.20484  Tot: +0.20000 ]
SCF: Cycle: 24   F: -7.044900895347828   dF: -3.644e-06   |Residual|: 2.246e-04   |deigs|: 1.326e-04  t[s]:    149.56
	FillingsUpdate:  mu: -0.105163952  nElectrons: 3.000000  magneticMoment: [ Abs: 0.20305  Tot: +0.20000 ]
SCF: Cycle: 25   F: -7.044902271089923   dF: -1.376e-06   |Residual|: 1.385e-04   |deigs|: 2.437e-04  t[s]:    155.02
	FillingsUpdate:  mu: -0.105244709  nElectrons: 3.000000  magneticMoment: [ Abs: 0.20166  Tot: +0.20000 ]
SCF: Cycle: 26   F: -7.044902646465807   dF: -3.754e-07   |Residual|: 9.142e-05   |deigs|: 1.420e-04  t[s]:    160.49
	FillingsUpdate:  mu: -0.105309562  nElectrons: 3.000000  magneticMoment: [ Abs: 0.20115  Tot: +0.20000 ]
SCF: Cycle: 27   F: -7.044902894348665   dF: -2.479e-07   |Residual|: 6.170e-05   |deigs|: 1.141e-04  t[s]:    166.03
	FillingsUpdate:  mu: -0.105382528  nElectrons: 3.000000  magneticMoment: [ Abs: 0.20101  Tot: +0.20000 ]
SCF: Cycle: 28   F: -7.044902960562305   dF: -6.621e-08   |Residual|: 3.759e-05   |deigs|: 1.034e-04  t[s]:    171.59
	FillingsUpdate:  mu: -0.105404754  nElectrons: 3.000000  magneticMoment: [ Abs: 0.20083  Tot: +0.20000 ]
SCF: Cycle: 29   F: -7.044902974690997   dF: -1.413e-08   |Residual|: 2.730e-05   |deigs|: 6.063e-05  t[s]:    177.14
	FillingsUpdate:  mu: -0.105419135  nElectrons: 3.000000  magneticMoment: [ Abs: 0.20064  Tot: +0.20000 ]
SCF: Cycle: 30   F: -7.044902977846049   dF: -3.155e-09   |Residual|: 1.991e-05   |deigs|: 5.020e-05  t[s]:    182.66
	FillingsUpdate:  mu: -0.105413797  nElectrons: 3.000000  magneticMoment: [ Abs: 0.20038  Tot: +0.20000 ]
SCF: Cycle: 31   F: -7.044902977936315   dF: -9.027e-11   |Residual|: 1.223e-05   |deigs|: 4.141e-05  t[s]:    188.18
SCF: Converged (|Delta E|<1.000000e-08 for 2 iters).


# Ionic positions in lattice coordinates:
ion Li   0.000000000000000   0.000000000000000   0.000000000000000 0

# Forces in Lattice coordinates:
force Li   0.000000000000000   0.000000000000000   0.000000000000000 0

# Energy components:
   Eewald =       -1.0026681166851483
       EH =        2.5462381830842928
     Eloc =       -8.2239726056539730
      Enl =       -3.6033098633158342
   Epulay =        0.0000051497655618
      Exc =       -1.5345770745352718
       KE =        4.7733818738519167
-------------------------------------
     Etot =       -7.0449024534884552
       TS =        0.0000005244478598
-------------------------------------
        F =       -7.0449029779363146

IonicMinimize: Iter:   0  F: -7.044902977936315  |grad|_K:  0.000e+00  t[s]:    188.43
IonicMinimize: Converged (|grad|_K<1.000000e-04).

#--- Lowdin population analysis ---
# oxidation-state Li +2.081
# magnetic-moments Li +0.185

End date and time: Sat Feb  5 23:06:01 2022  (Duration: 0-0:03:08.46)
Done!
