The alkali metal is Li
scale=2
magnetization=-0.08
--------------------------------------------------------------------------
The library attempted to open the following supporting CUDA libraries,
but each of them failed.  CUDA-aware support is disabled.
libcuda.so.1: cannot open shared object file: No such file or directory
libcuda.dylib: cannot open shared object file: No such file or directory
/usr/lib64/libcuda.so.1: cannot open shared object file: No such file or directory
/usr/lib64/libcuda.dylib: cannot open shared object file: No such file or directory
If you are not interested in CUDA-aware support, then run with
--mca opal_warn_on_missing_libcuda 0 to suppress this message.  If you are interested
in CUDA-aware support, then try setting LD_LIBRARY_PATH to the location
of libcuda.so.1 to get passed this issue.
--------------------------------------------------------------------------
--------------------------------------------------------------------------
No OpenFabrics connection schemes reported that they were able to be
used on a specific port.  As such, the openib BTL (OpenFabrics
support) will be disabled for this port.

  Local host:           d-3-7-1
  Local device:         mlx5_1
  Local port:           1
  CPCs attempted:       rdmacm, udcm
--------------------------------------------------------------------------

*************** JDFTx 1.6.0 (git hash 42ebbcc2) ***************

Start date and time: Sat Feb  5 22:58:47 2022
Executable jdftx with command-line: -i Alkali.in
Running on hosts (process indices):  d-3-7-1 (0-18)
Divided in process groups (process indices):  0 (0)  1 (1)  2 (2)  3 (3)  4 (4)  5 (5)  6 (6)  7 (7)  8 (8)  9 (9)  10 (10)  11 (11)  12 (12)  13 (13)  14 (14)  15 (15)  16 (16)  17 (17)  18 (18)
Resource initialization completed at t[s]:      0.00
Run totals: 19 processes, 48 threads, 0 GPUs


Input parsed successfully to the following command list (including defaults):

basis kpoint-dependent
coords-type Lattice
core-overlap-check vector
coulomb-interaction Slab 001
davidson-band-ratio 1.1
dump End None
dump-name $INPUT.$VAR
elec-cutoff 20
elec-eigen-algo Davidson
elec-ex-corr gga-PBE
elec-initial-magnetization -0.080000 yes
elec-smearing Fermi 1e-05
electronic-minimize  \
	dirUpdateScheme      FletcherReeves \
	linminMethod         DirUpdateRecommended \
	nIterations          100 \
	history              15 \
	knormThreshold       0 \
	energyDiffThreshold  1e-08 \
	nEnergyDiff          2 \
	alphaTstart          1 \
	alphaTmin            1e-10 \
	updateTestStepSize   yes \
	alphaTreduceFactor   0.1 \
	alphaTincreaseFactor 3 \
	nAlphaAdjustMax      3 \
	wolfeEnergy          0.0001 \
	wolfeGradient        0.9 \
	fdTest               no
electronic-scf  \
	nIterations	10000 \
	energyDiffThreshold	1e-08 \
	residualThreshold	1e-07 \
	mixFraction	0.5 \
	qMetric	0.8 \
	history	10 \
	nEigSteps	2 \
	eigDiffThreshold	1e-08 \
	mixedVariable	Density \
	qKerker	0.8 \
	qKappa	-1 \
	verbose	no \
	mixFractionMag	1.5
exchange-regularization WignerSeitzTruncated
fluid None
fluid-ex-corr (null) lda-PZ
fluid-gummel-loop 10 1.000000e-05
fluid-minimize  \
	dirUpdateScheme      PolakRibiere \
	linminMethod         DirUpdateRecommended \
	nIterations          100 \
	history              15 \
	knormThreshold       0 \
	energyDiffThreshold  0 \
	nEnergyDiff          2 \
	alphaTstart          1 \
	alphaTmin            1e-10 \
	updateTestStepSize   yes \
	alphaTreduceFactor   0.1 \
	alphaTincreaseFactor 3 \
	nAlphaAdjustMax      3 \
	wolfeEnergy          0.0001 \
	wolfeGradient        0.9 \
	fdTest               no
fluid-solvent H2O 55.338 ScalarEOS \
	epsBulk 78.4 \
	pMol 0.92466 \
	epsInf 1.77 \
	Pvap 1.06736e-10 \
	sigmaBulk 4.62e-05 \
	Rvdw 2.61727 \
	Res 1.42 \
	tauNuc 343133 \
	poleEl 15 7 1
forces-output-coords Positions
ion Li   0.000000000000000   0.000000000000000   0.000000000000000 0
ion-species SG15/$ID_ONCV_PBE.upf
ion-width 0
ionic-minimize  \
	dirUpdateScheme      L-BFGS \
	linminMethod         DirUpdateRecommended \
	nIterations          0 \
	history              15 \
	knormThreshold       0.0001 \
	energyDiffThreshold  1e-06 \
	nEnergyDiff          2 \
	alphaTstart          1 \
	alphaTmin            1e-10 \
	updateTestStepSize   yes \
	alphaTreduceFactor   0.1 \
	alphaTincreaseFactor 3 \
	nAlphaAdjustMax      3 \
	wolfeEnergy          0.0001 \
	wolfeGradient        0.9 \
	fdTest               no
kpoint   0.000000000000   0.000000000000   0.000000000000  1.00000000000000
kpoint-folding 12 12 1 
latt-move-scale 1 1 1
latt-scale 2 2 1 
lattice  \
	   4.727486978767153   -2.363743489383575    0.000000000000000  \
	  -0.000000000000000    4.094123819672498    0.000000000000000  \
	   0.000000000000000    0.000000000000000   40.000000000000000 
lattice-minimize  \
	dirUpdateScheme      L-BFGS \
	linminMethod         DirUpdateRecommended \
	nIterations          0 \
	history              15 \
	knormThreshold       0 \
	energyDiffThreshold  1e-06 \
	nEnergyDiff          2 \
	alphaTstart          1 \
	alphaTmin            1e-10 \
	updateTestStepSize   yes \
	alphaTreduceFactor   0.1 \
	alphaTincreaseFactor 3 \
	nAlphaAdjustMax      3 \
	wolfeEnergy          0.0001 \
	wolfeGradient        0.9 \
	fdTest               no
lcao-params -1 1e-06 1e-05
pcm-variant GLSSA13
spintype z-spin
subspace-rotation-factor 1 yes
symmetries automatic
symmetry-threshold 0.0001



---------- Setting up symmetries ----------

Found 24 point-group symmetries of the bravais lattice
Found 24 space-group symmetries with basis
Applied RMS atom displacement 0 bohrs to make symmetries exact.

---------- Initializing the Grid ----------
R = 
[      9.45497     -4.72749            0  ]
[            0      8.18825            0  ]
[            0            0           40  ]
unit cell volume = 3096.79
G =
[   0.664538   0.383671         -0  ]
[          0   0.767342         -0  ]
[         -0         -0    0.15708  ]
Minimum fftbox size, Smin = [  40  40  164  ]
Chosen fftbox size, S = [  40  40  168  ]

---------- Exchange Correlation functional ----------
Initalized PBE GGA exchange.
Initalized PBE GGA correlation.

---------- Setting up pseudopotentials ----------
Width of ionic core gaussian charges (only for fluid interactions / plotting) set to 0

Reading pseudopotential file '/home/gridsan/aligho/DFT/build-Nov24/pseudopotentials/SG15/Li_ONCV_PBE.upf':
  'Li' pseudopotential, 'PBE' functional
  Generated using ONCVPSP code by D. R. Hamann
  Author: Martin Schlipf and Francois Gygi  Date: 150915.
  3 valence electrons, 2 orbitals, 4 projectors, 1328 radial grid points, with lMax = 1
  Transforming local potential to a uniform radial grid of dG=0.02 with 1489 points.
  Transforming nonlocal projectors to a uniform radial grid of dG=0.02 with 432 points.
    1S    l: 0   occupation:  2.0   eigenvalue: -1.905623
    2S    l: 0   occupation:  1.0   eigenvalue: -0.105624
  Transforming atomic orbitals to a uniform radial grid of dG=0.02 with 432 points.
  WARNING: large normalization error in atomic orbital 1s (integral: 0.000000).
  Core radius for overlap checks: 1.63 bohrs.
  Reading pulay file /home/gridsan/aligho/DFT/build-Nov24/pseudopotentials/SG15/Li_ONCV_PBE.pulay ... using dE_dnG = -1.230239e-02 computed for Ecut = 20.

Initialized 1 species with 1 total atoms.

Folded 1 k-points by 12x12x1 to 144 k-points.

---------- Setting up k-points, bands, fillings ----------
Reduced to 19 k-points under symmetry. 
Computing the number of bands and number of electrons
Calculating initial fillings.
nElectrons:   3.000000   nBands: 3   nStates: 38

----- Setting up reduced wavefunction bases (one per k-point) -----
average nbasis = 13230.521 , ideal nbasis = 13229.709

---------- Setting up coulomb interaction ----------
Initialized slab truncation along lattice direction 001

---------- Setting up 2D ewald sum ----------
Optimum gaussian width for ewald sums = 5.249020 bohr.
Real space sums over 289 unit cells with max indices [  8  8  0  ]
Reciprocal space sums over 81 terms with max indices [  4  4  0  ]

---------- Allocating electronic variables ----------
Initializing wave functions:  linear combination of atomic orbitals
Note: number of bands (3) exceeds available atomic orbitals (2)
Li pseudo-atom occupations:   s ( 2 1 )
	FillingsUpdate:  mu: +0.326837349  nElectrons: 3.000000  magneticMoment: [ Abs: 0.10773  Tot: -0.08000 ]
LCAOMinimize: Iter:   0  F: -1.1809031567789920  |grad|_K:  7.262e-05  alpha:  1.000e+00
	FillingsUpdate:  mu: +0.326836325  nElectrons: 3.000000  magneticMoment: [ Abs: 0.10774  Tot: -0.08000 ]
LCAOMinimize: Iter:   1  F: -1.1809040984947616  |grad|_K:  1.732e-06  alpha:  1.044e+00  linmin: -1.690e-03  cgtest:  2.685e-02  t[s]:      4.01
LCAOMinimize: Encountered beta<0, resetting CG.
[d-3-7-1:31481] 18 more processes have sent help message help-mpi-common-cuda.txt / dlopen failed
[d-3-7-1:31481] Set MCA parameter "orte_base_help_aggregate" to 0 to see all help / error messages
[d-3-7-1:31481] 18 more processes have sent help message help-mpi-btl-openib-cpc-base.txt / no cpcs for port
	FillingsUpdate:  mu: +0.326836315  nElectrons: 3.000000  magneticMoment: [ Abs: 0.10774  Tot: -0.08000 ]
LCAOMinimize: Iter:   2  F: -1.1809040990146262  |grad|_K:  4.495e-08  alpha:  1.015e+00  linmin:  4.142e-04  cgtest: -1.166e-02  t[s]:      5.11
LCAOMinimize: Converged (|Delta F|<1.000000e-06 for 2 iters).


---- Citations for features of the code used in this run ----

   Software package:
      R. Sundararaman, K. Letchworth-Weaver, K.A. Schwarz, D. Gunceler, Y. Ozhabes and T.A. Arias, 'JDFTx: software for joint density-functional theory', SoftwareX 6, 278 (2017)

   gga-PBE exchange-correlation functional:
      J.P. Perdew, K. Burke and M. Ernzerhof, Phys. Rev. Lett. 77, 3865 (1996)

   Pseudopotentials:
      M Schlipf and F Gygi, Comput. Phys. Commun. 196, 36 (2015)

   Truncated Coulomb potentials:
      R. Sundararaman and T.A. Arias, Phys. Rev. B 87, 165122 (2013)

This list may not be complete. Please suggest additional citations or
report any other bugs at https://github.com/shankar1729/jdftx/issues

Initialization completed successfully at t[s]:      5.18


-------- Electronic minimization -----------
Will mix electronic density at each iteration.
	FillingsUpdate:  mu: +0.326836315  nElectrons: 3.000000  magneticMoment: [ Abs: 0.10774  Tot: -0.08000 ]
	FillingsUpdate:  mu: -0.975720836  nElectrons: 3.000000  magneticMoment: [ Abs: 0.10774  Tot: -0.08000 ]
SCF: Cycle:  0   F: -6.829817831689446   dF: -5.649e+00   |Residual|: 1.172e+00   |deigs|: 4.171e+00  t[s]:      6.96
	FillingsUpdate:  mu: -0.863718956  nElectrons: 3.000000  magneticMoment: [ Abs: 0.12850  Tot: -0.08000 ]
SCF: Cycle:  1   F: -6.935915388857070   dF: -1.061e-01   |Residual|: 7.732e-01   |deigs|: 2.332e-01  t[s]:      8.28
	FillingsUpdate:  mu: -0.610315278  nElectrons: 3.000000  magneticMoment: [ Abs: 0.14634  Tot: -0.08000 ]
SCF: Cycle:  2   F: -7.050752201317606   dF: -1.148e-01   |Residual|: 4.206e-01   |deigs|: 7.866e-01  t[s]:      9.60
	FillingsUpdate:  mu: -0.655120294  nElectrons: 3.000000  magneticMoment: [ Abs: 0.13035  Tot: -0.08000 ]
SCF: Cycle:  3   F: -7.058207856173230   dF: -7.456e-03   |Residual|: 2.108e-01   |deigs|: 1.300e-01  t[s]:     11.10
	FillingsUpdate:  mu: -0.618229974  nElectrons: 3.000000  magneticMoment: [ Abs: 0.19655  Tot: -0.08000 ]
SCF: Cycle:  4   F: -7.055721066973569   dF: +2.487e-03   |Residual|: 7.066e-02   |deigs|: 4.176e-02  t[s]:     12.53
	FillingsUpdate:  mu: -0.577961114  nElectrons: 3.000000  magneticMoment: [ Abs: 0.13710  Tot: -0.08000 ]
SCF: Cycle:  5   F: -7.055610436756991   dF: +1.106e-04   |Residual|: 1.670e-01   |deigs|: 3.118e-02  t[s]:     13.97
	FillingsUpdate:  mu: -0.494466018  nElectrons: 3.000000  magneticMoment: [ Abs: 0.19092  Tot: -0.08000 ]
SCF: Cycle:  6   F: -7.060416206645972   dF: -4.806e-03   |Residual|: 3.905e-02   |deigs|: 1.437e-01  t[s]:     15.40
	FillingsUpdate:  mu: -0.423467881  nElectrons: 3.000000  magneticMoment: [ Abs: 0.21791  Tot: -0.08000 ]
SCF: Cycle:  7   F: -7.061513516980902   dF: -1.097e-03   |Residual|: 1.771e-01   |deigs|: 1.171e-01  t[s]:     16.86
	FillingsUpdate:  mu: -0.346089398  nElectrons: 3.000000  magneticMoment: [ Abs: 0.29857  Tot: -0.08000 ]
SCF: Cycle:  8   F: -7.065278846874611   dF: -3.765e-03   |Residual|: 8.406e-02   |deigs|: 7.451e-02  t[s]:     18.35
	FillingsUpdate:  mu: -0.318380989  nElectrons: 3.000000  magneticMoment: [ Abs: 0.36046  Tot: -0.08000 ]
SCF: Cycle:  9   F: -7.064806846584262   dF: +4.720e-04   |Residual|: 1.655e-01   |deigs|: 3.361e-02  t[s]:     19.91
	FillingsUpdate:  mu: -0.280915940  nElectrons: 3.000000  magneticMoment: [ Abs: 0.16639  Tot: -0.08000 ]
SCF: Cycle: 10   F: -7.066263091997890   dF: -1.456e-03   |Residual|: 1.187e-01   |deigs|: 4.386e-02  t[s]:     21.47
	FillingsUpdate:  mu: -0.234500535  nElectrons: 3.000000  magneticMoment: [ Abs: 0.20037  Tot: -0.08000 ]
SCF: Cycle: 11   F: -7.067194241123969   dF: -9.311e-04   |Residual|: 2.808e-02   |deigs|: 9.285e-02  t[s]:     23.05
	FillingsUpdate:  mu: -0.208047596  nElectrons: 3.000000  magneticMoment: [ Abs: 0.13405  Tot: -0.08000 ]
SCF: Cycle: 12   F: -7.067703190903765   dF: -5.089e-04   |Residual|: 1.781e-02   |deigs|: 2.230e-02  t[s]:     24.65
	FillingsUpdate:  mu: -0.168469390  nElectrons: 3.000000  magneticMoment: [ Abs: 0.10560  Tot: -0.08000 ]
SCF: Cycle: 13   F: -7.067906141842696   dF: -2.030e-04   |Residual|: 9.271e-03   |deigs|: 4.029e-02  t[s]:     26.22
	FillingsUpdate:  mu: -0.139721752  nElectrons: 3.000000  magneticMoment: [ Abs: 0.09875  Tot: -0.08000 ]
SCF: Cycle: 14   F: -7.067891965859104   dF: +1.418e-05   |Residual|: 7.950e-03   |deigs|: 2.971e-02  t[s]:     27.79
	FillingsUpdate:  mu: -0.125045748  nElectrons: 3.000000  magneticMoment: [ Abs: 0.09907  Tot: -0.08000 ]
SCF: Cycle: 15   F: -7.067962630787007   dF: -7.066e-05   |Residual|: 6.006e-03   |deigs|: 1.452e-02  t[s]:     29.35
	FillingsUpdate:  mu: -0.116121217  nElectrons: 3.000000  magneticMoment: [ Abs: 0.09196  Tot: -0.08000 ]
SCF: Cycle: 16   F: -7.068093568324512   dF: -1.309e-04   |Residual|: 3.742e-03   |deigs|: 7.960e-03  t[s]:     30.97
	FillingsUpdate:  mu: -0.113143645  nElectrons: 3.000000  magneticMoment: [ Abs: 0.08768  Tot: -0.08000 ]
SCF: Cycle: 17   F: -7.068144439609812   dF: -5.087e-05   |Residual|: 2.319e-03   |deigs|: 3.273e-03  t[s]:     32.60
	FillingsUpdate:  mu: -0.112592645  nElectrons: 3.000000  magneticMoment: [ Abs: 0.08496  Tot: -0.08000 ]
SCF: Cycle: 18   F: -7.068168814804858   dF: -2.438e-05   |Residual|: 1.436e-03   |deigs|: 8.021e-04  t[s]:     34.20
	FillingsUpdate:  mu: -0.112900841  nElectrons: 3.000000  magneticMoment: [ Abs: 0.08293  Tot: -0.08000 ]
SCF: Cycle: 19   F: -7.068176549949107   dF: -7.735e-06   |Residual|: 9.102e-04   |deigs|: 3.606e-04  t[s]:     35.79
	FillingsUpdate:  mu: -0.113109180  nElectrons: 3.000000  magneticMoment: [ Abs: 0.08247  Tot: -0.08000 ]
SCF: Cycle: 20   F: -7.068179694079584   dF: -3.144e-06   |Residual|: 3.692e-04   |deigs|: 3.714e-04  t[s]:     37.34
	FillingsUpdate:  mu: -0.112974581  nElectrons: 3.000000  magneticMoment: [ Abs: 0.08190  Tot: -0.08000 ]
SCF: Cycle: 21   F: -7.068180663947918   dF: -9.699e-07   |Residual|: 2.162e-04   |deigs|: 1.424e-04  t[s]:     38.91
	FillingsUpdate:  mu: -0.112422471  nElectrons: 3.000000  magneticMoment: [ Abs: 0.08165  Tot: -0.08000 ]
SCF: Cycle: 22   F: -7.068181057317919   dF: -3.934e-07   |Residual|: 1.354e-04   |deigs|: 5.770e-04  t[s]:     40.42
	FillingsUpdate:  mu: -0.112133175  nElectrons: 3.000000  magneticMoment: [ Abs: 0.08148  Tot: -0.08000 ]
SCF: Cycle: 23   F: -7.068181201186688   dF: -1.439e-07   |Residual|: 8.433e-05   |deigs|: 3.091e-04  t[s]:     42.07
	FillingsUpdate:  mu: -0.111898081  nElectrons: 3.000000  magneticMoment: [ Abs: 0.08121  Tot: -0.08000 ]
SCF: Cycle: 24   F: -7.068181230512488   dF: -2.933e-08   |Residual|: 6.040e-05   |deigs|: 2.633e-04  t[s]:     43.58
	FillingsUpdate:  mu: -0.111753242  nElectrons: 3.000000  magneticMoment: [ Abs: 0.08099  Tot: -0.08000 ]
SCF: Cycle: 25   F: -7.068181229191895   dF: +1.321e-09   |Residual|: 3.896e-05   |deigs|: 1.508e-04  t[s]:     45.10
	FillingsUpdate:  mu: -0.111709887  nElectrons: 3.000000  magneticMoment: [ Abs: 0.08077  Tot: -0.08000 ]
SCF: Cycle: 26   F: -7.068181233919574   dF: -4.728e-09   |Residual|: 2.964e-05   |deigs|: 6.451e-05  t[s]:     46.66
	FillingsUpdate:  mu: -0.111719275  nElectrons: 3.000000  magneticMoment: [ Abs: 0.08062  Tot: -0.08000 ]
SCF: Cycle: 27   F: -7.068181236025861   dF: -2.106e-09   |Residual|: 2.477e-05   |deigs|: 5.699e-05  t[s]:     48.19
SCF: Converged (|Delta E|<1.000000e-08 for 2 iters).


# Ionic positions in lattice coordinates:
ion Li   0.000000000000000   0.000000000000000   0.000000000000000 0

# Forces in Lattice coordinates:
force Li  -0.000000000000000  -0.000000000000000   0.000000000000000 0

# Energy components:
   Eewald =       -2.0053362333702967
       EH =        1.5276290067021194
     Eloc =       -6.1882655199935268
      Enl =       -3.5905159545600212
   Epulay =        0.0000032255226020
      Exc =       -1.5370014433117021
       KE =        4.7253068136018923
-------------------------------------
     Etot =       -7.0681801054089322
       TS =        0.0000011306169286
-------------------------------------
        F =       -7.0681812360258611

IonicMinimize: Iter:   0  F: -7.068181236025861  |grad|_K:  0.000e+00  t[s]:     48.28
IonicMinimize: Converged (|grad|_K<1.000000e-04).

#--- Lowdin population analysis ---
# oxidation-state Li +2.161
# magnetic-moments Li -0.055

End date and time: Sat Feb  5 22:59:35 2022  (Duration: 0-0:00:48.28)
Done!
scale=3
magnetization=-0.08
--------------------------------------------------------------------------
The library attempted to open the following supporting CUDA libraries,
but each of them failed.  CUDA-aware support is disabled.
libcuda.so.1: cannot open shared object file: No such file or directory
libcuda.dylib: cannot open shared object file: No such file or directory
/usr/lib64/libcuda.so.1: cannot open shared object file: No such file or directory
/usr/lib64/libcuda.dylib: cannot open shared object file: No such file or directory
If you are not interested in CUDA-aware support, then run with
--mca opal_warn_on_missing_libcuda 0 to suppress this message.  If you are interested
in CUDA-aware support, then try setting LD_LIBRARY_PATH to the location
of libcuda.so.1 to get passed this issue.
--------------------------------------------------------------------------
--------------------------------------------------------------------------
No OpenFabrics connection schemes reported that they were able to be
used on a specific port.  As such, the openib BTL (OpenFabrics
support) will be disabled for this port.

  Local host:           d-3-7-1
  Local device:         mlx5_1
  Local port:           1
  CPCs attempted:       rdmacm, udcm
--------------------------------------------------------------------------

*************** JDFTx 1.6.0 (git hash 42ebbcc2) ***************

Start date and time: Sat Feb  5 22:59:36 2022
Executable jdftx with command-line: -i Alkali.in
Running on hosts (process indices):  d-3-7-1 (0-18)
Divided in process groups (process indices):  0 (0)  1 (1)  2 (2)  3 (3)  4 (4)  5 (5)  6 (6)  7 (7)  8 (8)  9 (9)  10 (10)  11 (11)  12 (12)  13 (13)  14 (14)  15 (15)  16 (16)  17 (17)  18 (18)
Resource initialization completed at t[s]:      0.00
Run totals: 19 processes, 48 threads, 0 GPUs


Input parsed successfully to the following command list (including defaults):

basis kpoint-dependent
coords-type Lattice
core-overlap-check vector
coulomb-interaction Slab 001
davidson-band-ratio 1.1
dump End None
dump-name $INPUT.$VAR
elec-cutoff 20
elec-eigen-algo Davidson
elec-ex-corr gga-PBE
elec-initial-magnetization -0.080000 yes
elec-smearing Fermi 1e-05
electronic-minimize  \
	dirUpdateScheme      FletcherReeves \
	linminMethod         DirUpdateRecommended \
	nIterations          100 \
	history              15 \
	knormThreshold       0 \
	energyDiffThreshold  1e-08 \
	nEnergyDiff          2 \
	alphaTstart          1 \
	alphaTmin            1e-10 \
	updateTestStepSize   yes \
	alphaTreduceFactor   0.1 \
	alphaTincreaseFactor 3 \
	nAlphaAdjustMax      3 \
	wolfeEnergy          0.0001 \
	wolfeGradient        0.9 \
	fdTest               no
electronic-scf  \
	nIterations	10000 \
	energyDiffThreshold	1e-08 \
	residualThreshold	1e-07 \
	mixFraction	0.5 \
	qMetric	0.8 \
	history	10 \
	nEigSteps	2 \
	eigDiffThreshold	1e-08 \
	mixedVariable	Density \
	qKerker	0.8 \
	qKappa	-1 \
	verbose	no \
	mixFractionMag	1.5
exchange-regularization WignerSeitzTruncated
fluid None
fluid-ex-corr (null) lda-PZ
fluid-gummel-loop 10 1.000000e-05
fluid-minimize  \
	dirUpdateScheme      PolakRibiere \
	linminMethod         DirUpdateRecommended \
	nIterations          100 \
	history              15 \
	knormThreshold       0 \
	energyDiffThreshold  0 \
	nEnergyDiff          2 \
	alphaTstart          1 \
	alphaTmin            1e-10 \
	updateTestStepSize   yes \
	alphaTreduceFactor   0.1 \
	alphaTincreaseFactor 3 \
	nAlphaAdjustMax      3 \
	wolfeEnergy          0.0001 \
	wolfeGradient        0.9 \
	fdTest               no
fluid-solvent H2O 55.338 ScalarEOS \
	epsBulk 78.4 \
	pMol 0.92466 \
	epsInf 1.77 \
	Pvap 1.06736e-10 \
	sigmaBulk 4.62e-05 \
	Rvdw 2.61727 \
	Res 1.42 \
	tauNuc 343133 \
	poleEl 15 7 1
forces-output-coords Positions
ion Li   0.000000000000000   0.000000000000000   0.000000000000000 0
ion-species SG15/$ID_ONCV_PBE.upf
ion-width 0
ionic-minimize  \
	dirUpdateScheme      L-BFGS \
	linminMethod         DirUpdateRecommended \
	nIterations          0 \
	history              15 \
	knormThreshold       0.0001 \
	energyDiffThreshold  1e-06 \
	nEnergyDiff          2 \
	alphaTstart          1 \
	alphaTmin            1e-10 \
	updateTestStepSize   yes \
	alphaTreduceFactor   0.1 \
	alphaTincreaseFactor 3 \
	nAlphaAdjustMax      3 \
	wolfeEnergy          0.0001 \
	wolfeGradient        0.9 \
	fdTest               no
kpoint   0.000000000000   0.000000000000   0.000000000000  1.00000000000000
kpoint-folding 12 12 1 
latt-move-scale 1 1 1
latt-scale 3 3 1 
lattice  \
	   4.727486978767153   -2.363743489383575    0.000000000000000  \
	  -0.000000000000000    4.094123819672498    0.000000000000000  \
	   0.000000000000000    0.000000000000000   40.000000000000000 
lattice-minimize  \
	dirUpdateScheme      L-BFGS \
	linminMethod         DirUpdateRecommended \
	nIterations          0 \
	history              15 \
	knormThreshold       0 \
	energyDiffThreshold  1e-06 \
	nEnergyDiff          2 \
	alphaTstart          1 \
	alphaTmin            1e-10 \
	updateTestStepSize   yes \
	alphaTreduceFactor   0.1 \
	alphaTincreaseFactor 3 \
	nAlphaAdjustMax      3 \
	wolfeEnergy          0.0001 \
	wolfeGradient        0.9 \
	fdTest               no
lcao-params -1 1e-06 1e-05
pcm-variant GLSSA13
spintype z-spin
subspace-rotation-factor 1 yes
symmetries automatic
symmetry-threshold 0.0001



---------- Setting up symmetries ----------

Found 24 point-group symmetries of the bravais lattice
Found 24 space-group symmetries with basis
Applied RMS atom displacement 0 bohrs to make symmetries exact.

---------- Initializing the Grid ----------
R = 
[      14.1825     -7.09123            0  ]
[            0      12.2824            0  ]
[            0            0           40  ]
unit cell volume = 6967.77
G =
[   0.443025   0.255781         -0  ]
[          0   0.511561         -0  ]
[         -0         -0    0.15708  ]
Minimum fftbox size, Smin = [  60  60  164  ]
Chosen fftbox size, S = [  60  60  168  ]

---------- Exchange Correlation functional ----------
Initalized PBE GGA exchange.
Initalized PBE GGA correlation.

---------- Setting up pseudopotentials ----------
Width of ionic core gaussian charges (only for fluid interactions / plotting) set to 0

Reading pseudopotential file '/home/gridsan/aligho/DFT/build-Nov24/pseudopotentials/SG15/Li_ONCV_PBE.upf':
  'Li' pseudopotential, 'PBE' functional
  Generated using ONCVPSP code by D. R. Hamann
  Author: Martin Schlipf and Francois Gygi  Date: 150915.
  3 valence electrons, 2 orbitals, 4 projectors, 1328 radial grid points, with lMax = 1
  Transforming local potential to a uniform radial grid of dG=0.02 with 1489 points.
  Transforming nonlocal projectors to a uniform radial grid of dG=0.02 with 432 points.
    1S    l: 0   occupation:  2.0   eigenvalue: -1.905623
    2S    l: 0   occupation:  1.0   eigenvalue: -0.105624
  Transforming atomic orbitals to a uniform radial grid of dG=0.02 with 432 points.
  WARNING: large normalization error in atomic orbital 1s (integral: 0.000000).
  Core radius for overlap checks: 1.63 bohrs.
  Reading pulay file /home/gridsan/aligho/DFT/build-Nov24/pseudopotentials/SG15/Li_ONCV_PBE.pulay ... using dE_dnG = -1.230239e-02 computed for Ecut = 20.

Initialized 1 species with 1 total atoms.

Folded 1 k-points by 12x12x1 to 144 k-points.

---------- Setting up k-points, bands, fillings ----------
Reduced to 19 k-points under symmetry. 
Computing the number of bands and number of electrons
Calculating initial fillings.
nElectrons:   3.000000   nBands: 3   nStates: 38

----- Setting up reduced wavefunction bases (one per k-point) -----
average nbasis = 29766.104 , ideal nbasis = 29766.845

---------- Setting up coulomb interaction ----------
Initialized slab truncation along lattice direction 001

---------- Setting up 2D ewald sum ----------
Optimum gaussian width for ewald sums = 7.873530 bohr.
Real space sums over 289 unit cells with max indices [  8  8  0  ]
Reciprocal space sums over 81 terms with max indices [  4  4  0  ]

---------- Allocating electronic variables ----------
Initializing wave functions:  linear combination of atomic orbitals
Note: number of bands (3) exceeds available atomic orbitals (2)
Li pseudo-atom occupations:   s ( 2 1 )
[d-3-7-1:34313] 18 more processes have sent help message help-mpi-common-cuda.txt / dlopen failed
[d-3-7-1:34313] Set MCA parameter "orte_base_help_aggregate" to 0 to see all help / error messages
[d-3-7-1:34313] 18 more processes have sent help message help-mpi-btl-openib-cpc-base.txt / no cpcs for port
	FillingsUpdate:  mu: +0.350873945  nElectrons: 3.000000  magneticMoment: [ Abs: 0.10017  Tot: -0.08000 ]
LCAOMinimize: Iter:   0  F: -1.2889539806745847  |grad|_K:  4.850e-05  alpha:  1.000e+00
	FillingsUpdate:  mu: +0.350873427  nElectrons: 3.000000  magneticMoment: [ Abs: 0.10016  Tot: -0.08000 ]
LCAOMinimize: Iter:   1  F: -1.2889544057761197  |grad|_K:  5.057e-07  alpha:  1.057e+00  linmin: -1.110e-03  cgtest:  9.358e-03  t[s]:      7.63
	FillingsUpdate:  mu: +0.350873426  nElectrons: 3.000000  magneticMoment: [ Abs: 0.10016  Tot: -0.08000 ]
LCAOMinimize: Iter:   2  F: -1.2889544058187965  |grad|_K:  1.584e-08  alpha:  9.723e-01  linmin: -2.131e-02  cgtest:  9.504e-01  t[s]:      9.69
LCAOMinimize: Encountered beta<0, resetting CG.
LCAOMinimize: Converged (|Delta F|<1.000000e-06 for 2 iters).


---- Citations for features of the code used in this run ----

   Software package:
      R. Sundararaman, K. Letchworth-Weaver, K.A. Schwarz, D. Gunceler, Y. Ozhabes and T.A. Arias, 'JDFTx: software for joint density-functional theory', SoftwareX 6, 278 (2017)

   gga-PBE exchange-correlation functional:
      J.P. Perdew, K. Burke and M. Ernzerhof, Phys. Rev. Lett. 77, 3865 (1996)

   Pseudopotentials:
      M Schlipf and F Gygi, Comput. Phys. Commun. 196, 36 (2015)

   Truncated Coulomb potentials:
      R. Sundararaman and T.A. Arias, Phys. Rev. B 87, 165122 (2013)

This list may not be complete. Please suggest additional citations or
report any other bugs at https://github.com/shankar1729/jdftx/issues

Initialization completed successfully at t[s]:      9.78


-------- Electronic minimization -----------
Will mix electronic density at each iteration.
	FillingsUpdate:  mu: +0.350873426  nElectrons: 3.000000  magneticMoment: [ Abs: 0.10016  Tot: -0.08000 ]
	FillingsUpdate:  mu: -0.693654995  nElectrons: 3.000000  magneticMoment: [ Abs: 0.10016  Tot: -0.08000 ]
SCF: Cycle:  0   F: -6.868884112139116   dF: -5.580e+00   |Residual|: 1.224e+00   |deigs|: 4.156e+00  t[s]:     13.23
	FillingsUpdate:  mu: -0.581056526  nElectrons: 3.000000  magneticMoment: [ Abs: 0.12477  Tot: -0.08000 ]
SCF: Cycle:  1   F: -6.913808415098581   dF: -4.492e-02   |Residual|: 7.607e-01   |deigs|: 2.716e-01  t[s]:     15.95
	FillingsUpdate:  mu: -0.318964641  nElectrons: 3.000000  magneticMoment: [ Abs: 0.17575  Tot: -0.08000 ]
SCF: Cycle:  2   F: -7.040877767813170   dF: -1.271e-01   |Residual|: 3.251e-01   |deigs|: 7.184e-01  t[s]:     18.83
	FillingsUpdate:  mu: -0.358234056  nElectrons: 3.000000  magneticMoment: [ Abs: 0.19406  Tot: -0.08000 ]
SCF: Cycle:  3   F: -7.041731172683716   dF: -8.534e-04   |Residual|: 1.793e-01   |deigs|: 8.750e-02  t[s]:     21.68
	FillingsUpdate:  mu: -0.326711087  nElectrons: 3.000000  magneticMoment: [ Abs: 0.24954  Tot: -0.08000 ]
SCF: Cycle:  4   F: -7.037886811938674   dF: +3.844e-03   |Residual|: 1.148e-01   |deigs|: 2.926e-02  t[s]:     24.61
	FillingsUpdate:  mu: -0.316863689  nElectrons: 3.000000  magneticMoment: [ Abs: 0.24312  Tot: -0.08000 ]
SCF: Cycle:  5   F: -7.038584117261459   dF: -6.973e-04   |Residual|: 7.219e-02   |deigs|: 2.429e-02  t[s]:     27.63
	FillingsUpdate:  mu: -0.287811148  nElectrons: 3.000000  magneticMoment: [ Abs: 0.15815  Tot: -0.08000 ]
SCF: Cycle:  6   F: -7.041977854711753   dF: -3.394e-03   |Residual|: 3.272e-02   |deigs|: 6.576e-02  t[s]:     30.71
	FillingsUpdate:  mu: -0.225384965  nElectrons: 3.000000  magneticMoment: [ Abs: 0.20772  Tot: -0.08000 ]
SCF: Cycle:  7   F: -7.044509334701448   dF: -2.531e-03   |Residual|: 1.758e-01   |deigs|: 1.260e-01  t[s]:     33.83
	FillingsUpdate:  mu: -0.226217713  nElectrons: 3.000000  magneticMoment: [ Abs: 0.15022  Tot: -0.08000 ]
SCF: Cycle:  8   F: -7.045557620032174   dF: -1.048e-03   |Residual|: 5.816e-02   |deigs|: 4.688e-02  t[s]:     37.12
	FillingsUpdate:  mu: -0.219201924  nElectrons: 3.000000  magneticMoment: [ Abs: 0.21508  Tot: -0.08000 ]
SCF: Cycle:  9   F: -7.044987905311287   dF: +5.697e-04   |Residual|: 1.409e-01   |deigs|: 8.002e-02  t[s]:     40.40
	FillingsUpdate:  mu: -0.204226603  nElectrons: 3.000000  magneticMoment: [ Abs: 0.24317  Tot: -0.08000 ]
SCF: Cycle: 10   F: -7.045086537923493   dF: -9.863e-05   |Residual|: 1.614e-01   |deigs|: 2.260e-02  t[s]:     43.79
	FillingsUpdate:  mu: -0.172211746  nElectrons: 3.000000  magneticMoment: [ Abs: 0.25040  Tot: -0.08000 ]
SCF: Cycle: 11   F: -7.046283683987707   dF: -1.197e-03   |Residual|: 3.820e-02   |deigs|: 8.665e-02  t[s]:     47.09
	FillingsUpdate:  mu: -0.157285339  nElectrons: 3.000000  magneticMoment: [ Abs: 0.13619  Tot: -0.08000 ]
SCF: Cycle: 12   F: -7.046964432511714   dF: -6.807e-04   |Residual|: 1.213e-02   |deigs|: 1.550e-02  t[s]:     50.44
	FillingsUpdate:  mu: -0.141383985  nElectrons: 3.000000  magneticMoment: [ Abs: 0.13177  Tot: -0.08000 ]
SCF: Cycle: 13   F: -7.047074875897079   dF: -1.104e-04   |Residual|: 7.698e-03   |deigs|: 2.134e-02  t[s]:     53.75
	FillingsUpdate:  mu: -0.128403677  nElectrons: 3.000000  magneticMoment: [ Abs: 0.12122  Tot: -0.08000 ]
SCF: Cycle: 14   F: -7.047072593536257   dF: +2.282e-06   |Residual|: 6.800e-03   |deigs|: 1.345e-02  t[s]:     57.02
	FillingsUpdate:  mu: -0.120418039  nElectrons: 3.000000  magneticMoment: [ Abs: 0.11725  Tot: -0.08000 ]
SCF: Cycle: 15   F: -7.047093565065158   dF: -2.097e-05   |Residual|: 5.336e-03   |deigs|: 6.824e-03  t[s]:     60.40
	FillingsUpdate:  mu: -0.114197139  nElectrons: 3.000000  magneticMoment: [ Abs: 0.10889  Tot: -0.08000 ]
SCF: Cycle: 16   F: -7.047189122997364   dF: -9.556e-05   |Residual|: 4.188e-03   |deigs|: 7.487e-03  t[s]:     63.74
	FillingsUpdate:  mu: -0.108125044  nElectrons: 3.000000  magneticMoment: [ Abs: 0.10098  Tot: -0.08000 ]
SCF: Cycle: 17   F: -7.047328588896439   dF: -1.395e-04   |Residual|: 2.987e-03   |deigs|: 6.842e-03  t[s]:     67.05
	FillingsUpdate:  mu: -0.106287151  nElectrons: 3.000000  magneticMoment: [ Abs: 0.09296  Tot: -0.08000 ]
SCF: Cycle: 18   F: -7.047393790364868   dF: -6.520e-05   |Residual|: 2.099e-03   |deigs|: 2.070e-03  t[s]:     70.35
	FillingsUpdate:  mu: -0.106730797  nElectrons: 3.000000  magneticMoment: [ Abs: 0.08831  Tot: -0.08000 ]
SCF: Cycle: 19   F: -7.047437088480302   dF: -4.330e-05   |Residual|: 1.118e-03   |deigs|: 5.683e-04  t[s]:     73.74
	FillingsUpdate:  mu: -0.107335643  nElectrons: 3.000000  magneticMoment: [ Abs: 0.08552  Tot: -0.08000 ]
SCF: Cycle: 20   F: -7.047451406486883   dF: -1.432e-05   |Residual|: 6.787e-04   |deigs|: 6.793e-04  t[s]:     77.12
	FillingsUpdate:  mu: -0.107551333  nElectrons: 3.000000  magneticMoment: [ Abs: 0.08328  Tot: -0.08000 ]
SCF: Cycle: 21   F: -7.047456603464411   dF: -5.197e-06   |Residual|: 4.454e-04   |deigs|: 2.562e-04  t[s]:     80.32
	FillingsUpdate:  mu: -0.107228598  nElectrons: 3.000000  magneticMoment: [ Abs: 0.08281  Tot: -0.08000 ]
SCF: Cycle: 22   F: -7.047460572818609   dF: -3.969e-06   |Residual|: 2.192e-04   |deigs|: 3.259e-04  t[s]:     83.75
	FillingsUpdate:  mu: -0.106939723  nElectrons: 3.000000  magneticMoment: [ Abs: 0.08235  Tot: -0.08000 ]
SCF: Cycle: 23   F: -7.047461410803042   dF: -8.380e-07   |Residual|: 1.287e-04   |deigs|: 2.784e-04  t[s]:     87.03
	FillingsUpdate:  mu: -0.106758643  nElectrons: 3.000000  magneticMoment: [ Abs: 0.08198  Tot: -0.08000 ]
SCF: Cycle: 24   F: -7.047461636041718   dF: -2.252e-07   |Residual|: 7.749e-05   |deigs|: 1.830e-04  t[s]:     90.28
	FillingsUpdate:  mu: -0.106716500  nElectrons: 3.000000  magneticMoment: [ Abs: 0.08168  Tot: -0.08000 ]
SCF: Cycle: 25   F: -7.047461720274526   dF: -8.423e-08   |Residual|: 5.337e-05   |deigs|: 1.160e-04  t[s]:     93.61
	FillingsUpdate:  mu: -0.106729855  nElectrons: 3.000000  magneticMoment: [ Abs: 0.08140  Tot: -0.08000 ]
SCF: Cycle: 26   F: -7.047461765831601   dF: -4.556e-08   |Residual|: 3.890e-05   |deigs|: 1.126e-04  t[s]:     96.95
	FillingsUpdate:  mu: -0.106742862  nElectrons: 3.000000  magneticMoment: [ Abs: 0.08108  Tot: -0.08000 ]
SCF: Cycle: 27   F: -7.047461792254745   dF: -2.642e-08   |Residual|: 3.193e-05   |deigs|: 1.008e-04  t[s]:    100.23
	FillingsUpdate:  mu: -0.106758922  nElectrons: 3.000000  magneticMoment: [ Abs: 0.08075  Tot: -0.08000 ]
SCF: Cycle: 28   F: -7.047461797266165   dF: -5.011e-09   |Residual|: 2.715e-05   |deigs|: 7.866e-05  t[s]:    103.58
	FillingsUpdate:  mu: -0.106774628  nElectrons: 3.000000  magneticMoment: [ Abs: 0.08049  Tot: -0.08000 ]
SCF: Cycle: 29   F: -7.047461796820282   dF: +4.459e-10   |Residual|: 2.276e-05   |deigs|: 6.379e-05  t[s]:    106.89
	FillingsUpdate:  mu: -0.106790057  nElectrons: 3.000000  magneticMoment: [ Abs: 0.08033  Tot: -0.08000 ]
SCF: Cycle: 30   F: -7.047461799072644   dF: -2.252e-09   |Residual|: 1.867e-05   |deigs|: 5.271e-05  t[s]:    110.23
	FillingsUpdate:  mu: -0.106815666  nElectrons: 3.000000  magneticMoment: [ Abs: 0.08019  Tot: -0.08000 ]
SCF: Cycle: 31   F: -7.047461795324101   dF: +3.749e-09   |Residual|: 1.507e-05   |deigs|: 4.638e-05  t[s]:    113.61
	FillingsUpdate:  mu: -0.106826565  nElectrons: 3.000000  magneticMoment: [ Abs: 0.08012  Tot: -0.08000 ]
SCF: Cycle: 32   F: -7.047461805519045   dF: -1.019e-08   |Residual|: 1.287e-05   |deigs|: 2.953e-05  t[s]:    116.95
	FillingsUpdate:  mu: -0.106827866  nElectrons: 3.000000  magneticMoment: [ Abs: 0.08006  Tot: -0.08000 ]
SCF: Cycle: 33   F: -7.047461809134133   dF: -3.615e-09   |Residual|: 1.116e-05   |deigs|: 1.864e-05  t[s]:    120.32
	FillingsUpdate:  mu: -0.106826534  nElectrons: 3.000000  magneticMoment: [ Abs: 0.08003  Tot: -0.08000 ]
SCF: Cycle: 34   F: -7.047461808854483   dF: +2.797e-10   |Residual|: 8.728e-06   |deigs|: 1.254e-05  t[s]:    123.68
	FillingsUpdate:  mu: -0.106823853  nElectrons: 3.000000  magneticMoment: [ Abs: 0.08001  Tot: -0.08000 ]
SCF: Cycle: 35   F: -7.047461810064228   dF: -1.210e-09   |Residual|: 6.062e-06   |deigs|: 8.735e-06  t[s]:    126.98
	FillingsUpdate:  mu: -0.106825734  nElectrons: 3.000000  magneticMoment: [ Abs: 0.08000  Tot: -0.08000 ]
SCF: Cycle: 36   F: -7.047461812876256   dF: -2.812e-09   |Residual|: 3.627e-06   |deigs|: 7.240e-06  t[s]:    130.28
SCF: Converged (|Delta E|<1.000000e-08 for 2 iters).


# Ionic positions in lattice coordinates:
ion Li   0.000000000000000   0.000000000000000   0.000000000000000 0

# Forces in Lattice coordinates:
force Li  -0.000000000000000  -0.000000000000000   0.000000000000000 0

# Energy components:
   Eewald =       -1.3368908222468645
       EH =        2.1948331651275663
     Eloc =       -7.5330053538377539
      Enl =       -3.6005159725091906
   Epulay =       -0.0000013080581827
      Exc =       -1.5304145812747811
       KE =        4.7585341905398799
-------------------------------------
     Etot =       -7.0474606822593273
       TS =        0.0000011306169286
-------------------------------------
        F =       -7.0474618128762563

IonicMinimize: Iter:   0  F: -7.047461812876256  |grad|_K:  0.000e+00  t[s]:    130.42
IonicMinimize: Converged (|grad|_K<1.000000e-04).

#--- Lowdin population analysis ---
# oxidation-state Li +2.106
# magnetic-moments Li -0.074

End date and time: Sat Feb  5 23:01:47 2022  (Duration: 0-0:02:10.44)
Done!
scale=4
magnetization=-0.08
--------------------------------------------------------------------------
The library attempted to open the following supporting CUDA libraries,
but each of them failed.  CUDA-aware support is disabled.
libcuda.so.1: cannot open shared object file: No such file or directory
libcuda.dylib: cannot open shared object file: No such file or directory
/usr/lib64/libcuda.so.1: cannot open shared object file: No such file or directory
/usr/lib64/libcuda.dylib: cannot open shared object file: No such file or directory
If you are not interested in CUDA-aware support, then run with
--mca opal_warn_on_missing_libcuda 0 to suppress this message.  If you are interested
in CUDA-aware support, then try setting LD_LIBRARY_PATH to the location
of libcuda.so.1 to get passed this issue.
--------------------------------------------------------------------------
--------------------------------------------------------------------------
No OpenFabrics connection schemes reported that they were able to be
used on a specific port.  As such, the openib BTL (OpenFabrics
support) will be disabled for this port.

  Local host:           d-3-7-1
  Local device:         mlx5_1
  Local port:           1
  CPCs attempted:       rdmacm, udcm
--------------------------------------------------------------------------

*************** JDFTx 1.6.0 (git hash 42ebbcc2) ***************

Start date and time: Sat Feb  5 23:01:48 2022
Executable jdftx with command-line: -i Alkali.in
Running on hosts (process indices):  d-3-7-1 (0-18)
Divided in process groups (process indices):  0 (0)  1 (1)  2 (2)  3 (3)  4 (4)  5 (5)  6 (6)  7 (7)  8 (8)  9 (9)  10 (10)  11 (11)  12 (12)  13 (13)  14 (14)  15 (15)  16 (16)  17 (17)  18 (18)
Resource initialization completed at t[s]:      0.00
Run totals: 19 processes, 48 threads, 0 GPUs


Input parsed successfully to the following command list (including defaults):

basis kpoint-dependent
coords-type Lattice
core-overlap-check vector
coulomb-interaction Slab 001
davidson-band-ratio 1.1
dump End None
dump-name $INPUT.$VAR
elec-cutoff 20
elec-eigen-algo Davidson
elec-ex-corr gga-PBE
elec-initial-magnetization -0.080000 yes
elec-smearing Fermi 1e-05
electronic-minimize  \
	dirUpdateScheme      FletcherReeves \
	linminMethod         DirUpdateRecommended \
	nIterations          100 \
	history              15 \
	knormThreshold       0 \
	energyDiffThreshold  1e-08 \
	nEnergyDiff          2 \
	alphaTstart          1 \
	alphaTmin            1e-10 \
	updateTestStepSize   yes \
	alphaTreduceFactor   0.1 \
	alphaTincreaseFactor 3 \
	nAlphaAdjustMax      3 \
	wolfeEnergy          0.0001 \
	wolfeGradient        0.9 \
	fdTest               no
electronic-scf  \
	nIterations	10000 \
	energyDiffThreshold	1e-08 \
	residualThreshold	1e-07 \
	mixFraction	0.5 \
	qMetric	0.8 \
	history	10 \
	nEigSteps	2 \
	eigDiffThreshold	1e-08 \
	mixedVariable	Density \
	qKerker	0.8 \
	qKappa	-1 \
	verbose	no \
	mixFractionMag	1.5
exchange-regularization WignerSeitzTruncated
fluid None
fluid-ex-corr (null) lda-PZ
fluid-gummel-loop 10 1.000000e-05
fluid-minimize  \
	dirUpdateScheme      PolakRibiere \
	linminMethod         DirUpdateRecommended \
	nIterations          100 \
	history              15 \
	knormThreshold       0 \
	energyDiffThreshold  0 \
	nEnergyDiff          2 \
	alphaTstart          1 \
	alphaTmin            1e-10 \
	updateTestStepSize   yes \
	alphaTreduceFactor   0.1 \
	alphaTincreaseFactor 3 \
	nAlphaAdjustMax      3 \
	wolfeEnergy          0.0001 \
	wolfeGradient        0.9 \
	fdTest               no
fluid-solvent H2O 55.338 ScalarEOS \
	epsBulk 78.4 \
	pMol 0.92466 \
	epsInf 1.77 \
	Pvap 1.06736e-10 \
	sigmaBulk 4.62e-05 \
	Rvdw 2.61727 \
	Res 1.42 \
	tauNuc 343133 \
	poleEl 15 7 1
forces-output-coords Positions
ion Li   0.000000000000000   0.000000000000000   0.000000000000000 0
ion-species SG15/$ID_ONCV_PBE.upf
ion-width 0
ionic-minimize  \
	dirUpdateScheme      L-BFGS \
	linminMethod         DirUpdateRecommended \
	nIterations          0 \
	history              15 \
	knormThreshold       0.0001 \
	energyDiffThreshold  1e-06 \
	nEnergyDiff          2 \
	alphaTstart          1 \
	alphaTmin            1e-10 \
	updateTestStepSize   yes \
	alphaTreduceFactor   0.1 \
	alphaTincreaseFactor 3 \
	nAlphaAdjustMax      3 \
	wolfeEnergy          0.0001 \
	wolfeGradient        0.9 \
	fdTest               no
kpoint   0.000000000000   0.000000000000   0.000000000000  1.00000000000000
kpoint-folding 12 12 1 
latt-move-scale 1 1 1
latt-scale 4 4 1 
lattice  \
	   4.727486978767153   -2.363743489383575    0.000000000000000  \
	  -0.000000000000000    4.094123819672498    0.000000000000000  \
	   0.000000000000000    0.000000000000000   40.000000000000000 
lattice-minimize  \
	dirUpdateScheme      L-BFGS \
	linminMethod         DirUpdateRecommended \
	nIterations          0 \
	history              15 \
	knormThreshold       0 \
	energyDiffThreshold  1e-06 \
	nEnergyDiff          2 \
	alphaTstart          1 \
	alphaTmin            1e-10 \
	updateTestStepSize   yes \
	alphaTreduceFactor   0.1 \
	alphaTincreaseFactor 3 \
	nAlphaAdjustMax      3 \
	wolfeEnergy          0.0001 \
	wolfeGradient        0.9 \
	fdTest               no
lcao-params -1 1e-06 1e-05
pcm-variant GLSSA13
spintype z-spin
subspace-rotation-factor 1 yes
symmetries automatic
symmetry-threshold 0.0001



---------- Setting up symmetries ----------

Found 24 point-group symmetries of the bravais lattice
Found 24 space-group symmetries with basis
Applied RMS atom displacement 0 bohrs to make symmetries exact.

---------- Initializing the Grid ----------
R = 
[      18.9099     -9.45497            0  ]
[            0      16.3765            0  ]
[            0            0           40  ]
unit cell volume = 12387.1
G =
[   0.332269   0.191835         -0  ]
[          0   0.383671         -0  ]
[         -0         -0    0.15708  ]
Minimum fftbox size, Smin = [  80  80  164  ]
Chosen fftbox size, S = [  80  80  168  ]

---------- Exchange Correlation functional ----------
Initalized PBE GGA exchange.
Initalized PBE GGA correlation.

---------- Setting up pseudopotentials ----------
Width of ionic core gaussian charges (only for fluid interactions / plotting) set to 0

Reading pseudopotential file '/home/gridsan/aligho/DFT/build-Nov24/pseudopotentials/SG15/Li_ONCV_PBE.upf':
  'Li' pseudopotential, 'PBE' functional
  Generated using ONCVPSP code by D. R. Hamann
  Author: Martin Schlipf and Francois Gygi  Date: 150915.
  3 valence electrons, 2 orbitals, 4 projectors, 1328 radial grid points, with lMax = 1
  Transforming local potential to a uniform radial grid of dG=0.02 with 1489 points.
  Transforming nonlocal projectors to a uniform radial grid of dG=0.02 with 432 points.
    1S    l: 0   occupation:  2.0   eigenvalue: -1.905623
    2S    l: 0   occupation:  1.0   eigenvalue: -0.105624
  Transforming atomic orbitals to a uniform radial grid of dG=0.02 with 432 points.
  WARNING: large normalization error in atomic orbital 1s (integral: 0.000000).
  Core radius for overlap checks: 1.63 bohrs.
  Reading pulay file /home/gridsan/aligho/DFT/build-Nov24/pseudopotentials/SG15/Li_ONCV_PBE.pulay ... using dE_dnG = -1.230239e-02 computed for Ecut = 20.

Initialized 1 species with 1 total atoms.

Folded 1 k-points by 12x12x1 to 144 k-points.

---------- Setting up k-points, bands, fillings ----------
Reduced to 19 k-points under symmetry. 
Computing the number of bands and number of electrons
Calculating initial fillings.
nElectrons:   3.000000   nBands: 3   nStates: 38

----- Setting up reduced wavefunction bases (one per k-point) -----
average nbasis = 52924.021 , ideal nbasis = 52918.836

---------- Setting up coulomb interaction ----------
Initialized slab truncation along lattice direction 001

---------- Setting up 2D ewald sum ----------
Optimum gaussian width for ewald sums = 10.498040 bohr.
Real space sums over 289 unit cells with max indices [  8  8  0  ]
Reciprocal space sums over 81 terms with max indices [  4  4  0  ]

---------- Allocating electronic variables ----------
Initializing wave functions:  linear combination of atomic orbitals
Note: number of bands (3) exceeds available atomic orbitals (2)
Li pseudo-atom occupations:   s ( 2 1 )
[d-3-7-1:47723] 18 more processes have sent help message help-mpi-common-cuda.txt / dlopen failed
[d-3-7-1:47723] Set MCA parameter "orte_base_help_aggregate" to 0 to see all help / error messages
[d-3-7-1:47723] 18 more processes have sent help message help-mpi-btl-openib-cpc-base.txt / no cpcs for port
	FillingsUpdate:  mu: +0.364072235  nElectrons: 3.000000  magneticMoment: [ Abs: 0.08795  Tot: -0.08000 ]
LCAOMinimize: Iter:   0  F: -1.3120673559326890  |grad|_K:  4.099e-05  alpha:  1.000e+00
	FillingsUpdate:  mu: +0.364071682  nElectrons: 3.000000  magneticMoment: [ Abs: 0.08795  Tot: -0.08000 ]
LCAOMinimize: Iter:   1  F: -1.3120676600179164  |grad|_K:  7.556e-08  alpha:  1.059e+00  linmin: -9.611e-03  cgtest:  3.913e-02  t[s]:     12.79
LCAOMinimize: Encountered beta<0, resetting CG.
LCAOMinimize: 	Wrong curvature in test step, increasing alphaT to 3.175689e+00.
	FillingsUpdate:  mu: +0.364071682  nElectrons: 3.000000  magneticMoment: [ Abs: 0.08795  Tot: -0.08000 ]
LCAOMinimize: Iter:   2  F: -1.3120676600225640  |grad|_K:  4.410e-09  alpha: -4.239e-01  linmin:  1.031e-02  cgtest: -9.967e-01  t[s]:     16.01
LCAOMinimize: Converged (|Delta F|<1.000000e-06 for 2 iters).


---- Citations for features of the code used in this run ----

   Software package:
      R. Sundararaman, K. Letchworth-Weaver, K.A. Schwarz, D. Gunceler, Y. Ozhabes and T.A. Arias, 'JDFTx: software for joint density-functional theory', SoftwareX 6, 278 (2017)

   gga-PBE exchange-correlation functional:
      J.P. Perdew, K. Burke and M. Ernzerhof, Phys. Rev. Lett. 77, 3865 (1996)

   Pseudopotentials:
      M Schlipf and F Gygi, Comput. Phys. Commun. 196, 36 (2015)

   Truncated Coulomb potentials:
      R. Sundararaman and T.A. Arias, Phys. Rev. B 87, 165122 (2013)

This list may not be complete. Please suggest additional citations or
report any other bugs at https://github.com/shankar1729/jdftx/issues

Initialization completed successfully at t[s]:     16.15


-------- Electronic minimization -----------
Will mix electronic density at each iteration.
	FillingsUpdate:  mu: +0.364071682  nElectrons: 3.000000  magneticMoment: [ Abs: 0.08795  Tot: -0.08000 ]
	FillingsUpdate:  mu: -0.614600013  nElectrons: 3.000000  magneticMoment: [ Abs: 0.08795  Tot: -0.08000 ]
SCF: Cycle:  0   F: -6.867937103863029   dF: -5.556e+00   |Residual|: 1.229e+00   |deigs|: 4.155e+00  t[s]:     21.78
	FillingsUpdate:  mu: -0.497442262  nElectrons: 3.000000  magneticMoment: [ Abs: 0.13876  Tot: -0.08000 ]
SCF: Cycle:  1   F: -6.913293914879199   dF: -4.536e-02   |Residual|: 7.596e-01   |deigs|: 2.749e-01  t[s]:     26.28
	FillingsUpdate:  mu: -0.223738509  nElectrons: 3.000000  magneticMoment: [ Abs: 0.17692  Tot: -0.08000 ]
SCF: Cycle:  2   F: -7.038835948368798   dF: -1.255e-01   |Residual|: 3.151e-01   |deigs|: 7.160e-01  t[s]:     30.97
	FillingsUpdate:  mu: -0.271335839  nElectrons: 3.000000  magneticMoment: [ Abs: 0.19753  Tot: -0.08000 ]
SCF: Cycle:  3   F: -7.038452401338359   dF: +3.835e-04   |Residual|: 1.830e-01   |deigs|: 8.310e-02  t[s]:     35.77
	FillingsUpdate:  mu: -0.238451137  nElectrons: 3.000000  magneticMoment: [ Abs: 0.24628  Tot: -0.08000 ]
SCF: Cycle:  4   F: -7.034108974772676   dF: +4.343e-03   |Residual|: 1.230e-01   |deigs|: 2.982e-02  t[s]:     40.69
	FillingsUpdate:  mu: -0.228318632  nElectrons: 3.000000  magneticMoment: [ Abs: 0.18872  Tot: -0.08000 ]
SCF: Cycle:  5   F: -7.035935297011621   dF: -1.826e-03   |Residual|: 8.060e-02   |deigs|: 2.798e-02  t[s]:     45.69
	FillingsUpdate:  mu: -0.212675968  nElectrons: 3.000000  magneticMoment: [ Abs: 0.18253  Tot: -0.08000 ]
SCF: Cycle:  6   F: -7.039015474443683   dF: -3.080e-03   |Residual|: 1.901e-02   |deigs|: 4.536e-02  t[s]:     50.80
	FillingsUpdate:  mu: -0.179056810  nElectrons: 3.000000  magneticMoment: [ Abs: 0.14606  Tot: -0.08000 ]
SCF: Cycle:  7   F: -7.042404725838283   dF: -3.389e-03   |Residual|: 1.070e-01   |deigs|: 7.627e-02  t[s]:     56.07
	FillingsUpdate:  mu: -0.176633230  nElectrons: 3.000000  magneticMoment: [ Abs: 0.18937  Tot: -0.08000 ]
SCF: Cycle:  8   F: -7.043193986647538   dF: -7.893e-04   |Residual|: 2.892e-02   |deigs|: 2.472e-02  t[s]:     61.42
	FillingsUpdate:  mu: -0.179295635  nElectrons: 3.000000  magneticMoment: [ Abs: 0.23649  Tot: -0.08000 ]
SCF: Cycle:  9   F: -7.043243654234931   dF: -4.967e-05   |Residual|: 7.987e-02   |deigs|: 4.405e-02  t[s]:     66.90
	FillingsUpdate:  mu: -0.174516711  nElectrons: 3.000000  magneticMoment: [ Abs: 0.18882  Tot: -0.08000 ]
SCF: Cycle: 10   F: -7.043729009121968   dF: -4.854e-04   |Residual|: 5.927e-02   |deigs|: 3.590e-03  t[s]:     72.45
	FillingsUpdate:  mu: -0.161056061  nElectrons: 3.000000  magneticMoment: [ Abs: 0.37639  Tot: -0.08000 ]
SCF: Cycle: 11   F: -7.043195274728636   dF: +5.337e-04   |Residual|: 3.665e-02   |deigs|: 3.301e-02  t[s]:     78.06
	FillingsUpdate:  mu: -0.149586937  nElectrons: 3.000000  magneticMoment: [ Abs: 0.21088  Tot: -0.08000 ]
SCF: Cycle: 12   F: -7.044202111295598   dF: -1.007e-03   |Residual|: 1.348e-02   |deigs|: 1.022e-02  t[s]:     83.62
	FillingsUpdate:  mu: -0.131828807  nElectrons: 3.000000  magneticMoment: [ Abs: 0.23570  Tot: -0.08000 ]
SCF: Cycle: 13   F: -7.044403543912264   dF: -2.014e-04   |Residual|: 7.780e-03   |deigs|: 2.819e-02  t[s]:     89.15
	FillingsUpdate:  mu: -0.119178343  nElectrons: 3.000000  magneticMoment: [ Abs: 0.17627  Tot: -0.08000 ]
SCF: Cycle: 14   F: -7.044503540902838   dF: -1.000e-04   |Residual|: 6.749e-03   |deigs|: 1.335e-02  t[s]:     94.70
	FillingsUpdate:  mu: -0.116291796  nElectrons: 3.000000  magneticMoment: [ Abs: 0.13490  Tot: -0.08000 ]
SCF: Cycle: 15   F: -7.044511514673408   dF: -7.974e-06   |Residual|: 4.820e-03   |deigs|: 2.457e-03  t[s]:    100.26
	FillingsUpdate:  mu: -0.112195317  nElectrons: 3.000000  magneticMoment: [ Abs: 0.11536  Tot: -0.08000 ]
SCF: Cycle: 16   F: -7.044501297375101   dF: +1.022e-05   |Residual|: 3.437e-03   |deigs|: 3.771e-03  t[s]:    105.82
	FillingsUpdate:  mu: -0.109922625  nElectrons: 3.000000  magneticMoment: [ Abs: 0.10644  Tot: -0.08000 ]
SCF: Cycle: 17   F: -7.044523247610839   dF: -2.195e-05   |Residual|: 2.605e-03   |deigs|: 2.271e-03  t[s]:    111.39
	FillingsUpdate:  mu: -0.107518645  nElectrons: 3.000000  magneticMoment: [ Abs: 0.10016  Tot: -0.08000 ]
SCF: Cycle: 18   F: -7.044518015179534   dF: +5.232e-06   |Residual|: 1.987e-03   |deigs|: 2.478e-03  t[s]:    117.03
	FillingsUpdate:  mu: -0.105703270  nElectrons: 3.000000  magneticMoment: [ Abs: 0.09634  Tot: -0.08000 ]
SCF: Cycle: 19   F: -7.044531947860065   dF: -1.393e-05   |Residual|: 1.271e-03   |deigs|: 1.889e-03  t[s]:    122.64
	FillingsUpdate:  mu: -0.105324884  nElectrons: 3.000000  magneticMoment: [ Abs: 0.09126  Tot: -0.08000 ]
SCF: Cycle: 20   F: -7.044549062051916   dF: -1.711e-05   |Residual|: 9.418e-04   |deigs|: 3.698e-04  t[s]:    128.16
	FillingsUpdate:  mu: -0.105770871  nElectrons: 3.000000  magneticMoment: [ Abs: 0.08620  Tot: -0.08000 ]
SCF: Cycle: 21   F: -7.044562490906850   dF: -1.343e-05   |Residual|: 6.367e-04   |deigs|: 4.309e-04  t[s]:    133.73
	FillingsUpdate:  mu: -0.105957821  nElectrons: 3.000000  magneticMoment: [ Abs: 0.08459  Tot: -0.08000 ]
SCF: Cycle: 22   F: -7.044569788999492   dF: -7.298e-06   |Residual|: 5.043e-04   |deigs|: 1.920e-04  t[s]:    139.25
	FillingsUpdate:  mu: -0.105957810  nElectrons: 3.000000  magneticMoment: [ Abs: 0.08391  Tot: -0.08000 ]
SCF: Cycle: 23   F: -7.044575752640616   dF: -5.964e-06   |Residual|: 3.195e-04   |deigs|: 1.024e-04  t[s]:    144.87
	FillingsUpdate:  mu: -0.105808475  nElectrons: 3.000000  magneticMoment: [ Abs: 0.08278  Tot: -0.08000 ]
SCF: Cycle: 24   F: -7.044578913931804   dF: -3.161e-06   |Residual|: 2.171e-04   |deigs|: 1.829e-04  t[s]:    150.44
	FillingsUpdate:  mu: -0.105632322  nElectrons: 3.000000  magneticMoment: [ Abs: 0.08173  Tot: -0.08000 ]
SCF: Cycle: 25   F: -7.044580192659068   dF: -1.279e-06   |Residual|: 1.540e-04   |deigs|: 1.634e-04  t[s]:    156.00
	FillingsUpdate:  mu: -0.105500521  nElectrons: 3.000000  magneticMoment: [ Abs: 0.08111  Tot: -0.08000 ]
SCF: Cycle: 26   F: -7.044580720293090   dF: -5.276e-07   |Residual|: 9.129e-05   |deigs|: 1.272e-04  t[s]:    161.57
	FillingsUpdate:  mu: -0.105464507  nElectrons: 3.000000  magneticMoment: [ Abs: 0.08079  Tot: -0.08000 ]
SCF: Cycle: 27   F: -7.044580907065886   dF: -1.868e-07   |Residual|: 6.393e-05   |deigs|: 7.158e-05  t[s]:    167.14
	FillingsUpdate:  mu: -0.105484609  nElectrons: 3.000000  magneticMoment: [ Abs: 0.08067  Tot: -0.08000 ]
SCF: Cycle: 28   F: -7.044580961640675   dF: -5.457e-08   |Residual|: 4.840e-05   |deigs|: 6.977e-05  t[s]:    172.71
	FillingsUpdate:  mu: -0.105523804  nElectrons: 3.000000  magneticMoment: [ Abs: 0.08048  Tot: -0.08000 ]
SCF: Cycle: 29   F: -7.044580965363808   dF: -3.723e-09   |Residual|: 3.289e-05   |deigs|: 7.534e-05  t[s]:    178.24
	FillingsUpdate:  mu: -0.105555594  nElectrons: 3.000000  magneticMoment: [ Abs: 0.08032  Tot: -0.08000 ]
SCF: Cycle: 30   F: -7.044581022044238   dF: -5.668e-08   |Residual|: 2.319e-05   |deigs|: 6.530e-05  t[s]:    183.73
	FillingsUpdate:  mu: -0.105578895  nElectrons: 3.000000  magneticMoment: [ Abs: 0.08023  Tot: -0.08000 ]
SCF: Cycle: 31   F: -7.044580996783268   dF: +2.526e-08   |Residual|: 1.790e-05   |deigs|: 5.419e-05  t[s]:    189.29
	FillingsUpdate:  mu: -0.105600158  nElectrons: 3.000000  magneticMoment: [ Abs: 0.08016  Tot: -0.08000 ]
SCF: Cycle: 32   F: -7.044581004117118   dF: -7.334e-09   |Residual|: 1.340e-05   |deigs|: 4.785e-05  t[s]:    194.82
	FillingsUpdate:  mu: -0.105610543  nElectrons: 3.000000  magneticMoment: [ Abs: 0.08013  Tot: -0.08000 ]
SCF: Cycle: 33   F: -7.044581034378887   dF: -3.026e-08   |Residual|: 1.036e-05   |deigs|: 3.540e-05  t[s]:    200.51
	FillingsUpdate:  mu: -0.105614821  nElectrons: 3.000000  magneticMoment: [ Abs: 0.08008  Tot: -0.08000 ]
SCF: Cycle: 34   F: -7.044581023144700   dF: +1.123e-08   |Residual|: 8.410e-06   |deigs|: 2.829e-05  t[s]:    206.18
	FillingsUpdate:  mu: -0.105616178  nElectrons: 3.000000  magneticMoment: [ Abs: 0.08006  Tot: -0.08000 ]
SCF: Cycle: 35   F: -7.044581040388547   dF: -1.724e-08   |Residual|: 6.754e-06   |deigs|: 2.293e-05  t[s]:    211.75
	FillingsUpdate:  mu: -0.105615232  nElectrons: 3.000000  magneticMoment: [ Abs: 0.08004  Tot: -0.08000 ]
SCF: Cycle: 36   F: -7.044581042844486   dF: -2.456e-09   |Residual|: 5.725e-06   |deigs|: 1.959e-05  t[s]:    217.27
	FillingsUpdate:  mu: -0.105613234  nElectrons: 3.000000  magneticMoment: [ Abs: 0.08003  Tot: -0.08000 ]
SCF: Cycle: 37   F: -7.044581046282949   dF: -3.438e-09   |Residual|: 4.547e-06   |deigs|: 1.672e-05  t[s]:    222.81
SCF: Converged (|Delta E|<1.000000e-08 for 2 iters).


# Ionic positions in lattice coordinates:
ion Li   0.000000000000000   0.000000000000000   0.000000000000000 0

# Forces in Lattice coordinates:
force Li   0.000000000000000  -0.000000000000000   0.000000000000000 0

# Energy components:
   Eewald =       -1.0026681166851483
       EH =        2.5454082877145474
     Eloc =       -8.2229324735592755
      Enl =       -3.6031797508493089
   Epulay =        0.0000051497655618
      Exc =       -1.5340613418362588
       KE =        4.7728484163260010
-------------------------------------
     Etot =       -7.0445798291238813
       TS =        0.0000012171590677
-------------------------------------
        F =       -7.0445810462829490

IonicMinimize: Iter:   0  F: -7.044581046282949  |grad|_K:  0.000e+00  t[s]:    223.06
IonicMinimize: Converged (|grad|_K<1.000000e-04).

#--- Lowdin population analysis ---
# oxidation-state Li +2.082
# magnetic-moments Li -0.074

End date and time: Sat Feb  5 23:05:31 2022  (Duration: 0-0:03:43.09)
Done!
