The alkali metal is Li
scale=2
magnetization=0.58
--------------------------------------------------------------------------
The library attempted to open the following supporting CUDA libraries,
but each of them failed.  CUDA-aware support is disabled.
libcuda.so.1: cannot open shared object file: No such file or directory
libcuda.dylib: cannot open shared object file: No such file or directory
/usr/lib64/libcuda.so.1: cannot open shared object file: No such file or directory
/usr/lib64/libcuda.dylib: cannot open shared object file: No such file or directory
If you are not interested in CUDA-aware support, then run with
--mca opal_warn_on_missing_libcuda 0 to suppress this message.  If you are interested
in CUDA-aware support, then try setting LD_LIBRARY_PATH to the location
of libcuda.so.1 to get passed this issue.
--------------------------------------------------------------------------
--------------------------------------------------------------------------
No OpenFabrics connection schemes reported that they were able to be
used on a specific port.  As such, the openib BTL (OpenFabrics
support) will be disabled for this port.

  Local host:           d-4-6-1
  Local device:         mlx5_1
  Local port:           1
  CPCs attempted:       rdmacm, udcm
--------------------------------------------------------------------------

*************** JDFTx 1.6.0 (git hash 42ebbcc2) ***************

Start date and time: Sat Feb  5 23:06:42 2022
Executable jdftx with command-line: -i Alkali.in
Running on hosts (process indices):  d-4-6-1 (0-18)
Divided in process groups (process indices):  0 (0)  1 (1)  2 (2)  3 (3)  4 (4)  5 (5)  6 (6)  7 (7)  8 (8)  9 (9)  10 (10)  11 (11)  12 (12)  13 (13)  14 (14)  15 (15)  16 (16)  17 (17)  18 (18)
Resource initialization completed at t[s]:      0.00
Run totals: 19 processes, 48 threads, 0 GPUs


Input parsed successfully to the following command list (including defaults):

basis kpoint-dependent
coords-type Lattice
core-overlap-check vector
coulomb-interaction Slab 001
davidson-band-ratio 1.1
dump End None
dump-name $INPUT.$VAR
elec-cutoff 20
elec-eigen-algo Davidson
elec-ex-corr gga-PBE
elec-initial-magnetization 0.580000 yes
elec-smearing Fermi 1e-05
electronic-minimize  \
	dirUpdateScheme      FletcherReeves \
	linminMethod         DirUpdateRecommended \
	nIterations          100 \
	history              15 \
	knormThreshold       0 \
	energyDiffThreshold  1e-08 \
	nEnergyDiff          2 \
	alphaTstart          1 \
	alphaTmin            1e-10 \
	updateTestStepSize   yes \
	alphaTreduceFactor   0.1 \
	alphaTincreaseFactor 3 \
	nAlphaAdjustMax      3 \
	wolfeEnergy          0.0001 \
	wolfeGradient        0.9 \
	fdTest               no
electronic-scf  \
	nIterations	10000 \
	energyDiffThreshold	1e-08 \
	residualThreshold	1e-07 \
	mixFraction	0.5 \
	qMetric	0.8 \
	history	10 \
	nEigSteps	2 \
	eigDiffThreshold	1e-08 \
	mixedVariable	Density \
	qKerker	0.8 \
	qKappa	-1 \
	verbose	no \
	mixFractionMag	1.5
exchange-regularization WignerSeitzTruncated
fluid None
fluid-ex-corr (null) lda-PZ
fluid-gummel-loop 10 1.000000e-05
fluid-minimize  \
	dirUpdateScheme      PolakRibiere \
	linminMethod         DirUpdateRecommended \
	nIterations          100 \
	history              15 \
	knormThreshold       0 \
	energyDiffThreshold  0 \
	nEnergyDiff          2 \
	alphaTstart          1 \
	alphaTmin            1e-10 \
	updateTestStepSize   yes \
	alphaTreduceFactor   0.1 \
	alphaTincreaseFactor 3 \
	nAlphaAdjustMax      3 \
	wolfeEnergy          0.0001 \
	wolfeGradient        0.9 \
	fdTest               no
fluid-solvent H2O 55.338 ScalarEOS \
	epsBulk 78.4 \
	pMol 0.92466 \
	epsInf 1.77 \
	Pvap 1.06736e-10 \
	sigmaBulk 4.62e-05 \
	Rvdw 2.61727 \
	Res 1.42 \
	tauNuc 343133 \
	poleEl 15 7 1
forces-output-coords Positions
ion Li   0.000000000000000   0.000000000000000   0.000000000000000 0
ion-species SG15/$ID_ONCV_PBE.upf
ion-width 0
ionic-minimize  \
	dirUpdateScheme      L-BFGS \
	linminMethod         DirUpdateRecommended \
	nIterations          0 \
	history              15 \
	knormThreshold       0.0001 \
	energyDiffThreshold  1e-06 \
	nEnergyDiff          2 \
	alphaTstart          1 \
	alphaTmin            1e-10 \
	updateTestStepSize   yes \
	alphaTreduceFactor   0.1 \
	alphaTincreaseFactor 3 \
	nAlphaAdjustMax      3 \
	wolfeEnergy          0.0001 \
	wolfeGradient        0.9 \
	fdTest               no
kpoint   0.000000000000   0.000000000000   0.000000000000  1.00000000000000
kpoint-folding 12 12 1 
latt-move-scale 1 1 1
latt-scale 2 2 1 
lattice  \
	   4.727486978767153   -2.363743489383575    0.000000000000000  \
	  -0.000000000000000    4.094123819672498    0.000000000000000  \
	   0.000000000000000    0.000000000000000   40.000000000000000 
lattice-minimize  \
	dirUpdateScheme      L-BFGS \
	linminMethod         DirUpdateRecommended \
	nIterations          0 \
	history              15 \
	knormThreshold       0 \
	energyDiffThreshold  1e-06 \
	nEnergyDiff          2 \
	alphaTstart          1 \
	alphaTmin            1e-10 \
	updateTestStepSize   yes \
	alphaTreduceFactor   0.1 \
	alphaTincreaseFactor 3 \
	nAlphaAdjustMax      3 \
	wolfeEnergy          0.0001 \
	wolfeGradient        0.9 \
	fdTest               no
lcao-params -1 1e-06 1e-05
pcm-variant GLSSA13
spintype z-spin
subspace-rotation-factor 1 yes
symmetries automatic
symmetry-threshold 0.0001



---------- Setting up symmetries ----------

Found 24 point-group symmetries of the bravais lattice
Found 24 space-group symmetries with basis
Applied RMS atom displacement 0 bohrs to make symmetries exact.

---------- Initializing the Grid ----------
R = 
[      9.45497     -4.72749            0  ]
[            0      8.18825            0  ]
[            0            0           40  ]
unit cell volume = 3096.79
G =
[   0.664538   0.383671         -0  ]
[          0   0.767342         -0  ]
[         -0         -0    0.15708  ]
Minimum fftbox size, Smin = [  40  40  164  ]
Chosen fftbox size, S = [  40  40  168  ]

---------- Exchange Correlation functional ----------
Initalized PBE GGA exchange.
Initalized PBE GGA correlation.

---------- Setting up pseudopotentials ----------
Width of ionic core gaussian charges (only for fluid interactions / plotting) set to 0

Reading pseudopotential file '/home/gridsan/aligho/DFT/build-Nov24/pseudopotentials/SG15/Li_ONCV_PBE.upf':
  'Li' pseudopotential, 'PBE' functional
  Generated using ONCVPSP code by D. R. Hamann
  Author: Martin Schlipf and Francois Gygi  Date: 150915.
  3 valence electrons, 2 orbitals, 4 projectors, 1328 radial grid points, with lMax = 1
  Transforming local potential to a uniform radial grid of dG=0.02 with 1489 points.
  Transforming nonlocal projectors to a uniform radial grid of dG=0.02 with 432 points.
    1S    l: 0   occupation:  2.0   eigenvalue: -1.905623
    2S    l: 0   occupation:  1.0   eigenvalue: -0.105624
  Transforming atomic orbitals to a uniform radial grid of dG=0.02 with 432 points.
  WARNING: large normalization error in atomic orbital 1s (integral: 0.000000).
  Core radius for overlap checks: 1.63 bohrs.
  Reading pulay file /home/gridsan/aligho/DFT/build-Nov24/pseudopotentials/SG15/Li_ONCV_PBE.pulay ... using dE_dnG = -1.230239e-02 computed for Ecut = 20.

Initialized 1 species with 1 total atoms.

Folded 1 k-points by 12x12x1 to 144 k-points.

---------- Setting up k-points, bands, fillings ----------
Reduced to 19 k-points under symmetry. 
Computing the number of bands and number of electrons
Calculating initial fillings.
nElectrons:   3.000000   nBands: 3   nStates: 38

----- Setting up reduced wavefunction bases (one per k-point) -----
average nbasis = 13230.521 , ideal nbasis = 13229.709

---------- Setting up coulomb interaction ----------
Initialized slab truncation along lattice direction 001

---------- Setting up 2D ewald sum ----------
Optimum gaussian width for ewald sums = 5.249020 bohr.
Real space sums over 289 unit cells with max indices [  8  8  0  ]
Reciprocal space sums over 81 terms with max indices [  4  4  0  ]

---------- Allocating electronic variables ----------
Initializing wave functions:  linear combination of atomic orbitals
Note: number of bands (3) exceeds available atomic orbitals (2)
Li pseudo-atom occupations:   s ( 2 1 )
	FillingsUpdate:  mu: +0.311830193  nElectrons: 3.000000  magneticMoment: [ Abs: 0.58000  Tot: +0.58000 ]
LCAOMinimize: Iter:   0  F: -1.1653910327184345  |grad|_K:  6.442e-05  alpha:  1.000e+00
	FillingsUpdate:  mu: +0.311828328  nElectrons: 3.000000  magneticMoment: [ Abs: 0.58000  Tot: +0.58000 ]
LCAOMinimize: Iter:   1  F: -1.1653917753791729  |grad|_K:  1.513e-06  alpha:  1.047e+00  linmin: -1.967e-03  cgtest:  2.534e-02  t[s]:      3.99
LCAOMinimize: Encountered beta<0, resetting CG.
[d-4-6-1:44219] 18 more processes have sent help message help-mpi-common-cuda.txt / dlopen failed
[d-4-6-1:44219] Set MCA parameter "orte_base_help_aggregate" to 0 to see all help / error messages
[d-4-6-1:44219] 18 more processes have sent help message help-mpi-btl-openib-cpc-base.txt / no cpcs for port
	FillingsUpdate:  mu: +0.311828339  nElectrons: 3.000000  magneticMoment: [ Abs: 0.58000  Tot: +0.58000 ]
LCAOMinimize: Iter:   2  F: -1.1653917757781314  |grad|_K:  4.745e-08  alpha:  1.018e+00  linmin:  1.125e-03  cgtest: -2.812e-02  t[s]:      5.08
LCAOMinimize: Converged (|Delta F|<1.000000e-06 for 2 iters).


---- Citations for features of the code used in this run ----

   Software package:
      R. Sundararaman, K. Letchworth-Weaver, K.A. Schwarz, D. Gunceler, Y. Ozhabes and T.A. Arias, 'JDFTx: software for joint density-functional theory', SoftwareX 6, 278 (2017)

   gga-PBE exchange-correlation functional:
      J.P. Perdew, K. Burke and M. Ernzerhof, Phys. Rev. Lett. 77, 3865 (1996)

   Pseudopotentials:
      M Schlipf and F Gygi, Comput. Phys. Commun. 196, 36 (2015)

   Truncated Coulomb potentials:
      R. Sundararaman and T.A. Arias, Phys. Rev. B 87, 165122 (2013)

This list may not be complete. Please suggest additional citations or
report any other bugs at https://github.com/shankar1729/jdftx/issues

Initialization completed successfully at t[s]:      5.15


-------- Electronic minimization -----------
Will mix electronic density at each iteration.
	FillingsUpdate:  mu: +0.311828339  nElectrons: 3.000000  magneticMoment: [ Abs: 0.58000  Tot: +0.58000 ]
	FillingsUpdate:  mu: -0.989416235  nElectrons: 3.000000  magneticMoment: [ Abs: 0.58000  Tot: +0.58000 ]
SCF: Cycle:  0   F: -6.830033983992056   dF: -5.665e+00   |Residual|: 1.172e+00   |deigs|: 4.170e+00  t[s]:      6.83
	FillingsUpdate:  mu: -0.870922636  nElectrons: 3.000000  magneticMoment: [ Abs: 0.92447  Tot: +0.58000 ]
SCF: Cycle:  1   F: -6.934886887920625   dF: -1.049e-01   |Residual|: 7.752e-01   |deigs|: 2.362e-01  t[s]:      8.14
	FillingsUpdate:  mu: -0.666624949  nElectrons: 3.000000  magneticMoment: [ Abs: 1.19401  Tot: +0.58000 ]
SCF: Cycle:  2   F: -7.045596266233197   dF: -1.107e-01   |Residual|: 4.182e-01   |deigs|: 7.742e-01  t[s]:      9.51
	FillingsUpdate:  mu: -0.680395929  nElectrons: 3.000000  magneticMoment: [ Abs: 1.00168  Tot: +0.58000 ]
SCF: Cycle:  3   F: -7.053825886949598   dF: -8.230e-03   |Residual|: 1.968e-01   |deigs|: 1.268e-01  t[s]:     10.88
	FillingsUpdate:  mu: -0.627556043  nElectrons: 3.000000  magneticMoment: [ Abs: 0.75982  Tot: +0.58000 ]
SCF: Cycle:  4   F: -7.053176464437737   dF: +6.494e-04   |Residual|: 4.625e-02   |deigs|: 4.108e-02  t[s]:     12.28
	FillingsUpdate:  mu: -0.606862966  nElectrons: 3.000000  magneticMoment: [ Abs: 0.74716  Tot: +0.58000 ]
SCF: Cycle:  5   F: -7.053618923868120   dF: -4.425e-04   |Residual|: 8.823e-02   |deigs|: 1.634e-02  t[s]:     13.70
	FillingsUpdate:  mu: -0.466424659  nElectrons: 3.000000  magneticMoment: [ Abs: 0.83946  Tot: +0.58000 ]
SCF: Cycle:  6   F: -7.058216520880039   dF: -4.598e-03   |Residual|: 1.198e-01   |deigs|: 1.566e-01  t[s]:     15.16
	FillingsUpdate:  mu: -0.444269096  nElectrons: 3.000000  magneticMoment: [ Abs: 0.77578  Tot: +0.58000 ]
SCF: Cycle:  7   F: -7.059261914797057   dF: -1.045e-03   |Residual|: 4.189e-02   |deigs|: 5.747e-02  t[s]:     16.64
	FillingsUpdate:  mu: -0.405514240  nElectrons: 3.000000  magneticMoment: [ Abs: 0.73438  Tot: +0.58000 ]
SCF: Cycle:  8   F: -7.061072662151384   dF: -1.811e-03   |Residual|: 7.171e-02   |deigs|: 4.430e-02  t[s]:     18.16
	FillingsUpdate:  mu: -0.369479715  nElectrons: 3.000000  magneticMoment: [ Abs: 0.69209  Tot: +0.58000 ]
SCF: Cycle:  9   F: -7.062876520080651   dF: -1.804e-03   |Residual|: 2.429e-02   |deigs|: 3.147e-02  t[s]:     19.65
	FillingsUpdate:  mu: -0.334778859  nElectrons: 3.000000  magneticMoment: [ Abs: 0.69890  Tot: +0.58000 ]
SCF: Cycle: 10   F: -7.063601538055758   dF: -7.250e-04   |Residual|: 3.192e-02   |deigs|: 2.961e-02  t[s]:     21.20
	FillingsUpdate:  mu: -0.287268178  nElectrons: 3.000000  magneticMoment: [ Abs: 0.75420  Tot: +0.58000 ]
SCF: Cycle: 11   F: -7.064149215750025   dF: -5.477e-04   |Residual|: 2.000e-02   |deigs|: 5.228e-02  t[s]:     22.74
	FillingsUpdate:  mu: -0.241736881  nElectrons: 3.000000  magneticMoment: [ Abs: 0.75886  Tot: +0.58000 ]
SCF: Cycle: 12   F: -7.064475042943574   dF: -3.258e-04   |Residual|: 1.316e-02   |deigs|: 4.969e-02  t[s]:     24.28
	FillingsUpdate:  mu: -0.199318389  nElectrons: 3.000000  magneticMoment: [ Abs: 0.72835  Tot: +0.58000 ]
SCF: Cycle: 13   F: -7.064813747209676   dF: -3.387e-04   |Residual|: 1.173e-02   |deigs|: 4.214e-02  t[s]:     25.82
	FillingsUpdate:  mu: -0.165366473  nElectrons: 3.000000  magneticMoment: [ Abs: 0.68705  Tot: +0.58000 ]
SCF: Cycle: 14   F: -7.064858898757437   dF: -4.515e-05   |Residual|: 9.236e-03   |deigs|: 3.599e-02  t[s]:     27.41
	FillingsUpdate:  mu: -0.134948071  nElectrons: 3.000000  magneticMoment: [ Abs: 0.66323  Tot: +0.58000 ]
SCF: Cycle: 15   F: -7.064893791305076   dF: -3.489e-05   |Residual|: 7.117e-03   |deigs|: 3.030e-02  t[s]:     28.94
	FillingsUpdate:  mu: -0.121826163  nElectrons: 3.000000  magneticMoment: [ Abs: 0.65134  Tot: +0.58000 ]
SCF: Cycle: 16   F: -7.065114340216434   dF: -2.205e-04   |Residual|: 5.324e-03   |deigs|: 1.317e-02  t[s]:     30.45
	FillingsUpdate:  mu: -0.115617436  nElectrons: 3.000000  magneticMoment: [ Abs: 0.62883  Tot: +0.58000 ]
SCF: Cycle: 17   F: -7.065257301056330   dF: -1.430e-04   |Residual|: 3.360e-03   |deigs|: 5.893e-03  t[s]:     31.97
	FillingsUpdate:  mu: -0.113365849  nElectrons: 3.000000  magneticMoment: [ Abs: 0.60844  Tot: +0.58000 ]
SCF: Cycle: 18   F: -7.065331364166648   dF: -7.406e-05   |Residual|: 2.071e-03   |deigs|: 2.280e-03  t[s]:     33.50
	FillingsUpdate:  mu: -0.113303544  nElectrons: 3.000000  magneticMoment: [ Abs: 0.59791  Tot: +0.58000 ]
SCF: Cycle: 19   F: -7.065351802686155   dF: -2.044e-05   |Residual|: 1.444e-03   |deigs|: 6.617e-04  t[s]:     35.05
	FillingsUpdate:  mu: -0.113363682  nElectrons: 3.000000  magneticMoment: [ Abs: 0.59171  Tot: +0.58000 ]
SCF: Cycle: 20   F: -7.065360304342920   dF: -8.502e-06   |Residual|: 9.125e-04   |deigs|: 5.813e-04  t[s]:     36.68
	FillingsUpdate:  mu: -0.112682844  nElectrons: 3.000000  magneticMoment: [ Abs: 0.58906  Tot: +0.58000 ]
SCF: Cycle: 21   F: -7.065365933047856   dF: -5.629e-06   |Residual|: 6.983e-04   |deigs|: 8.891e-04  t[s]:     38.21
	FillingsUpdate:  mu: -0.112042584  nElectrons: 3.000000  magneticMoment: [ Abs: 0.58685  Tot: +0.58000 ]
SCF: Cycle: 22   F: -7.065366179442566   dF: -2.464e-07   |Residual|: 5.487e-04   |deigs|: 8.343e-04  t[s]:     39.72
	FillingsUpdate:  mu: -0.111553680  nElectrons: 3.000000  magneticMoment: [ Abs: 0.58464  Tot: +0.58000 ]
SCF: Cycle: 23   F: -7.065367408093657   dF: -1.229e-06   |Residual|: 4.109e-04   |deigs|: 5.585e-04  t[s]:     41.24
	FillingsUpdate:  mu: -0.111140347  nElectrons: 3.000000  magneticMoment: [ Abs: 0.58258  Tot: +0.58000 ]
SCF: Cycle: 24   F: -7.065367148769326   dF: +2.593e-07   |Residual|: 3.460e-04   |deigs|: 4.117e-04  t[s]:     42.73
	FillingsUpdate:  mu: -0.110859565  nElectrons: 3.000000  magneticMoment: [ Abs: 0.58167  Tot: +0.58000 ]
SCF: Cycle: 25   F: -7.065368874140156   dF: -1.725e-06   |Residual|: 2.159e-04   |deigs|: 2.727e-04  t[s]:     44.30
	FillingsUpdate:  mu: -0.110695074  nElectrons: 3.000000  magneticMoment: [ Abs: 0.58078  Tot: +0.58000 ]
SCF: Cycle: 26   F: -7.065369630642788   dF: -7.565e-07   |Residual|: 1.270e-04   |deigs|: 1.422e-04  t[s]:     45.83
	FillingsUpdate:  mu: -0.110648439  nElectrons: 3.000000  magneticMoment: [ Abs: 0.58045  Tot: +0.58000 ]
SCF: Cycle: 27   F: -7.065369789105127   dF: -1.585e-07   |Residual|: 6.635e-05   |deigs|: 5.695e-05  t[s]:     47.34
	FillingsUpdate:  mu: -0.110636563  nElectrons: 3.000000  magneticMoment: [ Abs: 0.58020  Tot: +0.58000 ]
SCF: Cycle: 28   F: -7.065369828282037   dF: -3.918e-08   |Residual|: 3.657e-05   |deigs|: 1.376e-04  t[s]:     48.90
	FillingsUpdate:  mu: -0.110630196  nElectrons: 3.000000  magneticMoment: [ Abs: 0.58008  Tot: +0.58000 ]
SCF: Cycle: 29   F: -7.065369841342135   dF: -1.306e-08   |Residual|: 2.434e-05   |deigs|: 1.640e-04  t[s]:     50.42
	FillingsUpdate:  mu: -0.110629647  nElectrons: 3.000000  magneticMoment: [ Abs: 0.58006  Tot: +0.58000 ]
SCF: Cycle: 30   F: -7.065369847988316   dF: -6.646e-09   |Residual|: 1.423e-05   |deigs|: 3.163e-05  t[s]:     51.96
	FillingsUpdate:  mu: -0.110631149  nElectrons: 3.000000  magneticMoment: [ Abs: 0.58003  Tot: +0.58000 ]
SCF: Cycle: 31   F: -7.065369850562836   dF: -2.575e-09   |Residual|: 8.383e-06   |deigs|: 3.828e-05  t[s]:     53.49
SCF: Converged (|Delta E|<1.000000e-08 for 2 iters).


# Ionic positions in lattice coordinates:
ion Li   0.000000000000000   0.000000000000000   0.000000000000000 0

# Forces in Lattice coordinates:
force Li  -0.000000000000000   0.000000000000000   0.000000000000000 0

# Energy components:
   Eewald =       -2.0053362333702967
       EH =        1.5353960601441479
     Eloc =       -6.1972197083657390
      Enl =       -3.5901193765717254
   Epulay =        0.0000032255226020
      Exc =       -1.5408706194627557
       KE =        4.7327775579404419
-------------------------------------
     Etot =       -7.0653690941633256
       TS =        0.0000007563995105
-------------------------------------
        F =       -7.0653698505628357

IonicMinimize: Iter:   0  F: -7.065369850562836  |grad|_K:  0.000e+00  t[s]:     53.60
IonicMinimize: Converged (|grad|_K<1.000000e-04).

#--- Lowdin population analysis ---
# oxidation-state Li +2.204
# magnetic-moments Li +0.403

End date and time: Sat Feb  5 23:07:36 2022  (Duration: 0-0:00:53.61)
Done!
scale=3
magnetization=0.58
--------------------------------------------------------------------------
The library attempted to open the following supporting CUDA libraries,
but each of them failed.  CUDA-aware support is disabled.
libcuda.so.1: cannot open shared object file: No such file or directory
libcuda.dylib: cannot open shared object file: No such file or directory
/usr/lib64/libcuda.so.1: cannot open shared object file: No such file or directory
/usr/lib64/libcuda.dylib: cannot open shared object file: No such file or directory
If you are not interested in CUDA-aware support, then run with
--mca opal_warn_on_missing_libcuda 0 to suppress this message.  If you are interested
in CUDA-aware support, then try setting LD_LIBRARY_PATH to the location
of libcuda.so.1 to get passed this issue.
--------------------------------------------------------------------------
--------------------------------------------------------------------------
No OpenFabrics connection schemes reported that they were able to be
used on a specific port.  As such, the openib BTL (OpenFabrics
support) will be disabled for this port.

  Local host:           d-4-6-1
  Local device:         mlx5_1
  Local port:           1
  CPCs attempted:       rdmacm, udcm
--------------------------------------------------------------------------

*************** JDFTx 1.6.0 (git hash 42ebbcc2) ***************

Start date and time: Sat Feb  5 23:07:37 2022
Executable jdftx with command-line: -i Alkali.in
Running on hosts (process indices):  d-4-6-1 (0-18)
Divided in process groups (process indices):  0 (0)  1 (1)  2 (2)  3 (3)  4 (4)  5 (5)  6 (6)  7 (7)  8 (8)  9 (9)  10 (10)  11 (11)  12 (12)  13 (13)  14 (14)  15 (15)  16 (16)  17 (17)  18 (18)
Resource initialization completed at t[s]:      0.00
Run totals: 19 processes, 48 threads, 0 GPUs


Input parsed successfully to the following command list (including defaults):

basis kpoint-dependent
coords-type Lattice
core-overlap-check vector
coulomb-interaction Slab 001
davidson-band-ratio 1.1
dump End None
dump-name $INPUT.$VAR
elec-cutoff 20
elec-eigen-algo Davidson
elec-ex-corr gga-PBE
elec-initial-magnetization 0.580000 yes
elec-smearing Fermi 1e-05
electronic-minimize  \
	dirUpdateScheme      FletcherReeves \
	linminMethod         DirUpdateRecommended \
	nIterations          100 \
	history              15 \
	knormThreshold       0 \
	energyDiffThreshold  1e-08 \
	nEnergyDiff          2 \
	alphaTstart          1 \
	alphaTmin            1e-10 \
	updateTestStepSize   yes \
	alphaTreduceFactor   0.1 \
	alphaTincreaseFactor 3 \
	nAlphaAdjustMax      3 \
	wolfeEnergy          0.0001 \
	wolfeGradient        0.9 \
	fdTest               no
electronic-scf  \
	nIterations	10000 \
	energyDiffThreshold	1e-08 \
	residualThreshold	1e-07 \
	mixFraction	0.5 \
	qMetric	0.8 \
	history	10 \
	nEigSteps	2 \
	eigDiffThreshold	1e-08 \
	mixedVariable	Density \
	qKerker	0.8 \
	qKappa	-1 \
	verbose	no \
	mixFractionMag	1.5
exchange-regularization WignerSeitzTruncated
fluid None
fluid-ex-corr (null) lda-PZ
fluid-gummel-loop 10 1.000000e-05
fluid-minimize  \
	dirUpdateScheme      PolakRibiere \
	linminMethod         DirUpdateRecommended \
	nIterations          100 \
	history              15 \
	knormThreshold       0 \
	energyDiffThreshold  0 \
	nEnergyDiff          2 \
	alphaTstart          1 \
	alphaTmin            1e-10 \
	updateTestStepSize   yes \
	alphaTreduceFactor   0.1 \
	alphaTincreaseFactor 3 \
	nAlphaAdjustMax      3 \
	wolfeEnergy          0.0001 \
	wolfeGradient        0.9 \
	fdTest               no
fluid-solvent H2O 55.338 ScalarEOS \
	epsBulk 78.4 \
	pMol 0.92466 \
	epsInf 1.77 \
	Pvap 1.06736e-10 \
	sigmaBulk 4.62e-05 \
	Rvdw 2.61727 \
	Res 1.42 \
	tauNuc 343133 \
	poleEl 15 7 1
forces-output-coords Positions
ion Li   0.000000000000000   0.000000000000000   0.000000000000000 0
ion-species SG15/$ID_ONCV_PBE.upf
ion-width 0
ionic-minimize  \
	dirUpdateScheme      L-BFGS \
	linminMethod         DirUpdateRecommended \
	nIterations          0 \
	history              15 \
	knormThreshold       0.0001 \
	energyDiffThreshold  1e-06 \
	nEnergyDiff          2 \
	alphaTstart          1 \
	alphaTmin            1e-10 \
	updateTestStepSize   yes \
	alphaTreduceFactor   0.1 \
	alphaTincreaseFactor 3 \
	nAlphaAdjustMax      3 \
	wolfeEnergy          0.0001 \
	wolfeGradient        0.9 \
	fdTest               no
kpoint   0.000000000000   0.000000000000   0.000000000000  1.00000000000000
kpoint-folding 12 12 1 
latt-move-scale 1 1 1
latt-scale 3 3 1 
lattice  \
	   4.727486978767153   -2.363743489383575    0.000000000000000  \
	  -0.000000000000000    4.094123819672498    0.000000000000000  \
	   0.000000000000000    0.000000000000000   40.000000000000000 
lattice-minimize  \
	dirUpdateScheme      L-BFGS \
	linminMethod         DirUpdateRecommended \
	nIterations          0 \
	history              15 \
	knormThreshold       0 \
	energyDiffThreshold  1e-06 \
	nEnergyDiff          2 \
	alphaTstart          1 \
	alphaTmin            1e-10 \
	updateTestStepSize   yes \
	alphaTreduceFactor   0.1 \
	alphaTincreaseFactor 3 \
	nAlphaAdjustMax      3 \
	wolfeEnergy          0.0001 \
	wolfeGradient        0.9 \
	fdTest               no
lcao-params -1 1e-06 1e-05
pcm-variant GLSSA13
spintype z-spin
subspace-rotation-factor 1 yes
symmetries automatic
symmetry-threshold 0.0001



---------- Setting up symmetries ----------

Found 24 point-group symmetries of the bravais lattice
Found 24 space-group symmetries with basis
Applied RMS atom displacement 0 bohrs to make symmetries exact.

---------- Initializing the Grid ----------
R = 
[      14.1825     -7.09123            0  ]
[            0      12.2824            0  ]
[            0            0           40  ]
unit cell volume = 6967.77
G =
[   0.443025   0.255781         -0  ]
[          0   0.511561         -0  ]
[         -0         -0    0.15708  ]
Minimum fftbox size, Smin = [  60  60  164  ]
Chosen fftbox size, S = [  60  60  168  ]

---------- Exchange Correlation functional ----------
Initalized PBE GGA exchange.
Initalized PBE GGA correlation.

---------- Setting up pseudopotentials ----------
Width of ionic core gaussian charges (only for fluid interactions / plotting) set to 0

Reading pseudopotential file '/home/gridsan/aligho/DFT/build-Nov24/pseudopotentials/SG15/Li_ONCV_PBE.upf':
  'Li' pseudopotential, 'PBE' functional
  Generated using ONCVPSP code by D. R. Hamann
  Author: Martin Schlipf and Francois Gygi  Date: 150915.
  3 valence electrons, 2 orbitals, 4 projectors, 1328 radial grid points, with lMax = 1
  Transforming local potential to a uniform radial grid of dG=0.02 with 1489 points.
  Transforming nonlocal projectors to a uniform radial grid of dG=0.02 with 432 points.
    1S    l: 0   occupation:  2.0   eigenvalue: -1.905623
    2S    l: 0   occupation:  1.0   eigenvalue: -0.105624
  Transforming atomic orbitals to a uniform radial grid of dG=0.02 with 432 points.
  WARNING: large normalization error in atomic orbital 1s (integral: 0.000000).
  Core radius for overlap checks: 1.63 bohrs.
  Reading pulay file /home/gridsan/aligho/DFT/build-Nov24/pseudopotentials/SG15/Li_ONCV_PBE.pulay ... using dE_dnG = -1.230239e-02 computed for Ecut = 20.

Initialized 1 species with 1 total atoms.

Folded 1 k-points by 12x12x1 to 144 k-points.

---------- Setting up k-points, bands, fillings ----------
Reduced to 19 k-points under symmetry. 
Computing the number of bands and number of electrons
Calculating initial fillings.
nElectrons:   3.000000   nBands: 3   nStates: 38

----- Setting up reduced wavefunction bases (one per k-point) -----
average nbasis = 29766.104 , ideal nbasis = 29766.845

---------- Setting up coulomb interaction ----------
Initialized slab truncation along lattice direction 001

---------- Setting up 2D ewald sum ----------
Optimum gaussian width for ewald sums = 7.873530 bohr.
Real space sums over 289 unit cells with max indices [  8  8  0  ]
Reciprocal space sums over 81 terms with max indices [  4  4  0  ]

---------- Allocating electronic variables ----------
Initializing wave functions:  linear combination of atomic orbitals
Note: number of bands (3) exceeds available atomic orbitals (2)
Li pseudo-atom occupations:   s ( 2 1 )
[d-4-6-1:90480] 18 more processes have sent help message help-mpi-common-cuda.txt / dlopen failed
[d-4-6-1:90480] Set MCA parameter "orte_base_help_aggregate" to 0 to see all help / error messages
[d-4-6-1:90480] 18 more processes have sent help message help-mpi-btl-openib-cpc-base.txt / no cpcs for port
	FillingsUpdate:  mu: +0.356518279  nElectrons: 3.000000  magneticMoment: [ Abs: 0.58000  Tot: +0.58000 ]
LCAOMinimize: Iter:   0  F: -1.2864399443573895  |grad|_K:  4.770e-05  alpha:  1.000e+00
	FillingsUpdate:  mu: +0.356517797  nElectrons: 3.000000  magneticMoment: [ Abs: 0.58000  Tot: +0.58000 ]
LCAOMinimize: Iter:   1  F: -1.2864403561376185  |grad|_K:  3.962e-07  alpha:  1.058e+00  linmin: -1.751e-03  cgtest:  1.085e-02  t[s]:      7.52
LCAOMinimize: Encountered beta<0, resetting CG.
	FillingsUpdate:  mu: +0.356517799  nElectrons: 3.000000  magneticMoment: [ Abs: 0.58000  Tot: +0.58000 ]
LCAOMinimize: Iter:   2  F: -1.2864403561691033  |grad|_K:  2.721e-08  alpha:  9.591e-01  linmin: -2.390e-02  cgtest:  8.612e-01  t[s]:      9.58
LCAOMinimize: Encountered beta<0, resetting CG.
LCAOMinimize: Converged (|Delta F|<1.000000e-06 for 2 iters).


---- Citations for features of the code used in this run ----

   Software package:
      R. Sundararaman, K. Letchworth-Weaver, K.A. Schwarz, D. Gunceler, Y. Ozhabes and T.A. Arias, 'JDFTx: software for joint density-functional theory', SoftwareX 6, 278 (2017)

   gga-PBE exchange-correlation functional:
      J.P. Perdew, K. Burke and M. Ernzerhof, Phys. Rev. Lett. 77, 3865 (1996)

   Pseudopotentials:
      M Schlipf and F Gygi, Comput. Phys. Commun. 196, 36 (2015)

   Truncated Coulomb potentials:
      R. Sundararaman and T.A. Arias, Phys. Rev. B 87, 165122 (2013)

This list may not be complete. Please suggest additional citations or
report any other bugs at https://github.com/shankar1729/jdftx/issues

Initialization completed successfully at t[s]:      9.68


-------- Electronic minimization -----------
Will mix electronic density at each iteration.
	FillingsUpdate:  mu: +0.356517799  nElectrons: 3.000000  magneticMoment: [ Abs: 0.58000  Tot: +0.58000 ]
	FillingsUpdate:  mu: -0.696584069  nElectrons: 3.000000  magneticMoment: [ Abs: 0.58000  Tot: +0.58000 ]
SCF: Cycle:  0   F: -6.876230088762078   dF: -5.590e+00   |Residual|: 1.225e+00   |deigs|: 4.156e+00  t[s]:     13.16
	FillingsUpdate:  mu: -0.568370266  nElectrons: 3.000000  magneticMoment: [ Abs: 0.93021  Tot: +0.58000 ]
SCF: Cycle:  1   F: -6.917374971049844   dF: -4.114e-02   |Residual|: 7.637e-01   |deigs|: 2.744e-01  t[s]:     15.84
	FillingsUpdate:  mu: -0.363963534  nElectrons: 3.000000  magneticMoment: [ Abs: 1.27159  Tot: +0.58000 ]
SCF: Cycle:  2   F: -7.038851051793846   dF: -1.215e-01   |Residual|: 3.312e-01   |deigs|: 7.080e-01  t[s]:     18.69
	FillingsUpdate:  mu: -0.372937543  nElectrons: 3.000000  magneticMoment: [ Abs: 1.14895  Tot: +0.58000 ]
SCF: Cycle:  3   F: -7.040405309617220   dF: -1.554e-03   |Residual|: 1.827e-01   |deigs|: 8.047e-02  t[s]:     21.59
	FillingsUpdate:  mu: -0.329469076  nElectrons: 3.000000  magneticMoment: [ Abs: 0.97066  Tot: +0.58000 ]
SCF: Cycle:  4   F: -7.042610269226726   dF: -2.205e-03   |Residual|: 3.987e-02   |deigs|: 3.405e-02  t[s]:     24.46
	FillingsUpdate:  mu: -0.310680935  nElectrons: 3.000000  magneticMoment: [ Abs: 0.90546  Tot: +0.58000 ]
SCF: Cycle:  5   F: -7.042687941341713   dF: -7.767e-05   |Residual|: 8.176e-02   |deigs|: 1.868e-02  t[s]:     27.46
	FillingsUpdate:  mu: -0.274300083  nElectrons: 3.000000  magneticMoment: [ Abs: 0.73805  Tot: +0.58000 ]
SCF: Cycle:  6   F: -7.045295724035227   dF: -2.608e-03   |Residual|: 4.667e-02   |deigs|: 6.872e-02  t[s]:     30.47
	FillingsUpdate:  mu: -0.257042154  nElectrons: 3.000000  magneticMoment: [ Abs: 0.69018  Tot: +0.58000 ]
SCF: Cycle:  7   F: -7.046786765475710   dF: -1.491e-03   |Residual|: 5.502e-02   |deigs|: 4.713e-02  t[s]:     33.55
	FillingsUpdate:  mu: -0.255272645  nElectrons: 3.000000  magneticMoment: [ Abs: 0.65385  Tot: +0.58000 ]
SCF: Cycle:  8   F: -7.046980001903580   dF: -1.932e-04   |Residual|: 6.137e-02   |deigs|: 1.985e-03  t[s]:     36.76
	FillingsUpdate:  mu: -0.229449702  nElectrons: 3.000000  magneticMoment: [ Abs: 0.65303  Tot: +0.58000 ]
SCF: Cycle:  9   F: -7.048086776829858   dF: -1.107e-03   |Residual|: 4.790e-02   |deigs|: 3.096e-02  t[s]:     40.02
	FillingsUpdate:  mu: -0.200003869  nElectrons: 3.000000  magneticMoment: [ Abs: 0.71722  Tot: +0.58000 ]
SCF: Cycle: 10   F: -7.048565133142305   dF: -4.784e-04   |Residual|: 5.352e-02   |deigs|: 2.615e-02  t[s]:     43.27
	FillingsUpdate:  mu: -0.181809877  nElectrons: 3.000000  magneticMoment: [ Abs: 0.74806  Tot: +0.58000 ]
SCF: Cycle: 11   F: -7.048875296391469   dF: -3.102e-04   |Residual|: 1.167e-02   |deigs|: 2.540e-02  t[s]:     46.52
	FillingsUpdate:  mu: -0.169686342  nElectrons: 3.000000  magneticMoment: [ Abs: 0.74700  Tot: +0.58000 ]
SCF: Cycle: 12   F: -7.049175498470543   dF: -3.002e-04   |Residual|: 1.206e-02   |deigs|: 1.236e-02  t[s]:     49.80
	FillingsUpdate:  mu: -0.144585945  nElectrons: 3.000000  magneticMoment: [ Abs: 0.74561  Tot: +0.58000 ]
SCF: Cycle: 13   F: -7.048975760553646   dF: +1.997e-04   |Residual|: 8.054e-03   |deigs|: 2.814e-02  t[s]:     53.08
	FillingsUpdate:  mu: -0.135686668  nElectrons: 3.000000  magneticMoment: [ Abs: 0.72257  Tot: +0.58000 ]
SCF: Cycle: 14   F: -7.048953502522196   dF: +2.226e-05   |Residual|: 7.049e-03   |deigs|: 7.628e-03  t[s]:     56.35
	FillingsUpdate:  mu: -0.124217330  nElectrons: 3.000000  magneticMoment: [ Abs: 0.69261  Tot: +0.58000 ]
SCF: Cycle: 15   F: -7.049063216272541   dF: -1.097e-04   |Residual|: 6.374e-03   |deigs|: 1.179e-02  t[s]:     59.56
	FillingsUpdate:  mu: -0.115339179  nElectrons: 3.000000  magneticMoment: [ Abs: 0.65749  Tot: +0.58000 ]
SCF: Cycle: 16   F: -7.049338841544135   dF: -2.756e-04   |Residual|: 4.520e-03   |deigs|: 9.430e-03  t[s]:     62.81
	FillingsUpdate:  mu: -0.106633135  nElectrons: 3.000000  magneticMoment: [ Abs: 0.63001  Tot: +0.58000 ]
SCF: Cycle: 17   F: -7.049550908353559   dF: -2.121e-04   |Residual|: 3.048e-03   |deigs|: 1.024e-02  t[s]:     66.11
	FillingsUpdate:  mu: -0.105416437  nElectrons: 3.000000  magneticMoment: [ Abs: 0.61436  Tot: +0.58000 ]
SCF: Cycle: 18   F: -7.049624752135577   dF: -7.384e-05   |Residual|: 1.993e-03   |deigs|: 1.923e-03  t[s]:     69.34
	FillingsUpdate:  mu: -0.105491274  nElectrons: 3.000000  magneticMoment: [ Abs: 0.60239  Tot: +0.58000 ]
SCF: Cycle: 19   F: -7.049667917595160   dF: -4.317e-05   |Residual|: 1.201e-03   |deigs|: 7.420e-04  t[s]:     72.63
	FillingsUpdate:  mu: -0.105557847  nElectrons: 3.000000  magneticMoment: [ Abs: 0.59532  Tot: +0.58000 ]
SCF: Cycle: 20   F: -7.049681109955881   dF: -1.319e-05   |Residual|: 7.475e-04   |deigs|: 3.070e-04  t[s]:     75.88
	FillingsUpdate:  mu: -0.105537792  nElectrons: 3.000000  magneticMoment: [ Abs: 0.59047  Tot: +0.58000 ]
SCF: Cycle: 21   F: -7.049686111602037   dF: -5.002e-06   |Residual|: 4.478e-04   |deigs|: 2.313e-04  t[s]:     79.15
	FillingsUpdate:  mu: -0.105557690  nElectrons: 3.000000  magneticMoment: [ Abs: 0.58748  Tot: +0.58000 ]
SCF: Cycle: 22   F: -7.049687989356298   dF: -1.878e-06   |Residual|: 3.168e-04   |deigs|: 1.999e-04  t[s]:     82.38
	FillingsUpdate:  mu: -0.105442318  nElectrons: 3.000000  magneticMoment: [ Abs: 0.58552  Tot: +0.58000 ]
SCF: Cycle: 23   F: -7.049688956263108   dF: -9.669e-07   |Residual|: 2.588e-04   |deigs|: 2.044e-04  t[s]:     85.62
	FillingsUpdate:  mu: -0.105381998  nElectrons: 3.000000  magneticMoment: [ Abs: 0.58360  Tot: +0.58000 ]
SCF: Cycle: 24   F: -7.049689302624461   dF: -3.464e-07   |Residual|: 2.040e-04   |deigs|: 1.138e-04  t[s]:     88.82
	FillingsUpdate:  mu: -0.105320763  nElectrons: 3.000000  magneticMoment: [ Abs: 0.58248  Tot: +0.58000 ]
SCF: Cycle: 25   F: -7.049689036708272   dF: +2.659e-07   |Residual|: 1.637e-04   |deigs|: 1.143e-04  t[s]:     92.12
	FillingsUpdate:  mu: -0.105296121  nElectrons: 3.000000  magneticMoment: [ Abs: 0.58147  Tot: +0.58000 ]
SCF: Cycle: 26   F: -7.049689136791429   dF: -1.001e-07   |Residual|: 1.104e-04   |deigs|: 9.046e-05  t[s]:     95.37
	FillingsUpdate:  mu: -0.105263888  nElectrons: 3.000000  magneticMoment: [ Abs: 0.58088  Tot: +0.58000 ]
SCF: Cycle: 27   F: -7.049689597158235   dF: -4.604e-07   |Residual|: 6.865e-05   |deigs|: 9.704e-05  t[s]:     98.65
	FillingsUpdate:  mu: -0.105249072  nElectrons: 3.000000  magneticMoment: [ Abs: 0.58052  Tot: +0.58000 ]
SCF: Cycle: 28   F: -7.049689842360989   dF: -2.452e-07   |Residual|: 4.196e-05   |deigs|: 9.538e-05  t[s]:    101.88
	FillingsUpdate:  mu: -0.105237500  nElectrons: 3.000000  magneticMoment: [ Abs: 0.58021  Tot: +0.58000 ]
SCF: Cycle: 29   F: -7.049689891169949   dF: -4.881e-08   |Residual|: 2.684e-05   |deigs|: 8.725e-05  t[s]:    105.13
	FillingsUpdate:  mu: -0.105237735  nElectrons: 3.000000  magneticMoment: [ Abs: 0.58009  Tot: +0.58000 ]
SCF: Cycle: 30   F: -7.049689913379255   dF: -2.221e-08   |Residual|: 2.035e-05   |deigs|: 6.884e-05  t[s]:    108.46
	FillingsUpdate:  mu: -0.105244795  nElectrons: 3.000000  magneticMoment: [ Abs: 0.58006  Tot: +0.58000 ]
SCF: Cycle: 31   F: -7.049689909909626   dF: +3.470e-09   |Residual|: 1.469e-05   |deigs|: 5.585e-05  t[s]:    111.72
	FillingsUpdate:  mu: -0.105258540  nElectrons: 3.000000  magneticMoment: [ Abs: 0.58003  Tot: +0.58000 ]
SCF: Cycle: 32   F: -7.049689920029474   dF: -1.012e-08   |Residual|: 1.048e-05   |deigs|: 4.578e-05  t[s]:    115.02
	FillingsUpdate:  mu: -0.105268526  nElectrons: 3.000000  magneticMoment: [ Abs: 0.58000  Tot: +0.58000 ]
SCF: Cycle: 33   F: -7.049689929332285   dF: -9.303e-09   |Residual|: 8.923e-06   |deigs|: 3.396e-05  t[s]:    118.31
	FillingsUpdate:  mu: -0.105280658  nElectrons: 3.000000  magneticMoment: [ Abs: 0.58001  Tot: +0.58000 ]
SCF: Cycle: 34   F: -7.049689932677794   dF: -3.346e-09   |Residual|: 7.892e-06   |deigs|: 2.612e-05  t[s]:    121.59
SCF: Converged (|Delta E|<1.000000e-08 for 2 iters).


# Ionic positions in lattice coordinates:
ion Li   0.000000000000000   0.000000000000000   0.000000000000000 0

# Forces in Lattice coordinates:
force Li   0.000000000000000   0.000000000000000   0.000000000000000 0

# Energy components:
   Eewald =       -1.3368908222468645
       EH =        2.2092927398801674
     Eloc =       -7.5515171973535287
      Enl =       -3.6027681771299069
   Epulay =       -0.0000013080581827
      Exc =       -1.5369499251817476
       KE =        4.7691455313485047
-------------------------------------
     Etot =       -7.0496891587415593
       TS =        0.0000007739362347
-------------------------------------
        F =       -7.0496899326777944

IonicMinimize: Iter:   0  F: -7.049689932677794  |grad|_K:  0.000e+00  t[s]:    121.73
IonicMinimize: Converged (|grad|_K<1.000000e-04).

#--- Lowdin population analysis ---
# oxidation-state Li +2.088
# magnetic-moments Li +0.535

End date and time: Sat Feb  5 23:09:39 2022  (Duration: 0-0:02:01.75)
Done!
scale=4
magnetization=0.58
--------------------------------------------------------------------------
The library attempted to open the following supporting CUDA libraries,
but each of them failed.  CUDA-aware support is disabled.
libcuda.so.1: cannot open shared object file: No such file or directory
libcuda.dylib: cannot open shared object file: No such file or directory
/usr/lib64/libcuda.so.1: cannot open shared object file: No such file or directory
/usr/lib64/libcuda.dylib: cannot open shared object file: No such file or directory
If you are not interested in CUDA-aware support, then run with
--mca opal_warn_on_missing_libcuda 0 to suppress this message.  If you are interested
in CUDA-aware support, then try setting LD_LIBRARY_PATH to the location
of libcuda.so.1 to get passed this issue.
--------------------------------------------------------------------------
--------------------------------------------------------------------------
No OpenFabrics connection schemes reported that they were able to be
used on a specific port.  As such, the openib BTL (OpenFabrics
support) will be disabled for this port.

  Local host:           d-4-6-1
  Local device:         mlx5_1
  Local port:           1
  CPCs attempted:       rdmacm, udcm
--------------------------------------------------------------------------

*************** JDFTx 1.6.0 (git hash 42ebbcc2) ***************

Start date and time: Sat Feb  5 23:09:40 2022
Executable jdftx with command-line: -i Alkali.in
Running on hosts (process indices):  d-4-6-1 (0-18)
Divided in process groups (process indices):  0 (0)  1 (1)  2 (2)  3 (3)  4 (4)  5 (5)  6 (6)  7 (7)  8 (8)  9 (9)  10 (10)  11 (11)  12 (12)  13 (13)  14 (14)  15 (15)  16 (16)  17 (17)  18 (18)
Resource initialization completed at t[s]:      0.00
Run totals: 19 processes, 48 threads, 0 GPUs


Input parsed successfully to the following command list (including defaults):

basis kpoint-dependent
coords-type Lattice
core-overlap-check vector
coulomb-interaction Slab 001
davidson-band-ratio 1.1
dump End None
dump-name $INPUT.$VAR
elec-cutoff 20
elec-eigen-algo Davidson
elec-ex-corr gga-PBE
elec-initial-magnetization 0.580000 yes
elec-smearing Fermi 1e-05
electronic-minimize  \
	dirUpdateScheme      FletcherReeves \
	linminMethod         DirUpdateRecommended \
	nIterations          100 \
	history              15 \
	knormThreshold       0 \
	energyDiffThreshold  1e-08 \
	nEnergyDiff          2 \
	alphaTstart          1 \
	alphaTmin            1e-10 \
	updateTestStepSize   yes \
	alphaTreduceFactor   0.1 \
	alphaTincreaseFactor 3 \
	nAlphaAdjustMax      3 \
	wolfeEnergy          0.0001 \
	wolfeGradient        0.9 \
	fdTest               no
electronic-scf  \
	nIterations	10000 \
	energyDiffThreshold	1e-08 \
	residualThreshold	1e-07 \
	mixFraction	0.5 \
	qMetric	0.8 \
	history	10 \
	nEigSteps	2 \
	eigDiffThreshold	1e-08 \
	mixedVariable	Density \
	qKerker	0.8 \
	qKappa	-1 \
	verbose	no \
	mixFractionMag	1.5
exchange-regularization WignerSeitzTruncated
fluid None
fluid-ex-corr (null) lda-PZ
fluid-gummel-loop 10 1.000000e-05
fluid-minimize  \
	dirUpdateScheme      PolakRibiere \
	linminMethod         DirUpdateRecommended \
	nIterations          100 \
	history              15 \
	knormThreshold       0 \
	energyDiffThreshold  0 \
	nEnergyDiff          2 \
	alphaTstart          1 \
	alphaTmin            1e-10 \
	updateTestStepSize   yes \
	alphaTreduceFactor   0.1 \
	alphaTincreaseFactor 3 \
	nAlphaAdjustMax      3 \
	wolfeEnergy          0.0001 \
	wolfeGradient        0.9 \
	fdTest               no
fluid-solvent H2O 55.338 ScalarEOS \
	epsBulk 78.4 \
	pMol 0.92466 \
	epsInf 1.77 \
	Pvap 1.06736e-10 \
	sigmaBulk 4.62e-05 \
	Rvdw 2.61727 \
	Res 1.42 \
	tauNuc 343133 \
	poleEl 15 7 1
forces-output-coords Positions
ion Li   0.000000000000000   0.000000000000000   0.000000000000000 0
ion-species SG15/$ID_ONCV_PBE.upf
ion-width 0
ionic-minimize  \
	dirUpdateScheme      L-BFGS \
	linminMethod         DirUpdateRecommended \
	nIterations          0 \
	history              15 \
	knormThreshold       0.0001 \
	energyDiffThreshold  1e-06 \
	nEnergyDiff          2 \
	alphaTstart          1 \
	alphaTmin            1e-10 \
	updateTestStepSize   yes \
	alphaTreduceFactor   0.1 \
	alphaTincreaseFactor 3 \
	nAlphaAdjustMax      3 \
	wolfeEnergy          0.0001 \
	wolfeGradient        0.9 \
	fdTest               no
kpoint   0.000000000000   0.000000000000   0.000000000000  1.00000000000000
kpoint-folding 12 12 1 
latt-move-scale 1 1 1
latt-scale 4 4 1 
lattice  \
	   4.727486978767153   -2.363743489383575    0.000000000000000  \
	  -0.000000000000000    4.094123819672498    0.000000000000000  \
	   0.000000000000000    0.000000000000000   40.000000000000000 
lattice-minimize  \
	dirUpdateScheme      L-BFGS \
	linminMethod         DirUpdateRecommended \
	nIterations          0 \
	history              15 \
	knormThreshold       0 \
	energyDiffThreshold  1e-06 \
	nEnergyDiff          2 \
	alphaTstart          1 \
	alphaTmin            1e-10 \
	updateTestStepSize   yes \
	alphaTreduceFactor   0.1 \
	alphaTincreaseFactor 3 \
	nAlphaAdjustMax      3 \
	wolfeEnergy          0.0001 \
	wolfeGradient        0.9 \
	fdTest               no
lcao-params -1 1e-06 1e-05
pcm-variant GLSSA13
spintype z-spin
subspace-rotation-factor 1 yes
symmetries automatic
symmetry-threshold 0.0001



---------- Setting up symmetries ----------

Found 24 point-group symmetries of the bravais lattice
Found 24 space-group symmetries with basis
Applied RMS atom displacement 0 bohrs to make symmetries exact.

---------- Initializing the Grid ----------
R = 
[      18.9099     -9.45497            0  ]
[            0      16.3765            0  ]
[            0            0           40  ]
unit cell volume = 12387.1
G =
[   0.332269   0.191835         -0  ]
[          0   0.383671         -0  ]
[         -0         -0    0.15708  ]
Minimum fftbox size, Smin = [  80  80  164  ]
Chosen fftbox size, S = [  80  80  168  ]

---------- Exchange Correlation functional ----------
Initalized PBE GGA exchange.
Initalized PBE GGA correlation.

---------- Setting up pseudopotentials ----------
Width of ionic core gaussian charges (only for fluid interactions / plotting) set to 0

Reading pseudopotential file '/home/gridsan/aligho/DFT/build-Nov24/pseudopotentials/SG15/Li_ONCV_PBE.upf':
  'Li' pseudopotential, 'PBE' functional
  Generated using ONCVPSP code by D. R. Hamann
  Author: Martin Schlipf and Francois Gygi  Date: 150915.
  3 valence electrons, 2 orbitals, 4 projectors, 1328 radial grid points, with lMax = 1
  Transforming local potential to a uniform radial grid of dG=0.02 with 1489 points.
  Transforming nonlocal projectors to a uniform radial grid of dG=0.02 with 432 points.
    1S    l: 0   occupation:  2.0   eigenvalue: -1.905623
    2S    l: 0   occupation:  1.0   eigenvalue: -0.105624
  Transforming atomic orbitals to a uniform radial grid of dG=0.02 with 432 points.
  WARNING: large normalization error in atomic orbital 1s (integral: 0.000000).
  Core radius for overlap checks: 1.63 bohrs.
  Reading pulay file /home/gridsan/aligho/DFT/build-Nov24/pseudopotentials/SG15/Li_ONCV_PBE.pulay ... using dE_dnG = -1.230239e-02 computed for Ecut = 20.

Initialized 1 species with 1 total atoms.

Folded 1 k-points by 12x12x1 to 144 k-points.

---------- Setting up k-points, bands, fillings ----------
Reduced to 19 k-points under symmetry. 
Computing the number of bands and number of electrons
Calculating initial fillings.
nElectrons:   3.000000   nBands: 3   nStates: 38

----- Setting up reduced wavefunction bases (one per k-point) -----
average nbasis = 52924.021 , ideal nbasis = 52918.836

---------- Setting up coulomb interaction ----------
Initialized slab truncation along lattice direction 001

---------- Setting up 2D ewald sum ----------
Optimum gaussian width for ewald sums = 10.498040 bohr.
Real space sums over 289 unit cells with max indices [  8  8  0  ]
Reciprocal space sums over 81 terms with max indices [  4  4  0  ]

---------- Allocating electronic variables ----------
Initializing wave functions:  linear combination of atomic orbitals
Note: number of bands (3) exceeds available atomic orbitals (2)
Li pseudo-atom occupations:   s ( 2 1 )
[d-4-6-1:84841] 18 more processes have sent help message help-mpi-common-cuda.txt / dlopen failed
[d-4-6-1:84841] Set MCA parameter "orte_base_help_aggregate" to 0 to see all help / error messages
[d-4-6-1:84841] 18 more processes have sent help message help-mpi-btl-openib-cpc-base.txt / no cpcs for port
	FillingsUpdate:  mu: +0.361012045  nElectrons: 3.000000  magneticMoment: [ Abs: 0.58000  Tot: +0.58000 ]
LCAOMinimize: Iter:   0  F: -1.3085988478340054  |grad|_K:  3.951e-05  alpha:  1.000e+00
	FillingsUpdate:  mu: +0.361011475  nElectrons: 3.000000  magneticMoment: [ Abs: 0.58000  Tot: +0.58000 ]
LCAOMinimize: Iter:   1  F: -1.3085991304689877  |grad|_K:  1.489e-07  alpha:  1.059e+00  linmin: -2.867e-03  cgtest:  1.818e-02  t[s]:     12.73
LCAOMinimize: Encountered beta<0, resetting CG.
	FillingsUpdate:  mu: +0.361011475  nElectrons: 3.000000  magneticMoment: [ Abs: 0.58000  Tot: +0.58000 ]
LCAOMinimize: Iter:   2  F: -1.3085991304728328  |grad|_K:  1.626e-08  alpha:  1.136e+00  linmin:  8.017e-03  cgtest: -8.933e-01  t[s]:     16.01
LCAOMinimize: Converged (|Delta F|<1.000000e-06 for 2 iters).


---- Citations for features of the code used in this run ----

   Software package:
      R. Sundararaman, K. Letchworth-Weaver, K.A. Schwarz, D. Gunceler, Y. Ozhabes and T.A. Arias, 'JDFTx: software for joint density-functional theory', SoftwareX 6, 278 (2017)

   gga-PBE exchange-correlation functional:
      J.P. Perdew, K. Burke and M. Ernzerhof, Phys. Rev. Lett. 77, 3865 (1996)

   Pseudopotentials:
      M Schlipf and F Gygi, Comput. Phys. Commun. 196, 36 (2015)

   Truncated Coulomb potentials:
      R. Sundararaman and T.A. Arias, Phys. Rev. B 87, 165122 (2013)

This list may not be complete. Please suggest additional citations or
report any other bugs at https://github.com/shankar1729/jdftx/issues

Initialization completed successfully at t[s]:     16.15


-------- Electronic minimization -----------
Will mix electronic density at each iteration.
	FillingsUpdate:  mu: +0.361011475  nElectrons: 3.000000  magneticMoment: [ Abs: 0.58000  Tot: +0.58000 ]
	FillingsUpdate:  mu: -0.610894726  nElectrons: 3.000000  magneticMoment: [ Abs: 0.58000  Tot: +0.58000 ]
SCF: Cycle:  0   F: -6.876549681530486   dF: -5.568e+00   |Residual|: 1.230e+00   |deigs|: 4.155e+00  t[s]:     21.79
	FillingsUpdate:  mu: -0.485664634  nElectrons: 3.000000  magneticMoment: [ Abs: 0.99469  Tot: +0.58000 ]
SCF: Cycle:  1   F: -6.916932267568209   dF: -4.038e-02   |Residual|: 7.622e-01   |deigs|: 2.767e-01  t[s]:     26.29
	FillingsUpdate:  mu: -0.275223932  nElectrons: 3.000000  magneticMoment: [ Abs: 1.28331  Tot: +0.58000 ]
SCF: Cycle:  2   F: -7.037023552709468   dF: -1.201e-01   |Residual|: 3.200e-01   |deigs|: 7.032e-01  t[s]:     30.98
	FillingsUpdate:  mu: -0.282676238  nElectrons: 3.000000  magneticMoment: [ Abs: 1.15563  Tot: +0.58000 ]
SCF: Cycle:  3   F: -7.037294582897847   dF: -2.710e-04   |Residual|: 1.778e-01   |deigs|: 7.680e-02  t[s]:     35.82
	FillingsUpdate:  mu: -0.234360723  nElectrons: 3.000000  magneticMoment: [ Abs: 1.00779  Tot: +0.58000 ]
SCF: Cycle:  4   F: -7.039999333295744   dF: -2.705e-03   |Residual|: 4.901e-02   |deigs|: 4.121e-02  t[s]:     40.67
	FillingsUpdate:  mu: -0.221625526  nElectrons: 3.000000  magneticMoment: [ Abs: 1.00100  Tot: +0.58000 ]
SCF: Cycle:  5   F: -7.041085644909790   dF: -1.086e-03   |Residual|: 8.741e-02   |deigs|: 1.351e-02  t[s]:     45.68
	FillingsUpdate:  mu: -0.199767387  nElectrons: 3.000000  magneticMoment: [ Abs: 0.84511  Tot: +0.58000 ]
SCF: Cycle:  6   F: -7.043536281015738   dF: -2.451e-03   |Residual|: 2.463e-02   |deigs|: 5.217e-02  t[s]:     50.77
	FillingsUpdate:  mu: -0.183761308  nElectrons: 3.000000  magneticMoment: [ Abs: 0.74192  Tot: +0.58000 ]
SCF: Cycle:  7   F: -7.045441023588547   dF: -1.905e-03   |Residual|: 6.124e-02   |deigs|: 4.551e-02  t[s]:     56.01
	FillingsUpdate:  mu: -0.184496971  nElectrons: 3.000000  magneticMoment: [ Abs: 0.69770  Tot: +0.58000 ]
SCF: Cycle:  8   F: -7.045910466007333   dF: -4.694e-04   |Residual|: 4.076e-02   |deigs|: 7.185e-03  t[s]:     61.40
	FillingsUpdate:  mu: -0.182126722  nElectrons: 3.000000  magneticMoment: [ Abs: 0.66674  Tot: +0.58000 ]
SCF: Cycle:  9   F: -7.046745468364253   dF: -8.350e-04   |Residual|: 4.231e-02   |deigs|: 2.983e-02  t[s]:     66.83
	FillingsUpdate:  mu: -0.166715805  nElectrons: 3.000000  magneticMoment: [ Abs: 0.61758  Tot: +0.58000 ]
SCF: Cycle: 10   F: -7.047243556710897   dF: -4.981e-04   |Residual|: 1.787e-02   |deigs|: 2.142e-02  t[s]:     72.35
	FillingsUpdate:  mu: -0.156677373  nElectrons: 3.000000  magneticMoment: [ Abs: 0.65496  Tot: +0.58000 ]
SCF: Cycle: 11   F: -7.047366110893048   dF: -1.226e-04   |Residual|: 1.855e-02   |deigs|: 1.564e-02  t[s]:     77.90
	FillingsUpdate:  mu: -0.149430145  nElectrons: 3.000000  magneticMoment: [ Abs: 0.67403  Tot: +0.58000 ]
SCF: Cycle: 12   F: -7.047493064526890   dF: -1.270e-04   |Residual|: 1.263e-02   |deigs|: 8.519e-03  t[s]:     83.42
	FillingsUpdate:  mu: -0.127498914  nElectrons: 3.000000  magneticMoment: [ Abs: 0.72787  Tot: +0.58000 ]
SCF: Cycle: 13   F: -7.047599227776740   dF: -1.062e-04   |Residual|: 6.508e-03   |deigs|: 2.555e-02  t[s]:     88.97
	FillingsUpdate:  mu: -0.121561110  nElectrons: 3.000000  magneticMoment: [ Abs: 0.72680  Tot: +0.58000 ]
SCF: Cycle: 14   F: -7.047582999697251   dF: +1.623e-05   |Residual|: 5.734e-03   |deigs|: 6.348e-03  t[s]:     94.56
	FillingsUpdate:  mu: -0.115488163  nElectrons: 3.000000  magneticMoment: [ Abs: 0.70030  Tot: +0.58000 ]
SCF: Cycle: 15   F: -7.047638773021771   dF: -5.577e-05   |Residual|: 4.135e-03   |deigs|: 5.605e-03  t[s]:    100.17
	FillingsUpdate:  mu: -0.111597014  nElectrons: 3.000000  magneticMoment: [ Abs: 0.68141  Tot: +0.58000 ]
SCF: Cycle: 16   F: -7.047635874459604   dF: +2.899e-06   |Residual|: 3.377e-03   |deigs|: 3.606e-03  t[s]:    105.81
	FillingsUpdate:  mu: -0.107977819  nElectrons: 3.000000  magneticMoment: [ Abs: 0.65447  Tot: +0.58000 ]
SCF: Cycle: 17   F: -7.047617952100006   dF: +1.792e-05   |Residual|: 2.551e-03   |deigs|: 3.740e-03  t[s]:    111.45
	FillingsUpdate:  mu: -0.104828844  nElectrons: 3.000000  magneticMoment: [ Abs: 0.63692  Tot: +0.58000 ]
SCF: Cycle: 18   F: -7.047669726381915   dF: -5.177e-05   |Residual|: 1.815e-03   |deigs|: 4.009e-03  t[s]:    117.04
	FillingsUpdate:  mu: -0.103492873  nElectrons: 3.000000  magneticMoment: [ Abs: 0.62288  Tot: +0.58000 ]
SCF: Cycle: 19   F: -7.047709279776068   dF: -3.955e-05   |Residual|: 1.382e-03   |deigs|: 1.776e-03  t[s]:    122.51
	FillingsUpdate:  mu: -0.102363977  nElectrons: 3.000000  magneticMoment: [ Abs: 0.61327  Tot: +0.58000 ]
SCF: Cycle: 20   F: -7.047724360102870   dF: -1.508e-05   |Residual|: 1.000e-03   |deigs|: 1.450e-03  t[s]:    128.06
	FillingsUpdate:  mu: -0.102060911  nElectrons: 3.000000  magneticMoment: [ Abs: 0.60197  Tot: +0.58000 ]
SCF: Cycle: 21   F: -7.047744694096080   dF: -2.033e-05   |Residual|: 7.342e-04   |deigs|: 4.389e-04  t[s]:    133.63
	FillingsUpdate:  mu: -0.102739385  nElectrons: 3.000000  magneticMoment: [ Abs: 0.59260  Tot: +0.58000 ]
SCF: Cycle: 22   F: -7.047756303732911   dF: -1.161e-05   |Residual|: 4.877e-04   |deigs|: 8.793e-04  t[s]:    139.21
	FillingsUpdate:  mu: -0.103045370  nElectrons: 3.000000  magneticMoment: [ Abs: 0.58569  Tot: +0.58000 ]
SCF: Cycle: 23   F: -7.047762973412315   dF: -6.670e-06   |Residual|: 3.035e-04   |deigs|: 5.271e-04  t[s]:    144.78
	FillingsUpdate:  mu: -0.103228145  nElectrons: 3.000000  magneticMoment: [ Abs: 0.58293  Tot: +0.58000 ]
SCF: Cycle: 24   F: -7.047764154844669   dF: -1.181e-06   |Residual|: 2.172e-04   |deigs|: 2.878e-04  t[s]:    150.34
	FillingsUpdate:  mu: -0.103119154  nElectrons: 3.000000  magneticMoment: [ Abs: 0.58177  Tot: +0.58000 ]
SCF: Cycle: 25   F: -7.047764904100076   dF: -7.493e-07   |Residual|: 1.350e-04   |deigs|: 1.238e-04  t[s]:    155.88
	FillingsUpdate:  mu: -0.103106956  nElectrons: 3.000000  magneticMoment: [ Abs: 0.58153  Tot: +0.58000 ]
SCF: Cycle: 26   F: -7.047765106744990   dF: -2.026e-07   |Residual|: 9.298e-05   |deigs|: 8.811e-05  t[s]:    161.48
	FillingsUpdate:  mu: -0.103074589  nElectrons: 3.000000  magneticMoment: [ Abs: 0.58099  Tot: +0.58000 ]
SCF: Cycle: 27   F: -7.047765166507943   dF: -5.976e-08   |Residual|: 6.407e-05   |deigs|: 7.843e-05  t[s]:    167.05
	FillingsUpdate:  mu: -0.103082025  nElectrons: 3.000000  magneticMoment: [ Abs: 0.58079  Tot: +0.58000 ]
SCF: Cycle: 28   F: -7.047765211415856   dF: -4.491e-08   |Residual|: 3.977e-05   |deigs|: 6.062e-05  t[s]:    172.63
	FillingsUpdate:  mu: -0.103069918  nElectrons: 3.000000  magneticMoment: [ Abs: 0.58057  Tot: +0.58000 ]
SCF: Cycle: 29   F: -7.047765228065217   dF: -1.665e-08   |Residual|: 2.994e-05   |deigs|: 4.865e-05  t[s]:    178.21
	FillingsUpdate:  mu: -0.103062093  nElectrons: 3.000000  magneticMoment: [ Abs: 0.58040  Tot: +0.58000 ]
SCF: Cycle: 30   F: -7.047765228643588   dF: -5.784e-10   |Residual|: 2.236e-05   |deigs|: 3.916e-05  t[s]:    183.73
	FillingsUpdate:  mu: -0.103055399  nElectrons: 3.000000  magneticMoment: [ Abs: 0.58024  Tot: +0.58000 ]
SCF: Cycle: 31   F: -7.047765244025782   dF: -1.538e-08   |Residual|: 1.696e-05   |deigs|: 3.303e-05  t[s]:    189.34
	FillingsUpdate:  mu: -0.103058839  nElectrons: 3.000000  magneticMoment: [ Abs: 0.58012  Tot: +0.58000 ]
SCF: Cycle: 32   F: -7.047765246049745   dF: -2.024e-09   |Residual|: 1.424e-05   |deigs|: 3.050e-05  t[s]:    194.93
	FillingsUpdate:  mu: -0.103072580  nElectrons: 3.000000  magneticMoment: [ Abs: 0.58002  Tot: +0.58000 ]
SCF: Cycle: 33   F: -7.047765242649334   dF: +3.400e-09   |Residual|: 1.071e-05   |deigs|: 3.215e-05  t[s]:    200.58
	FillingsUpdate:  mu: -0.103078449  nElectrons: 3.000000  magneticMoment: [ Abs: 0.58001  Tot: +0.58000 ]
SCF: Cycle: 34   F: -7.047765249499666   dF: -6.850e-09   |Residual|: 8.454e-06   |deigs|: 2.701e-05  t[s]:    206.20
	FillingsUpdate:  mu: -0.103081058  nElectrons: 3.000000  magneticMoment: [ Abs: 0.58000  Tot: +0.58000 ]
SCF: Cycle: 35   F: -7.047765220894134   dF: +2.861e-08   |Residual|: 7.082e-06   |deigs|: 2.407e-05  t[s]:    211.71
	FillingsUpdate:  mu: -0.103080831  nElectrons: 3.000000  magneticMoment: [ Abs: 0.58001  Tot: +0.58000 ]
SCF: Cycle: 36   F: -7.047765236572749   dF: -1.568e-08   |Residual|: 5.277e-06   |deigs|: 2.090e-05  t[s]:    217.31
	FillingsUpdate:  mu: -0.103079127  nElectrons: 3.000000  magneticMoment: [ Abs: 0.58000  Tot: +0.58000 ]
SCF: Cycle: 37   F: -7.047765253848372   dF: -1.728e-08   |Residual|: 4.449e-06   |deigs|: 1.966e-05  t[s]:    222.86
	FillingsUpdate:  mu: -0.103077455  nElectrons: 3.000000  magneticMoment: [ Abs: 0.58000  Tot: +0.58000 ]
SCF: Cycle: 38   F: -7.047765247832492   dF: +6.016e-09   |Residual|: 3.673e-06   |deigs|: 1.790e-05  t[s]:    228.42
	FillingsUpdate:  mu: -0.103075917  nElectrons: 3.000000  magneticMoment: [ Abs: 0.58000  Tot: +0.58000 ]
SCF: Cycle: 39   F: -7.047765258107700   dF: -1.028e-08   |Residual|: 2.477e-06   |deigs|: 1.637e-05  t[s]:    234.01
	FillingsUpdate:  mu: -0.103075387  nElectrons: 3.000000  magneticMoment: [ Abs: 0.58000  Tot: +0.58000 ]
SCF: Cycle: 40   F: -7.047765259390282   dF: -1.283e-09   |Residual|: 1.760e-06   |deigs|: 1.516e-05  t[s]:    239.57
	FillingsUpdate:  mu: -0.103074983  nElectrons: 3.000000  magneticMoment: [ Abs: 0.58000  Tot: +0.58000 ]
SCF: Cycle: 41   F: -7.047765260454910   dF: -1.065e-09   |Residual|: 1.198e-06   |deigs|: 1.376e-05  t[s]:    245.18
SCF: Converged (|Delta E|<1.000000e-08 for 2 iters).


# Ionic positions in lattice coordinates:
ion Li   0.000000000000000   0.000000000000000   0.000000000000000 0

# Forces in Lattice coordinates:
force Li   0.000000000000000   0.000000000000000   0.000000000000000 0

# Energy components:
   Eewald =       -1.0026681166851483
       EH =        2.5535465203807313
     Eloc =       -8.2330927357770562
      Enl =       -3.6044308555698508
   Epulay =        0.0000051497655618
      Exc =       -1.5392303453961742
       KE =        4.7781067423933479
-------------------------------------
     Etot =       -7.0477636408885882
       TS =        0.0000016195663215
-------------------------------------
        F =       -7.0477652604549101

IonicMinimize: Iter:   0  F: -7.047765260454910  |grad|_K:  0.000e+00  t[s]:    245.43
IonicMinimize: Converged (|grad|_K<1.000000e-04).

#--- Lowdin population analysis ---
# oxidation-state Li +2.074
# magnetic-moments Li +0.537

End date and time: Sat Feb  5 23:13:45 2022  (Duration: 0-0:04:05.47)
Done!
