The alkali metal is Li
scale=2
magnetization=-0.64
--------------------------------------------------------------------------
The library attempted to open the following supporting CUDA libraries,
but each of them failed.  CUDA-aware support is disabled.
libcuda.so.1: cannot open shared object file: No such file or directory
libcuda.dylib: cannot open shared object file: No such file or directory
/usr/lib64/libcuda.so.1: cannot open shared object file: No such file or directory
/usr/lib64/libcuda.dylib: cannot open shared object file: No such file or directory
If you are not interested in CUDA-aware support, then run with
--mca opal_warn_on_missing_libcuda 0 to suppress this message.  If you are interested
in CUDA-aware support, then try setting LD_LIBRARY_PATH to the location
of libcuda.so.1 to get passed this issue.
--------------------------------------------------------------------------
--------------------------------------------------------------------------
No OpenFabrics connection schemes reported that they were able to be
used on a specific port.  As such, the openib BTL (OpenFabrics
support) will be disabled for this port.

  Local host:           d-16-5-2
  Local device:         mlx5_1
  Local port:           1
  CPCs attempted:       rdmacm, udcm
--------------------------------------------------------------------------

*************** JDFTx 1.6.0 (git hash 42ebbcc2) ***************

Start date and time: Sat Feb  5 22:45:58 2022
Executable jdftx with command-line: -i Alkali.in
Running on hosts (process indices):  d-16-5-2 (0-18)
Divided in process groups (process indices):  0 (0)  1 (1)  2 (2)  3 (3)  4 (4)  5 (5)  6 (6)  7 (7)  8 (8)  9 (9)  10 (10)  11 (11)  12 (12)  13 (13)  14 (14)  15 (15)  16 (16)  17 (17)  18 (18)
Resource initialization completed at t[s]:      0.00
Run totals: 19 processes, 48 threads, 0 GPUs


Input parsed successfully to the following command list (including defaults):

basis kpoint-dependent
coords-type Lattice
core-overlap-check vector
coulomb-interaction Slab 001
davidson-band-ratio 1.1
dump End None
dump-name $INPUT.$VAR
elec-cutoff 20
elec-eigen-algo Davidson
elec-ex-corr gga-PBE
elec-initial-magnetization -0.640000 yes
elec-smearing Fermi 1e-05
electronic-minimize  \
	dirUpdateScheme      FletcherReeves \
	linminMethod         DirUpdateRecommended \
	nIterations          100 \
	history              15 \
	knormThreshold       0 \
	energyDiffThreshold  1e-08 \
	nEnergyDiff          2 \
	alphaTstart          1 \
	alphaTmin            1e-10 \
	updateTestStepSize   yes \
	alphaTreduceFactor   0.1 \
	alphaTincreaseFactor 3 \
	nAlphaAdjustMax      3 \
	wolfeEnergy          0.0001 \
	wolfeGradient        0.9 \
	fdTest               no
electronic-scf  \
	nIterations	10000 \
	energyDiffThreshold	1e-08 \
	residualThreshold	1e-07 \
	mixFraction	0.5 \
	qMetric	0.8 \
	history	10 \
	nEigSteps	2 \
	eigDiffThreshold	1e-08 \
	mixedVariable	Density \
	qKerker	0.8 \
	qKappa	-1 \
	verbose	no \
	mixFractionMag	1.5
exchange-regularization WignerSeitzTruncated
fluid None
fluid-ex-corr (null) lda-PZ
fluid-gummel-loop 10 1.000000e-05
fluid-minimize  \
	dirUpdateScheme      PolakRibiere \
	linminMethod         DirUpdateRecommended \
	nIterations          100 \
	history              15 \
	knormThreshold       0 \
	energyDiffThreshold  0 \
	nEnergyDiff          2 \
	alphaTstart          1 \
	alphaTmin            1e-10 \
	updateTestStepSize   yes \
	alphaTreduceFactor   0.1 \
	alphaTincreaseFactor 3 \
	nAlphaAdjustMax      3 \
	wolfeEnergy          0.0001 \
	wolfeGradient        0.9 \
	fdTest               no
fluid-solvent H2O 55.338 ScalarEOS \
	epsBulk 78.4 \
	pMol 0.92466 \
	epsInf 1.77 \
	Pvap 1.06736e-10 \
	sigmaBulk 4.62e-05 \
	Rvdw 2.61727 \
	Res 1.42 \
	tauNuc 343133 \
	poleEl 15 7 1
forces-output-coords Positions
ion Li   0.000000000000000   0.000000000000000   0.000000000000000 0
ion-species SG15/$ID_ONCV_PBE.upf
ion-width 0
ionic-minimize  \
	dirUpdateScheme      L-BFGS \
	linminMethod         DirUpdateRecommended \
	nIterations          0 \
	history              15 \
	knormThreshold       0.0001 \
	energyDiffThreshold  1e-06 \
	nEnergyDiff          2 \
	alphaTstart          1 \
	alphaTmin            1e-10 \
	updateTestStepSize   yes \
	alphaTreduceFactor   0.1 \
	alphaTincreaseFactor 3 \
	nAlphaAdjustMax      3 \
	wolfeEnergy          0.0001 \
	wolfeGradient        0.9 \
	fdTest               no
kpoint   0.000000000000   0.000000000000   0.000000000000  1.00000000000000
kpoint-folding 12 12 1 
latt-move-scale 1 1 1
latt-scale 2 2 1 
lattice  \
	   4.727486978767153   -2.363743489383575    0.000000000000000  \
	  -0.000000000000000    4.094123819672498    0.000000000000000  \
	   0.000000000000000    0.000000000000000   40.000000000000000 
lattice-minimize  \
	dirUpdateScheme      L-BFGS \
	linminMethod         DirUpdateRecommended \
	nIterations          0 \
	history              15 \
	knormThreshold       0 \
	energyDiffThreshold  1e-06 \
	nEnergyDiff          2 \
	alphaTstart          1 \
	alphaTmin            1e-10 \
	updateTestStepSize   yes \
	alphaTreduceFactor   0.1 \
	alphaTincreaseFactor 3 \
	nAlphaAdjustMax      3 \
	wolfeEnergy          0.0001 \
	wolfeGradient        0.9 \
	fdTest               no
lcao-params -1 1e-06 1e-05
pcm-variant GLSSA13
spintype z-spin
subspace-rotation-factor 1 yes
symmetries automatic
symmetry-threshold 0.0001



---------- Setting up symmetries ----------

Found 24 point-group symmetries of the bravais lattice
Found 24 space-group symmetries with basis
Applied RMS atom displacement 0 bohrs to make symmetries exact.

---------- Initializing the Grid ----------
R = 
[      9.45497     -4.72749            0  ]
[            0      8.18825            0  ]
[            0            0           40  ]
unit cell volume = 3096.79
G =
[   0.664538   0.383671         -0  ]
[          0   0.767342         -0  ]
[         -0         -0    0.15708  ]
Minimum fftbox size, Smin = [  40  40  164  ]
Chosen fftbox size, S = [  40  40  168  ]

---------- Exchange Correlation functional ----------
Initalized PBE GGA exchange.
Initalized PBE GGA correlation.

---------- Setting up pseudopotentials ----------
Width of ionic core gaussian charges (only for fluid interactions / plotting) set to 0

Reading pseudopotential file '/home/gridsan/aligho/DFT/build-Nov24/pseudopotentials/SG15/Li_ONCV_PBE.upf':
  'Li' pseudopotential, 'PBE' functional
  Generated using ONCVPSP code by D. R. Hamann
  Author: Martin Schlipf and Francois Gygi  Date: 150915.
  3 valence electrons, 2 orbitals, 4 projectors, 1328 radial grid points, with lMax = 1
  Transforming local potential to a uniform radial grid of dG=0.02 with 1489 points.
  Transforming nonlocal projectors to a uniform radial grid of dG=0.02 with 432 points.
    1S    l: 0   occupation:  2.0   eigenvalue: -1.905623
    2S    l: 0   occupation:  1.0   eigenvalue: -0.105624
  Transforming atomic orbitals to a uniform radial grid of dG=0.02 with 432 points.
  WARNING: large normalization error in atomic orbital 1s (integral: 0.000000).
  Core radius for overlap checks: 1.63 bohrs.
  Reading pulay file /home/gridsan/aligho/DFT/build-Nov24/pseudopotentials/SG15/Li_ONCV_PBE.pulay ... using dE_dnG = -1.230239e-02 computed for Ecut = 20.

Initialized 1 species with 1 total atoms.

Folded 1 k-points by 12x12x1 to 144 k-points.

---------- Setting up k-points, bands, fillings ----------
Reduced to 19 k-points under symmetry. 
Computing the number of bands and number of electrons
Calculating initial fillings.
nElectrons:   3.000000   nBands: 3   nStates: 38

----- Setting up reduced wavefunction bases (one per k-point) -----
average nbasis = 13230.521 , ideal nbasis = 13229.709

---------- Setting up coulomb interaction ----------
Initialized slab truncation along lattice direction 001

---------- Setting up 2D ewald sum ----------
Optimum gaussian width for ewald sums = 5.249020 bohr.
Real space sums over 289 unit cells with max indices [  8  8  0  ]
Reciprocal space sums over 81 terms with max indices [  4  4  0  ]

---------- Allocating electronic variables ----------
Initializing wave functions:  linear combination of atomic orbitals
Note: number of bands (3) exceeds available atomic orbitals (2)
Li pseudo-atom occupations:   s ( 2 1 )
	FillingsUpdate:  mu: +0.331178874  nElectrons: 3.000000  magneticMoment: [ Abs: 0.64000  Tot: -0.64000 ]
LCAOMinimize: Iter:   0  F: -1.1799246747058314  |grad|_K:  6.726e-05  alpha:  1.000e+00
	FillingsUpdate:  mu: +0.331177902  nElectrons: 3.000000  magneticMoment: [ Abs: 0.64000  Tot: -0.64000 ]
LCAOMinimize: Iter:   1  F: -1.1799254854058019  |grad|_K:  1.663e-06  alpha:  1.048e+00  linmin: -1.918e-03  cgtest:  2.534e-02  t[s]:      3.91
LCAOMinimize: Encountered beta<0, resetting CG.
[d-16-5-2:68458] 18 more processes have sent help message help-mpi-common-cuda.txt / dlopen failed
[d-16-5-2:68458] Set MCA parameter "orte_base_help_aggregate" to 0 to see all help / error messages
[d-16-5-2:68458] 18 more processes have sent help message help-mpi-btl-openib-cpc-base.txt / no cpcs for port
	FillingsUpdate:  mu: +0.331177908  nElectrons: 3.000000  magneticMoment: [ Abs: 0.64000  Tot: -0.64000 ]
LCAOMinimize: Iter:   2  F: -1.1799254858908090  |grad|_K:  6.405e-08  alpha:  1.019e+00  linmin: -4.938e-03  cgtest:  1.241e-01  t[s]:      4.92
LCAOMinimize: Encountered beta<0, resetting CG.
LCAOMinimize: Converged (|Delta F|<1.000000e-06 for 2 iters).


---- Citations for features of the code used in this run ----

   Software package:
      R. Sundararaman, K. Letchworth-Weaver, K.A. Schwarz, D. Gunceler, Y. Ozhabes and T.A. Arias, 'JDFTx: software for joint density-functional theory', SoftwareX 6, 278 (2017)

   gga-PBE exchange-correlation functional:
      J.P. Perdew, K. Burke and M. Ernzerhof, Phys. Rev. Lett. 77, 3865 (1996)

   Pseudopotentials:
      M Schlipf and F Gygi, Comput. Phys. Commun. 196, 36 (2015)

   Truncated Coulomb potentials:
      R. Sundararaman and T.A. Arias, Phys. Rev. B 87, 165122 (2013)

This list may not be complete. Please suggest additional citations or
report any other bugs at https://github.com/shankar1729/jdftx/issues

Initialization completed successfully at t[s]:      4.99


-------- Electronic minimization -----------
Will mix electronic density at each iteration.
	FillingsUpdate:  mu: +0.331177908  nElectrons: 3.000000  magneticMoment: [ Abs: 0.64000  Tot: -0.64000 ]
	FillingsUpdate:  mu: -0.971835740  nElectrons: 3.000000  magneticMoment: [ Abs: 0.64000  Tot: -0.64000 ]
SCF: Cycle:  0   F: -6.840340902880325   dF: -5.660e+00   |Residual|: 1.174e+00   |deigs|: 4.172e+00  t[s]:      6.66
	FillingsUpdate:  mu: -0.852028314  nElectrons: 3.000000  magneticMoment: [ Abs: 0.97461  Tot: -0.64000 ]
SCF: Cycle:  1   F: -6.934731042138835   dF: -9.439e-02   |Residual|: 7.758e-01   |deigs|: 2.373e-01  t[s]:      8.01
	FillingsUpdate:  mu: -0.654509122  nElectrons: 3.000000  magneticMoment: [ Abs: 1.26434  Tot: -0.64000 ]
SCF: Cycle:  2   F: -7.046384009891837   dF: -1.117e-01   |Residual|: 4.194e-01   |deigs|: 7.721e-01  t[s]:      9.36
	FillingsUpdate:  mu: -0.666906254  nElectrons: 3.000000  magneticMoment: [ Abs: 1.04930  Tot: -0.64000 ]
SCF: Cycle:  3   F: -7.053784218106384   dF: -7.400e-03   |Residual|: 1.965e-01   |deigs|: 1.272e-01  t[s]:     10.72
	FillingsUpdate:  mu: -0.617448173  nElectrons: 3.000000  magneticMoment: [ Abs: 0.81635  Tot: -0.64000 ]
SCF: Cycle:  4   F: -7.053467140006617   dF: +3.171e-04   |Residual|: 4.005e-02   |deigs|: 3.888e-02  t[s]:     12.10
	FillingsUpdate:  mu: -0.595996060  nElectrons: 3.000000  magneticMoment: [ Abs: 0.78857  Tot: -0.64000 ]
SCF: Cycle:  5   F: -7.053777106235472   dF: -3.100e-04   |Residual|: 7.957e-02   |deigs|: 1.732e-02  t[s]:     13.50
	FillingsUpdate:  mu: -0.465222859  nElectrons: 3.000000  magneticMoment: [ Abs: 0.89441  Tot: -0.64000 ]
SCF: Cycle:  6   F: -7.057684587365501   dF: -3.907e-03   |Residual|: 9.626e-02   |deigs|: 1.491e-01  t[s]:     14.94
	FillingsUpdate:  mu: -0.443369860  nElectrons: 3.000000  magneticMoment: [ Abs: 0.83060  Tot: -0.64000 ]
SCF: Cycle:  7   F: -7.058434211846238   dF: -7.496e-04   |Residual|: 4.497e-02   |deigs|: 5.282e-02  t[s]:     16.38
	FillingsUpdate:  mu: -0.404840597  nElectrons: 3.000000  magneticMoment: [ Abs: 0.79318  Tot: -0.64000 ]
SCF: Cycle:  8   F: -7.060270837586470   dF: -1.837e-03   |Residual|: 5.746e-02   |deigs|: 3.938e-02  t[s]:     17.89
	FillingsUpdate:  mu: -0.361687334  nElectrons: 3.000000  magneticMoment: [ Abs: 0.76263  Tot: -0.64000 ]
SCF: Cycle:  9   F: -7.062191334202722   dF: -1.920e-03   |Residual|: 2.216e-02   |deigs|: 3.441e-02  t[s]:     19.43
	FillingsUpdate:  mu: -0.328239863  nElectrons: 3.000000  magneticMoment: [ Abs: 0.76134  Tot: -0.64000 ]
SCF: Cycle: 10   F: -7.063076092948683   dF: -8.848e-04   |Residual|: 2.654e-02   |deigs|: 2.822e-02  t[s]:     20.96
	FillingsUpdate:  mu: -0.284756552  nElectrons: 3.000000  magneticMoment: [ Abs: 0.80770  Tot: -0.64000 ]
SCF: Cycle: 11   F: -7.063554001928380   dF: -4.779e-04   |Residual|: 1.872e-02   |deigs|: 4.708e-02  t[s]:     22.51
	FillingsUpdate:  mu: -0.242714832  nElectrons: 3.000000  magneticMoment: [ Abs: 0.81558  Tot: -0.64000 ]
SCF: Cycle: 12   F: -7.063865462162981   dF: -3.115e-04   |Residual|: 1.276e-02   |deigs|: 4.444e-02  t[s]:     24.05
	FillingsUpdate:  mu: -0.203055476  nElectrons: 3.000000  magneticMoment: [ Abs: 0.79221  Tot: -0.64000 ]
SCF: Cycle: 13   F: -7.064184368630971   dF: -3.189e-04   |Residual|: 1.181e-02   |deigs|: 4.017e-02  t[s]:     25.59
	FillingsUpdate:  mu: -0.169333131  nElectrons: 3.000000  magneticMoment: [ Abs: 0.75023  Tot: -0.64000 ]
SCF: Cycle: 14   F: -7.064286565956063   dF: -1.022e-04   |Residual|: 9.386e-03   |deigs|: 3.402e-02  t[s]:     27.13
	FillingsUpdate:  mu: -0.139096813  nElectrons: 3.000000  magneticMoment: [ Abs: 0.71964  Tot: -0.64000 ]
SCF: Cycle: 15   F: -7.064244553252983   dF: +4.201e-05   |Residual|: 7.141e-03   |deigs|: 3.007e-02  t[s]:     28.71
	FillingsUpdate:  mu: -0.122155668  nElectrons: 3.000000  magneticMoment: [ Abs: 0.70648  Tot: -0.64000 ]
SCF: Cycle: 16   F: -7.064483889859607   dF: -2.393e-04   |Residual|: 5.342e-03   |deigs|: 1.776e-02  t[s]:     30.35
	FillingsUpdate:  mu: -0.116916991  nElectrons: 3.000000  magneticMoment: [ Abs: 0.68178  Tot: -0.64000 ]
SCF: Cycle: 17   F: -7.064635750121480   dF: -1.519e-04   |Residual|: 3.334e-03   |deigs|: 5.754e-03  t[s]:     31.89
	FillingsUpdate:  mu: -0.114379764  nElectrons: 3.000000  magneticMoment: [ Abs: 0.66568  Tot: -0.64000 ]
SCF: Cycle: 18   F: -7.064698301495066   dF: -6.255e-05   |Residual|: 2.318e-03   |deigs|: 2.563e-03  t[s]:     33.47
	FillingsUpdate:  mu: -0.113889266  nElectrons: 3.000000  magneticMoment: [ Abs: 0.65653  Tot: -0.64000 ]
SCF: Cycle: 19   F: -7.064728603782354   dF: -3.030e-05   |Residual|: 1.571e-03   |deigs|: 9.824e-04  t[s]:     35.01
	FillingsUpdate:  mu: -0.113287880  nElectrons: 3.000000  magneticMoment: [ Abs: 0.65231  Tot: -0.64000 ]
SCF: Cycle: 20   F: -7.064742105105520   dF: -1.350e-05   |Residual|: 9.986e-04   |deigs|: 6.161e-04  t[s]:     36.54
	FillingsUpdate:  mu: -0.111757594  nElectrons: 3.000000  magneticMoment: [ Abs: 0.64940  Tot: -0.64000 ]
SCF: Cycle: 21   F: -7.064749178177204   dF: -7.073e-06   |Residual|: 6.366e-04   |deigs|: 1.577e-03  t[s]:     38.10
	FillingsUpdate:  mu: -0.110617072  nElectrons: 3.000000  magneticMoment: [ Abs: 0.64877  Tot: -0.64000 ]
SCF: Cycle: 22   F: -7.064751093629661   dF: -1.915e-06   |Residual|: 5.076e-04   |deigs|: 1.233e-03  t[s]:     39.71
	FillingsUpdate:  mu: -0.109595666  nElectrons: 3.000000  magneticMoment: [ Abs: 0.64772  Tot: -0.64000 ]
SCF: Cycle: 23   F: -7.064751175783603   dF: -8.215e-08   |Residual|: 4.033e-04   |deigs|: 1.130e-03  t[s]:     41.26
	FillingsUpdate:  mu: -0.108778574  nElectrons: 3.000000  magneticMoment: [ Abs: 0.64605  Tot: -0.64000 ]
SCF: Cycle: 24   F: -7.064752135825643   dF: -9.600e-07   |Residual|: 2.947e-04   |deigs|: 8.631e-04  t[s]:     42.78
	FillingsUpdate:  mu: -0.108626334  nElectrons: 3.000000  magneticMoment: [ Abs: 0.64465  Tot: -0.64000 ]
SCF: Cycle: 25   F: -7.064752464493603   dF: -3.287e-07   |Residual|: 2.205e-04   |deigs|: 1.432e-04  t[s]:     44.37
	FillingsUpdate:  mu: -0.108859928  nElectrons: 3.000000  magneticMoment: [ Abs: 0.64236  Tot: -0.64000 ]
SCF: Cycle: 26   F: -7.064753066749723   dF: -6.023e-07   |Residual|: 1.560e-04   |deigs|: 2.866e-04  t[s]:     45.96
	FillingsUpdate:  mu: -0.109269539  nElectrons: 3.000000  magneticMoment: [ Abs: 0.64100  Tot: -0.64000 ]
SCF: Cycle: 27   F: -7.064753442116761   dF: -3.754e-07   |Residual|: 9.072e-05   |deigs|: 4.237e-04  t[s]:     47.51
	FillingsUpdate:  mu: -0.109533801  nElectrons: 3.000000  magneticMoment: [ Abs: 0.64024  Tot: -0.64000 ]
SCF: Cycle: 28   F: -7.064753523152779   dF: -8.104e-08   |Residual|: 6.177e-05   |deigs|: 2.595e-04  t[s]:     49.02
	FillingsUpdate:  mu: -0.109667692  nElectrons: 3.000000  magneticMoment: [ Abs: 0.64002  Tot: -0.64000 ]
SCF: Cycle: 29   F: -7.064753551953603   dF: -2.880e-08   |Residual|: 4.513e-05   |deigs|: 1.338e-04  t[s]:     50.52
	FillingsUpdate:  mu: -0.109786620  nElectrons: 3.000000  magneticMoment: [ Abs: 0.64002  Tot: -0.64000 ]
SCF: Cycle: 30   F: -7.064753572371514   dF: -2.042e-08   |Residual|: 3.212e-05   |deigs|: 1.288e-04  t[s]:     52.02
	FillingsUpdate:  mu: -0.109853787  nElectrons: 3.000000  magneticMoment: [ Abs: 0.64000  Tot: -0.64000 ]
SCF: Cycle: 31   F: -7.064753594407642   dF: -2.204e-08   |Residual|: 2.034e-05   |deigs|: 7.734e-05  t[s]:     53.61
	FillingsUpdate:  mu: -0.109878372  nElectrons: 3.000000  magneticMoment: [ Abs: 0.64000  Tot: -0.64000 ]
SCF: Cycle: 32   F: -7.064753606764545   dF: -1.236e-08   |Residual|: 1.334e-05   |deigs|: 4.267e-05  t[s]:     55.09
	FillingsUpdate:  mu: -0.109894209  nElectrons: 3.000000  magneticMoment: [ Abs: 0.64000  Tot: -0.64000 ]
SCF: Cycle: 33   F: -7.064753611407844   dF: -4.643e-09   |Residual|: 1.094e-05   |deigs|: 3.729e-05  t[s]:     56.59
	FillingsUpdate:  mu: -0.109900327  nElectrons: 3.000000  magneticMoment: [ Abs: 0.64000  Tot: -0.64000 ]
SCF: Cycle: 34   F: -7.064753609340898   dF: +2.067e-09   |Residual|: 9.850e-06   |deigs|: 2.581e-05  t[s]:     58.15
	FillingsUpdate:  mu: -0.109911061  nElectrons: 3.000000  magneticMoment: [ Abs: 0.64000  Tot: -0.64000 ]
SCF: Cycle: 35   F: -7.064753608672649   dF: +6.682e-10   |Residual|: 7.737e-06   |deigs|: 4.346e-04  t[s]:     59.72
	FillingsUpdate:  mu: -0.109930972  nElectrons: 3.000000  magneticMoment: [ Abs: 0.64000  Tot: -0.64000 ]
SCF: Cycle: 36   F: -7.064753610341294   dF: -1.669e-09   |Residual|: 5.149e-06   |deigs|: 5.341e-05  t[s]:     61.24
	FillingsUpdate:  mu: -0.109942644  nElectrons: 3.000000  magneticMoment: [ Abs: 0.64000  Tot: -0.64000 ]
SCF: Cycle: 37   F: -7.064753611475212   dF: -1.134e-09   |Residual|: 4.020e-06   |deigs|: 3.933e-05  t[s]:     62.78
SCF: Converged (|Delta E|<1.000000e-08 for 2 iters).


# Ionic positions in lattice coordinates:
ion Li   0.000000000000000   0.000000000000000   0.000000000000000 0

# Forces in Lattice coordinates:
force Li  -0.000000000000000   0.000000000000000   0.000000000000000 0

# Energy components:
   Eewald =       -2.0053362333702967
       EH =        1.5371237122566139
     Eloc =       -6.1992045440225594
      Enl =       -3.5900269911176763
   Epulay =        0.0000032255226020
      Exc =       -1.5417487322343395
       KE =        4.7344369816879031
-------------------------------------
     Etot =       -7.0647525812777516
       TS =        0.0000010301974605
-------------------------------------
        F =       -7.0647536114752123

IonicMinimize: Iter:   0  F: -7.064753611475212  |grad|_K:  0.000e+00  t[s]:     62.85
IonicMinimize: Converged (|grad|_K<1.000000e-04).

#--- Lowdin population analysis ---
# oxidation-state Li +2.214
# magnetic-moments Li -0.445

End date and time: Sat Feb  5 22:47:01 2022  (Duration: 0-0:01:02.86)
Done!
scale=3
magnetization=-0.64
--------------------------------------------------------------------------
The library attempted to open the following supporting CUDA libraries,
but each of them failed.  CUDA-aware support is disabled.
libcuda.so.1: cannot open shared object file: No such file or directory
libcuda.dylib: cannot open shared object file: No such file or directory
/usr/lib64/libcuda.so.1: cannot open shared object file: No such file or directory
/usr/lib64/libcuda.dylib: cannot open shared object file: No such file or directory
If you are not interested in CUDA-aware support, then run with
--mca opal_warn_on_missing_libcuda 0 to suppress this message.  If you are interested
in CUDA-aware support, then try setting LD_LIBRARY_PATH to the location
of libcuda.so.1 to get passed this issue.
--------------------------------------------------------------------------
--------------------------------------------------------------------------
No OpenFabrics connection schemes reported that they were able to be
used on a specific port.  As such, the openib BTL (OpenFabrics
support) will be disabled for this port.

  Local host:           d-16-5-2
  Local device:         mlx5_1
  Local port:           1
  CPCs attempted:       rdmacm, udcm
--------------------------------------------------------------------------

*************** JDFTx 1.6.0 (git hash 42ebbcc2) ***************

Start date and time: Sat Feb  5 22:47:02 2022
Executable jdftx with command-line: -i Alkali.in
Running on hosts (process indices):  d-16-5-2 (0-18)
Divided in process groups (process indices):  0 (0)  1 (1)  2 (2)  3 (3)  4 (4)  5 (5)  6 (6)  7 (7)  8 (8)  9 (9)  10 (10)  11 (11)  12 (12)  13 (13)  14 (14)  15 (15)  16 (16)  17 (17)  18 (18)
Resource initialization completed at t[s]:      0.00
Run totals: 19 processes, 48 threads, 0 GPUs


Input parsed successfully to the following command list (including defaults):

basis kpoint-dependent
coords-type Lattice
core-overlap-check vector
coulomb-interaction Slab 001
davidson-band-ratio 1.1
dump End None
dump-name $INPUT.$VAR
elec-cutoff 20
elec-eigen-algo Davidson
elec-ex-corr gga-PBE
elec-initial-magnetization -0.640000 yes
elec-smearing Fermi 1e-05
electronic-minimize  \
	dirUpdateScheme      FletcherReeves \
	linminMethod         DirUpdateRecommended \
	nIterations          100 \
	history              15 \
	knormThreshold       0 \
	energyDiffThreshold  1e-08 \
	nEnergyDiff          2 \
	alphaTstart          1 \
	alphaTmin            1e-10 \
	updateTestStepSize   yes \
	alphaTreduceFactor   0.1 \
	alphaTincreaseFactor 3 \
	nAlphaAdjustMax      3 \
	wolfeEnergy          0.0001 \
	wolfeGradient        0.9 \
	fdTest               no
electronic-scf  \
	nIterations	10000 \
	energyDiffThreshold	1e-08 \
	residualThreshold	1e-07 \
	mixFraction	0.5 \
	qMetric	0.8 \
	history	10 \
	nEigSteps	2 \
	eigDiffThreshold	1e-08 \
	mixedVariable	Density \
	qKerker	0.8 \
	qKappa	-1 \
	verbose	no \
	mixFractionMag	1.5
exchange-regularization WignerSeitzTruncated
fluid None
fluid-ex-corr (null) lda-PZ
fluid-gummel-loop 10 1.000000e-05
fluid-minimize  \
	dirUpdateScheme      PolakRibiere \
	linminMethod         DirUpdateRecommended \
	nIterations          100 \
	history              15 \
	knormThreshold       0 \
	energyDiffThreshold  0 \
	nEnergyDiff          2 \
	alphaTstart          1 \
	alphaTmin            1e-10 \
	updateTestStepSize   yes \
	alphaTreduceFactor   0.1 \
	alphaTincreaseFactor 3 \
	nAlphaAdjustMax      3 \
	wolfeEnergy          0.0001 \
	wolfeGradient        0.9 \
	fdTest               no
fluid-solvent H2O 55.338 ScalarEOS \
	epsBulk 78.4 \
	pMol 0.92466 \
	epsInf 1.77 \
	Pvap 1.06736e-10 \
	sigmaBulk 4.62e-05 \
	Rvdw 2.61727 \
	Res 1.42 \
	tauNuc 343133 \
	poleEl 15 7 1
forces-output-coords Positions
ion Li   0.000000000000000   0.000000000000000   0.000000000000000 0
ion-species SG15/$ID_ONCV_PBE.upf
ion-width 0
ionic-minimize  \
	dirUpdateScheme      L-BFGS \
	linminMethod         DirUpdateRecommended \
	nIterations          0 \
	history              15 \
	knormThreshold       0.0001 \
	energyDiffThreshold  1e-06 \
	nEnergyDiff          2 \
	alphaTstart          1 \
	alphaTmin            1e-10 \
	updateTestStepSize   yes \
	alphaTreduceFactor   0.1 \
	alphaTincreaseFactor 3 \
	nAlphaAdjustMax      3 \
	wolfeEnergy          0.0001 \
	wolfeGradient        0.9 \
	fdTest               no
kpoint   0.000000000000   0.000000000000   0.000000000000  1.00000000000000
kpoint-folding 12 12 1 
latt-move-scale 1 1 1
latt-scale 3 3 1 
lattice  \
	   4.727486978767153   -2.363743489383575    0.000000000000000  \
	  -0.000000000000000    4.094123819672498    0.000000000000000  \
	   0.000000000000000    0.000000000000000   40.000000000000000 
lattice-minimize  \
	dirUpdateScheme      L-BFGS \
	linminMethod         DirUpdateRecommended \
	nIterations          0 \
	history              15 \
	knormThreshold       0 \
	energyDiffThreshold  1e-06 \
	nEnergyDiff          2 \
	alphaTstart          1 \
	alphaTmin            1e-10 \
	updateTestStepSize   yes \
	alphaTreduceFactor   0.1 \
	alphaTincreaseFactor 3 \
	nAlphaAdjustMax      3 \
	wolfeEnergy          0.0001 \
	wolfeGradient        0.9 \
	fdTest               no
lcao-params -1 1e-06 1e-05
pcm-variant GLSSA13
spintype z-spin
subspace-rotation-factor 1 yes
symmetries automatic
symmetry-threshold 0.0001



---------- Setting up symmetries ----------

Found 24 point-group symmetries of the bravais lattice
Found 24 space-group symmetries with basis
Applied RMS atom displacement 0 bohrs to make symmetries exact.

---------- Initializing the Grid ----------
R = 
[      14.1825     -7.09123            0  ]
[            0      12.2824            0  ]
[            0            0           40  ]
unit cell volume = 6967.77
G =
[   0.443025   0.255781         -0  ]
[          0   0.511561         -0  ]
[         -0         -0    0.15708  ]
Minimum fftbox size, Smin = [  60  60  164  ]
Chosen fftbox size, S = [  60  60  168  ]

---------- Exchange Correlation functional ----------
Initalized PBE GGA exchange.
Initalized PBE GGA correlation.

---------- Setting up pseudopotentials ----------
Width of ionic core gaussian charges (only for fluid interactions / plotting) set to 0

Reading pseudopotential file '/home/gridsan/aligho/DFT/build-Nov24/pseudopotentials/SG15/Li_ONCV_PBE.upf':
  'Li' pseudopotential, 'PBE' functional
  Generated using ONCVPSP code by D. R. Hamann
  Author: Martin Schlipf and Francois Gygi  Date: 150915.
  3 valence electrons, 2 orbitals, 4 projectors, 1328 radial grid points, with lMax = 1
  Transforming local potential to a uniform radial grid of dG=0.02 with 1489 points.
  Transforming nonlocal projectors to a uniform radial grid of dG=0.02 with 432 points.
    1S    l: 0   occupation:  2.0   eigenvalue: -1.905623
    2S    l: 0   occupation:  1.0   eigenvalue: -0.105624
  Transforming atomic orbitals to a uniform radial grid of dG=0.02 with 432 points.
  WARNING: large normalization error in atomic orbital 1s (integral: 0.000000).
  Core radius for overlap checks: 1.63 bohrs.
  Reading pulay file /home/gridsan/aligho/DFT/build-Nov24/pseudopotentials/SG15/Li_ONCV_PBE.pulay ... using dE_dnG = -1.230239e-02 computed for Ecut = 20.

Initialized 1 species with 1 total atoms.

Folded 1 k-points by 12x12x1 to 144 k-points.

---------- Setting up k-points, bands, fillings ----------
Reduced to 19 k-points under symmetry. 
Computing the number of bands and number of electrons
Calculating initial fillings.
nElectrons:   3.000000   nBands: 3   nStates: 38

----- Setting up reduced wavefunction bases (one per k-point) -----
average nbasis = 29766.104 , ideal nbasis = 29766.845

---------- Setting up coulomb interaction ----------
Initialized slab truncation along lattice direction 001

---------- Setting up 2D ewald sum ----------
Optimum gaussian width for ewald sums = 7.873530 bohr.
Real space sums over 289 unit cells with max indices [  8  8  0  ]
Reciprocal space sums over 81 terms with max indices [  4  4  0  ]

---------- Allocating electronic variables ----------
Initializing wave functions:  linear combination of atomic orbitals
Note: number of bands (3) exceeds available atomic orbitals (2)
Li pseudo-atom occupations:   s ( 2 1 )
[d-16-5-2:78417] 18 more processes have sent help message help-mpi-common-cuda.txt / dlopen failed
[d-16-5-2:78417] Set MCA parameter "orte_base_help_aggregate" to 0 to see all help / error messages
[d-16-5-2:78417] 18 more processes have sent help message help-mpi-btl-openib-cpc-base.txt / no cpcs for port
	FillingsUpdate:  mu: +0.348895409  nElectrons: 3.000000  magneticMoment: [ Abs: 0.64004  Tot: -0.64000 ]
LCAOMinimize: Iter:   0  F: -1.2833666079120798  |grad|_K:  4.658e-05  alpha:  1.000e+00
	FillingsUpdate:  mu: +0.348894893  nElectrons: 3.000000  magneticMoment: [ Abs: 0.64004  Tot: -0.64000 ]
LCAOMinimize: Iter:   1  F: -1.2833670004624045  |grad|_K:  4.114e-07  alpha:  1.058e+00  linmin: -1.557e-03  cgtest:  8.993e-03  t[s]:      7.52
LCAOMinimize: Encountered beta<0, resetting CG.
	FillingsUpdate:  mu: +0.348894895  nElectrons: 3.000000  magneticMoment: [ Abs: 0.64004  Tot: -0.64000 ]
LCAOMinimize: Iter:   2  F: -1.2833670004936639  |grad|_K:  3.757e-08  alpha:  1.101e+00  linmin:  2.365e-02  cgtest: -9.146e-01  t[s]:      9.52
LCAOMinimize: Converged (|Delta F|<1.000000e-06 for 2 iters).


---- Citations for features of the code used in this run ----

   Software package:
      R. Sundararaman, K. Letchworth-Weaver, K.A. Schwarz, D. Gunceler, Y. Ozhabes and T.A. Arias, 'JDFTx: software for joint density-functional theory', SoftwareX 6, 278 (2017)

   gga-PBE exchange-correlation functional:
      J.P. Perdew, K. Burke and M. Ernzerhof, Phys. Rev. Lett. 77, 3865 (1996)

   Pseudopotentials:
      M Schlipf and F Gygi, Comput. Phys. Commun. 196, 36 (2015)

   Truncated Coulomb potentials:
      R. Sundararaman and T.A. Arias, Phys. Rev. B 87, 165122 (2013)

This list may not be complete. Please suggest additional citations or
report any other bugs at https://github.com/shankar1729/jdftx/issues

Initialization completed successfully at t[s]:      9.62


-------- Electronic minimization -----------
Will mix electronic density at each iteration.
	FillingsUpdate:  mu: +0.348894895  nElectrons: 3.000000  magneticMoment: [ Abs: 0.64004  Tot: -0.64000 ]
	FillingsUpdate:  mu: -0.695639379  nElectrons: 3.000000  magneticMoment: [ Abs: 0.64004  Tot: -0.64000 ]
SCF: Cycle:  0   F: -6.881104706493344   dF: -5.598e+00   |Residual|: 1.224e+00   |deigs|: 4.156e+00  t[s]:     13.06
	FillingsUpdate:  mu: -0.569411360  nElectrons: 3.000000  magneticMoment: [ Abs: 1.01287  Tot: -0.64000 ]
SCF: Cycle:  1   F: -6.918495256386842   dF: -3.739e-02   |Residual|: 7.640e-01   |deigs|: 2.737e-01  t[s]:     15.72
	FillingsUpdate:  mu: -0.368299640  nElectrons: 3.000000  magneticMoment: [ Abs: 1.39478  Tot: -0.64000 ]
SCF: Cycle:  2   F: -7.038481808654153   dF: -1.200e-01   |Residual|: 3.303e-01   |deigs|: 7.080e-01  t[s]:     18.56
	FillingsUpdate:  mu: -0.376713044  nElectrons: 3.000000  magneticMoment: [ Abs: 1.25462  Tot: -0.64000 ]
SCF: Cycle:  3   F: -7.040073129252930   dF: -1.591e-03   |Residual|: 1.745e-01   |deigs|: 8.461e-02  t[s]:     21.41
	FillingsUpdate:  mu: -0.328131119  nElectrons: 3.000000  magneticMoment: [ Abs: 1.05561  Tot: -0.64000 ]
SCF: Cycle:  4   F: -7.043452266455151   dF: -3.379e-03   |Residual|: 4.104e-02   |deigs|: 4.003e-02  t[s]:     24.32
	FillingsUpdate:  mu: -0.309666011  nElectrons: 3.000000  magneticMoment: [ Abs: 0.98131  Tot: -0.64000 ]
SCF: Cycle:  5   F: -7.043495072087816   dF: -4.281e-05   |Residual|: 8.006e-02   |deigs|: 1.754e-02  t[s]:     27.28
	FillingsUpdate:  mu: -0.275502922  nElectrons: 3.000000  magneticMoment: [ Abs: 0.79173  Tot: -0.64000 ]
SCF: Cycle:  6   F: -7.045646664099113   dF: -2.152e-03   |Residual|: 3.600e-02   |deigs|: 6.656e-02  t[s]:     30.35
	FillingsUpdate:  mu: -0.259142803  nElectrons: 3.000000  magneticMoment: [ Abs: 0.76096  Tot: -0.64000 ]
SCF: Cycle:  7   F: -7.047260824114403   dF: -1.614e-03   |Residual|: 5.202e-02   |deigs|: 4.269e-02  t[s]:     33.43
	FillingsUpdate:  mu: -0.256636186  nElectrons: 3.000000  magneticMoment: [ Abs: 0.72689  Tot: -0.64000 ]
SCF: Cycle:  8   F: -7.047566204101128   dF: -3.054e-04   |Residual|: 4.946e-02   |deigs|: 3.385e-03  t[s]:     36.59
	FillingsUpdate:  mu: -0.231682066  nElectrons: 3.000000  magneticMoment: [ Abs: 0.70711  Tot: -0.64000 ]
SCF: Cycle:  9   F: -7.048709690706486   dF: -1.143e-03   |Residual|: 2.334e-02   |deigs|: 2.274e-02  t[s]:     39.76
	FillingsUpdate:  mu: -0.204431942  nElectrons: 3.000000  magneticMoment: [ Abs: 0.76795  Tot: -0.64000 ]
SCF: Cycle: 10   F: -7.049106955308054   dF: -3.973e-04   |Residual|: 5.737e-02   |deigs|: 2.151e-02  t[s]:     43.11
	FillingsUpdate:  mu: -0.186504205  nElectrons: 3.000000  magneticMoment: [ Abs: 0.81555  Tot: -0.64000 ]
SCF: Cycle: 11   F: -7.049459562656828   dF: -3.526e-04   |Residual|: 1.312e-02   |deigs|: 2.540e-02  t[s]:     46.39
	FillingsUpdate:  mu: -0.172697110  nElectrons: 3.000000  magneticMoment: [ Abs: 0.82053  Tot: -0.64000 ]
SCF: Cycle: 12   F: -7.049667776344966   dF: -2.082e-04   |Residual|: 1.067e-02   |deigs|: 1.553e-02  t[s]:     49.66
	FillingsUpdate:  mu: -0.146617578  nElectrons: 3.000000  magneticMoment: [ Abs: 0.81617  Tot: -0.64000 ]
SCF: Cycle: 13   F: -7.049459516597982   dF: +2.083e-04   |Residual|: 8.042e-03   |deigs|: 2.814e-02  t[s]:     52.97
	FillingsUpdate:  mu: -0.136963811  nElectrons: 3.000000  magneticMoment: [ Abs: 0.78726  Tot: -0.64000 ]
SCF: Cycle: 14   F: -7.049452611164174   dF: +6.905e-06   |Residual|: 7.201e-03   |deigs|: 9.116e-03  t[s]:     56.29
	FillingsUpdate:  mu: -0.123629451  nElectrons: 3.000000  magneticMoment: [ Abs: 0.75787  Tot: -0.64000 ]
SCF: Cycle: 15   F: -7.049570006684712   dF: -1.174e-04   |Residual|: 6.411e-03   |deigs|: 1.404e-02  t[s]:     59.59
	FillingsUpdate:  mu: -0.114803425  nElectrons: 3.000000  magneticMoment: [ Abs: 0.72486  Tot: -0.64000 ]
SCF: Cycle: 16   F: -7.049804667589957   dF: -2.347e-04   |Residual|: 4.606e-03   |deigs|: 9.519e-03  t[s]:     62.85
	FillingsUpdate:  mu: -0.106176121  nElectrons: 3.000000  magneticMoment: [ Abs: 0.69181  Tot: -0.64000 ]
SCF: Cycle: 17   F: -7.050062990732279   dF: -2.583e-04   |Residual|: 3.088e-03   |deigs|: 1.009e-02  t[s]:     66.17
	FillingsUpdate:  mu: -0.104800840  nElectrons: 3.000000  magneticMoment: [ Abs: 0.67635  Tot: -0.64000 ]
SCF: Cycle: 18   F: -7.050135689799861   dF: -7.270e-05   |Residual|: 2.118e-03   |deigs|: 1.862e-03  t[s]:     69.43
	FillingsUpdate:  mu: -0.104874988  nElectrons: 3.000000  magneticMoment: [ Abs: 0.66362  Tot: -0.64000 ]
SCF: Cycle: 19   F: -7.050178280809496   dF: -4.259e-05   |Residual|: 1.214e-03   |deigs|: 8.431e-04  t[s]:     72.79
	FillingsUpdate:  mu: -0.104717441  nElectrons: 3.000000  magneticMoment: [ Abs: 0.65649  Tot: -0.64000 ]
SCF: Cycle: 20   F: -7.050190320344879   dF: -1.204e-05   |Residual|: 7.593e-04   |deigs|: 2.734e-04  t[s]:     76.07
	FillingsUpdate:  mu: -0.104662900  nElectrons: 3.000000  magneticMoment: [ Abs: 0.65167  Tot: -0.64000 ]
SCF: Cycle: 21   F: -7.050196484217172   dF: -6.164e-06   |Residual|: 4.947e-04   |deigs|: 2.051e-04  t[s]:     79.37
	FillingsUpdate:  mu: -0.104785836  nElectrons: 3.000000  magneticMoment: [ Abs: 0.64821  Tot: -0.64000 ]
SCF: Cycle: 22   F: -7.050198929616744   dF: -2.445e-06   |Residual|: 3.353e-04   |deigs|: 1.816e-04  t[s]:     82.65
	FillingsUpdate:  mu: -0.104751024  nElectrons: 3.000000  magneticMoment: [ Abs: 0.64572  Tot: -0.64000 ]
SCF: Cycle: 23   F: -7.050199898397809   dF: -9.688e-07   |Residual|: 2.729e-04   |deigs|: 1.920e-04  t[s]:     85.94
	FillingsUpdate:  mu: -0.104802688  nElectrons: 3.000000  magneticMoment: [ Abs: 0.64358  Tot: -0.64000 ]
SCF: Cycle: 24   F: -7.050200144923721   dF: -2.465e-07   |Residual|: 2.212e-04   |deigs|: 1.349e-04  t[s]:     89.19
	FillingsUpdate:  mu: -0.104695653  nElectrons: 3.000000  magneticMoment: [ Abs: 0.64187  Tot: -0.64000 ]
SCF: Cycle: 25   F: -7.050200190694947   dF: -4.577e-08   |Residual|: 1.626e-04   |deigs|: 1.347e-04  t[s]:     92.48
	FillingsUpdate:  mu: -0.104669975  nElectrons: 3.000000  magneticMoment: [ Abs: 0.64046  Tot: -0.64000 ]
SCF: Cycle: 26   F: -7.050200236442926   dF: -4.575e-08   |Residual|: 1.137e-04   |deigs|: 1.092e-04  t[s]:     95.74
	FillingsUpdate:  mu: -0.104619237  nElectrons: 3.000000  magneticMoment: [ Abs: 0.64029  Tot: -0.64000 ]
SCF: Cycle: 27   F: -7.050200646199130   dF: -4.098e-07   |Residual|: 6.968e-05   |deigs|: 1.070e-04  t[s]:     99.05
	FillingsUpdate:  mu: -0.104594601  nElectrons: 3.000000  magneticMoment: [ Abs: 0.64011  Tot: -0.64000 ]
SCF: Cycle: 28   F: -7.050200870196963   dF: -2.240e-07   |Residual|: 4.626e-05   |deigs|: 9.367e-05  t[s]:    102.35
	FillingsUpdate:  mu: -0.104578137  nElectrons: 3.000000  magneticMoment: [ Abs: 0.64001  Tot: -0.64000 ]
SCF: Cycle: 29   F: -7.050200921122154   dF: -5.093e-08   |Residual|: 3.009e-05   |deigs|: 7.801e-05  t[s]:    105.58
	FillingsUpdate:  mu: -0.104567713  nElectrons: 3.000000  magneticMoment: [ Abs: 0.64000  Tot: -0.64000 ]
SCF: Cycle: 30   F: -7.050200924990246   dF: -3.868e-09   |Residual|: 2.101e-05   |deigs|: 5.643e-05  t[s]:    108.82
	FillingsUpdate:  mu: -0.104562255  nElectrons: 3.000000  magneticMoment: [ Abs: 0.64000  Tot: -0.64000 ]
SCF: Cycle: 31   F: -7.050200956871994   dF: -3.188e-08   |Residual|: 1.406e-05   |deigs|: 4.093e-05  t[s]:    112.07
	FillingsUpdate:  mu: -0.104564874  nElectrons: 3.000000  magneticMoment: [ Abs: 0.64000  Tot: -0.64000 ]
SCF: Cycle: 32   F: -7.050200956038210   dF: +8.338e-10   |Residual|: 1.097e-05   |deigs|: 3.042e-05  t[s]:    115.43
	FillingsUpdate:  mu: -0.104570664  nElectrons: 3.000000  magneticMoment: [ Abs: 0.64000  Tot: -0.64000 ]
SCF: Cycle: 33   F: -7.050200969194756   dF: -1.316e-08   |Residual|: 6.965e-06   |deigs|: 2.419e-05  t[s]:    118.72
	FillingsUpdate:  mu: -0.104576208  nElectrons: 3.000000  magneticMoment: [ Abs: 0.64000  Tot: -0.64000 ]
SCF: Cycle: 34   F: -7.050200974106756   dF: -4.912e-09   |Residual|: 5.212e-06   |deigs|: 1.836e-05  t[s]:    122.07
	FillingsUpdate:  mu: -0.104580299  nElectrons: 3.000000  magneticMoment: [ Abs: 0.64000  Tot: -0.64000 ]
SCF: Cycle: 35   F: -7.050200975193710   dF: -1.087e-09   |Residual|: 3.634e-06   |deigs|: 1.324e-05  t[s]:    125.32
SCF: Converged (|Delta E|<1.000000e-08 for 2 iters).


# Ionic positions in lattice coordinates:
ion Li   0.000000000000000   0.000000000000000   0.000000000000000 0

# Forces in Lattice coordinates:
force Li   0.000000000000000  -0.000000000000000   0.000000000000000 0

# Energy components:
   Eewald =       -1.3368908222468645
       EH =        2.2122948981522956
     Eloc =       -7.5553356523202337
      Enl =       -3.6032296376777206
   Epulay =       -0.0000013080581827
      Exc =       -1.5383885761144862
       KE =        4.7713512195020567
-------------------------------------
     Etot =       -7.0501998787631361
       TS =        0.0000010964305743
-------------------------------------
        F =       -7.0502009751937100

IonicMinimize: Iter:   0  F: -7.050200975193710  |grad|_K:  0.000e+00  t[s]:    125.46
IonicMinimize: Converged (|grad|_K<1.000000e-04).

#--- Lowdin population analysis ---
# oxidation-state Li +2.085
# magnetic-moments Li -0.590

End date and time: Sat Feb  5 22:49:07 2022  (Duration: 0-0:02:05.48)
Done!
scale=4
magnetization=-0.64
--------------------------------------------------------------------------
The library attempted to open the following supporting CUDA libraries,
but each of them failed.  CUDA-aware support is disabled.
libcuda.so.1: cannot open shared object file: No such file or directory
libcuda.dylib: cannot open shared object file: No such file or directory
/usr/lib64/libcuda.so.1: cannot open shared object file: No such file or directory
/usr/lib64/libcuda.dylib: cannot open shared object file: No such file or directory
If you are not interested in CUDA-aware support, then run with
--mca opal_warn_on_missing_libcuda 0 to suppress this message.  If you are interested
in CUDA-aware support, then try setting LD_LIBRARY_PATH to the location
of libcuda.so.1 to get passed this issue.
--------------------------------------------------------------------------
--------------------------------------------------------------------------
No OpenFabrics connection schemes reported that they were able to be
used on a specific port.  As such, the openib BTL (OpenFabrics
support) will be disabled for this port.

  Local host:           d-16-5-2
  Local device:         mlx5_1
  Local port:           1
  CPCs attempted:       rdmacm, udcm
--------------------------------------------------------------------------

*************** JDFTx 1.6.0 (git hash 42ebbcc2) ***************

Start date and time: Sat Feb  5 22:49:08 2022
Executable jdftx with command-line: -i Alkali.in
Running on hosts (process indices):  d-16-5-2 (0-18)
Divided in process groups (process indices):  0 (0)  1 (1)  2 (2)  3 (3)  4 (4)  5 (5)  6 (6)  7 (7)  8 (8)  9 (9)  10 (10)  11 (11)  12 (12)  13 (13)  14 (14)  15 (15)  16 (16)  17 (17)  18 (18)
Resource initialization completed at t[s]:      0.00
Run totals: 19 processes, 48 threads, 0 GPUs


Input parsed successfully to the following command list (including defaults):

basis kpoint-dependent
coords-type Lattice
core-overlap-check vector
coulomb-interaction Slab 001
davidson-band-ratio 1.1
dump End None
dump-name $INPUT.$VAR
elec-cutoff 20
elec-eigen-algo Davidson
elec-ex-corr gga-PBE
elec-initial-magnetization -0.640000 yes
elec-smearing Fermi 1e-05
electronic-minimize  \
	dirUpdateScheme      FletcherReeves \
	linminMethod         DirUpdateRecommended \
	nIterations          100 \
	history              15 \
	knormThreshold       0 \
	energyDiffThreshold  1e-08 \
	nEnergyDiff          2 \
	alphaTstart          1 \
	alphaTmin            1e-10 \
	updateTestStepSize   yes \
	alphaTreduceFactor   0.1 \
	alphaTincreaseFactor 3 \
	nAlphaAdjustMax      3 \
	wolfeEnergy          0.0001 \
	wolfeGradient        0.9 \
	fdTest               no
electronic-scf  \
	nIterations	10000 \
	energyDiffThreshold	1e-08 \
	residualThreshold	1e-07 \
	mixFraction	0.5 \
	qMetric	0.8 \
	history	10 \
	nEigSteps	2 \
	eigDiffThreshold	1e-08 \
	mixedVariable	Density \
	qKerker	0.8 \
	qKappa	-1 \
	verbose	no \
	mixFractionMag	1.5
exchange-regularization WignerSeitzTruncated
fluid None
fluid-ex-corr (null) lda-PZ
fluid-gummel-loop 10 1.000000e-05
fluid-minimize  \
	dirUpdateScheme      PolakRibiere \
	linminMethod         DirUpdateRecommended \
	nIterations          100 \
	history              15 \
	knormThreshold       0 \
	energyDiffThreshold  0 \
	nEnergyDiff          2 \
	alphaTstart          1 \
	alphaTmin            1e-10 \
	updateTestStepSize   yes \
	alphaTreduceFactor   0.1 \
	alphaTincreaseFactor 3 \
	nAlphaAdjustMax      3 \
	wolfeEnergy          0.0001 \
	wolfeGradient        0.9 \
	fdTest               no
fluid-solvent H2O 55.338 ScalarEOS \
	epsBulk 78.4 \
	pMol 0.92466 \
	epsInf 1.77 \
	Pvap 1.06736e-10 \
	sigmaBulk 4.62e-05 \
	Rvdw 2.61727 \
	Res 1.42 \
	tauNuc 343133 \
	poleEl 15 7 1
forces-output-coords Positions
ion Li   0.000000000000000   0.000000000000000   0.000000000000000 0
ion-species SG15/$ID_ONCV_PBE.upf
ion-width 0
ionic-minimize  \
	dirUpdateScheme      L-BFGS \
	linminMethod         DirUpdateRecommended \
	nIterations          0 \
	history              15 \
	knormThreshold       0.0001 \
	energyDiffThreshold  1e-06 \
	nEnergyDiff          2 \
	alphaTstart          1 \
	alphaTmin            1e-10 \
	updateTestStepSize   yes \
	alphaTreduceFactor   0.1 \
	alphaTincreaseFactor 3 \
	nAlphaAdjustMax      3 \
	wolfeEnergy          0.0001 \
	wolfeGradient        0.9 \
	fdTest               no
kpoint   0.000000000000   0.000000000000   0.000000000000  1.00000000000000
kpoint-folding 12 12 1 
latt-move-scale 1 1 1
latt-scale 4 4 1 
lattice  \
	   4.727486978767153   -2.363743489383575    0.000000000000000  \
	  -0.000000000000000    4.094123819672498    0.000000000000000  \
	   0.000000000000000    0.000000000000000   40.000000000000000 
lattice-minimize  \
	dirUpdateScheme      L-BFGS \
	linminMethod         DirUpdateRecommended \
	nIterations          0 \
	history              15 \
	knormThreshold       0 \
	energyDiffThreshold  1e-06 \
	nEnergyDiff          2 \
	alphaTstart          1 \
	alphaTmin            1e-10 \
	updateTestStepSize   yes \
	alphaTreduceFactor   0.1 \
	alphaTincreaseFactor 3 \
	nAlphaAdjustMax      3 \
	wolfeEnergy          0.0001 \
	wolfeGradient        0.9 \
	fdTest               no
lcao-params -1 1e-06 1e-05
pcm-variant GLSSA13
spintype z-spin
subspace-rotation-factor 1 yes
symmetries automatic
symmetry-threshold 0.0001



---------- Setting up symmetries ----------

Found 24 point-group symmetries of the bravais lattice
Found 24 space-group symmetries with basis
Applied RMS atom displacement 0 bohrs to make symmetries exact.

---------- Initializing the Grid ----------
R = 
[      18.9099     -9.45497            0  ]
[            0      16.3765            0  ]
[            0            0           40  ]
unit cell volume = 12387.1
G =
[   0.332269   0.191835         -0  ]
[          0   0.383671         -0  ]
[         -0         -0    0.15708  ]
Minimum fftbox size, Smin = [  80  80  164  ]
Chosen fftbox size, S = [  80  80  168  ]

---------- Exchange Correlation functional ----------
Initalized PBE GGA exchange.
Initalized PBE GGA correlation.

---------- Setting up pseudopotentials ----------
Width of ionic core gaussian charges (only for fluid interactions / plotting) set to 0

Reading pseudopotential file '/home/gridsan/aligho/DFT/build-Nov24/pseudopotentials/SG15/Li_ONCV_PBE.upf':
  'Li' pseudopotential, 'PBE' functional
  Generated using ONCVPSP code by D. R. Hamann
  Author: Martin Schlipf and Francois Gygi  Date: 150915.
  3 valence electrons, 2 orbitals, 4 projectors, 1328 radial grid points, with lMax = 1
  Transforming local potential to a uniform radial grid of dG=0.02 with 1489 points.
  Transforming nonlocal projectors to a uniform radial grid of dG=0.02 with 432 points.
    1S    l: 0   occupation:  2.0   eigenvalue: -1.905623
    2S    l: 0   occupation:  1.0   eigenvalue: -0.105624
  Transforming atomic orbitals to a uniform radial grid of dG=0.02 with 432 points.
  WARNING: large normalization error in atomic orbital 1s (integral: 0.000000).
  Core radius for overlap checks: 1.63 bohrs.
  Reading pulay file /home/gridsan/aligho/DFT/build-Nov24/pseudopotentials/SG15/Li_ONCV_PBE.pulay ... using dE_dnG = -1.230239e-02 computed for Ecut = 20.

Initialized 1 species with 1 total atoms.

Folded 1 k-points by 12x12x1 to 144 k-points.

---------- Setting up k-points, bands, fillings ----------
Reduced to 19 k-points under symmetry. 
Computing the number of bands and number of electrons
Calculating initial fillings.
nElectrons:   3.000000   nBands: 3   nStates: 38

----- Setting up reduced wavefunction bases (one per k-point) -----
average nbasis = 52924.021 , ideal nbasis = 52918.836

---------- Setting up coulomb interaction ----------
Initialized slab truncation along lattice direction 001

---------- Setting up 2D ewald sum ----------
Optimum gaussian width for ewald sums = 10.498040 bohr.
Real space sums over 289 unit cells with max indices [  8  8  0  ]
Reciprocal space sums over 81 terms with max indices [  4  4  0  ]

---------- Allocating electronic variables ----------
Initializing wave functions:  linear combination of atomic orbitals
Note: number of bands (3) exceeds available atomic orbitals (2)
Li pseudo-atom occupations:   s ( 2 1 )
[d-16-5-2:82713] 18 more processes have sent help message help-mpi-common-cuda.txt / dlopen failed
[d-16-5-2:82713] Set MCA parameter "orte_base_help_aggregate" to 0 to see all help / error messages
[d-16-5-2:82713] 18 more processes have sent help message help-mpi-btl-openib-cpc-base.txt / no cpcs for port
	FillingsUpdate:  mu: +0.366388423  nElectrons: 3.000000  magneticMoment: [ Abs: 0.64000  Tot: -0.64000 ]
LCAOMinimize: Iter:   0  F: -1.3095120414143098  |grad|_K:  3.991e-05  alpha:  1.000e+00
	FillingsUpdate:  mu: +0.366388126  nElectrons: 3.000000  magneticMoment: [ Abs: 0.64000  Tot: -0.64000 ]
LCAOMinimize: Iter:   1  F: -1.3095123298507794  |grad|_K:  1.297e-07  alpha:  1.059e+00  linmin: -4.325e-03  cgtest:  1.706e-02  t[s]:     12.73
LCAOMinimize: Encountered beta<0, resetting CG.
	FillingsUpdate:  mu: +0.366388126  nElectrons: 3.000000  magneticMoment: [ Abs: 0.64000  Tot: -0.64000 ]
LCAOMinimize: Iter:   2  F: -1.3095123298533631  |grad|_K:  3.872e-08  alpha:  7.268e-01  linmin: -3.337e-02  cgtest:  9.994e-01  t[s]:     15.94
LCAOMinimize: Encountered beta<0, resetting CG.
LCAOMinimize: Converged (|Delta F|<1.000000e-06 for 2 iters).


---- Citations for features of the code used in this run ----

   Software package:
      R. Sundararaman, K. Letchworth-Weaver, K.A. Schwarz, D. Gunceler, Y. Ozhabes and T.A. Arias, 'JDFTx: software for joint density-functional theory', SoftwareX 6, 278 (2017)

   gga-PBE exchange-correlation functional:
      J.P. Perdew, K. Burke and M. Ernzerhof, Phys. Rev. Lett. 77, 3865 (1996)

   Pseudopotentials:
      M Schlipf and F Gygi, Comput. Phys. Commun. 196, 36 (2015)

   Truncated Coulomb potentials:
      R. Sundararaman and T.A. Arias, Phys. Rev. B 87, 165122 (2013)

This list may not be complete. Please suggest additional citations or
report any other bugs at https://github.com/shankar1729/jdftx/issues

Initialization completed successfully at t[s]:     16.08


-------- Electronic minimization -----------
Will mix electronic density at each iteration.
	FillingsUpdate:  mu: +0.366388126  nElectrons: 3.000000  magneticMoment: [ Abs: 0.64000  Tot: -0.64000 ]
	FillingsUpdate:  mu: -0.616266292  nElectrons: 3.000000  magneticMoment: [ Abs: 0.64000  Tot: -0.64000 ]
SCF: Cycle:  0   F: -6.877940937877004   dF: -5.568e+00   |Residual|: 1.229e+00   |deigs|: 4.155e+00  t[s]:     21.74
	FillingsUpdate:  mu: -0.486104032  nElectrons: 3.000000  magneticMoment: [ Abs: 1.10839  Tot: -0.64000 ]
SCF: Cycle:  1   F: -6.916689716725500   dF: -3.875e-02   |Residual|: 7.630e-01   |deigs|: 2.764e-01  t[s]:     26.28
	FillingsUpdate:  mu: -0.279629795  nElectrons: 3.000000  magneticMoment: [ Abs: 1.43204  Tot: -0.64000 ]
SCF: Cycle:  2   F: -7.037210224546143   dF: -1.205e-01   |Residual|: 3.215e-01   |deigs|: 7.039e-01  t[s]:     30.96
	FillingsUpdate:  mu: -0.286416477  nElectrons: 3.000000  magneticMoment: [ Abs: 1.27997  Tot: -0.64000 ]
SCF: Cycle:  3   F: -7.037448770195072   dF: -2.385e-04   |Residual|: 1.743e-01   |deigs|: 7.958e-02  t[s]:     35.76
	FillingsUpdate:  mu: -0.236588281  nElectrons: 3.000000  magneticMoment: [ Abs: 1.10818  Tot: -0.64000 ]
SCF: Cycle:  4   F: -7.040844657900143   dF: -3.396e-03   |Residual|: 4.666e-02   |deigs|: 4.283e-02  t[s]:     40.64
	FillingsUpdate:  mu: -0.222530695  nElectrons: 3.000000  magneticMoment: [ Abs: 1.09564  Tot: -0.64000 ]
SCF: Cycle:  5   F: -7.042093959175588   dF: -1.249e-03   |Residual|: 7.982e-02   |deigs|: 1.509e-02  t[s]:     45.65
	FillingsUpdate:  mu: -0.200322479  nElectrons: 3.000000  magneticMoment: [ Abs: 0.92786  Tot: -0.64000 ]
SCF: Cycle:  6   F: -7.044285041617580   dF: -2.191e-03   |Residual|: 2.497e-02   |deigs|: 5.051e-02  t[s]:     50.78
	FillingsUpdate:  mu: -0.184398758  nElectrons: 3.000000  magneticMoment: [ Abs: 0.83004  Tot: -0.64000 ]
SCF: Cycle:  7   F: -7.046185237636153   dF: -1.900e-03   |Residual|: 5.129e-02   |deigs|: 4.231e-02  t[s]:     55.98
	FillingsUpdate:  mu: -0.184287812  nElectrons: 3.000000  magneticMoment: [ Abs: 0.77532  Tot: -0.64000 ]
SCF: Cycle:  8   F: -7.046743028099419   dF: -5.578e-04   |Residual|: 3.686e-02   |deigs|: 4.748e-03  t[s]:     61.31
	FillingsUpdate:  mu: -0.181243117  nElectrons: 3.000000  magneticMoment: [ Abs: 0.73393  Tot: -0.64000 ]
SCF: Cycle:  9   F: -7.047522278395866   dF: -7.793e-04   |Residual|: 2.761e-02   |deigs|: 2.262e-02  t[s]:     66.77
	FillingsUpdate:  mu: -0.167998135  nElectrons: 3.000000  magneticMoment: [ Abs: 0.67776  Tot: -0.64000 ]
SCF: Cycle: 10   F: -7.047957738892100   dF: -4.355e-04   |Residual|: 2.638e-02   |deigs|: 1.251e-02  t[s]:     72.27
	FillingsUpdate:  mu: -0.157584790  nElectrons: 3.000000  magneticMoment: [ Abs: 0.71343  Tot: -0.64000 ]
SCF: Cycle: 11   F: -7.047997465925442   dF: -3.973e-05   |Residual|: 1.115e-02   |deigs|: 1.552e-02  t[s]:     77.76
	FillingsUpdate:  mu: -0.148133675  nElectrons: 3.000000  magneticMoment: [ Abs: 0.75133  Tot: -0.64000 ]
SCF: Cycle: 12   F: -7.048185156089663   dF: -1.877e-04   |Residual|: 1.280e-02   |deigs|: 8.143e-03  t[s]:     83.32
	FillingsUpdate:  mu: -0.128347705  nElectrons: 3.000000  magneticMoment: [ Abs: 0.79798  Tot: -0.64000 ]
SCF: Cycle: 13   F: -7.048316383337471   dF: -1.312e-04   |Residual|: 6.465e-03   |deigs|: 2.465e-02  t[s]:     88.82
	FillingsUpdate:  mu: -0.121427780  nElectrons: 3.000000  magneticMoment: [ Abs: 0.79811  Tot: -0.64000 ]
SCF: Cycle: 14   F: -7.048291771345046   dF: +2.461e-05   |Residual|: 5.684e-03   |deigs|: 7.125e-03  t[s]:     94.37
	FillingsUpdate:  mu: -0.114937297  nElectrons: 3.000000  magneticMoment: [ Abs: 0.77409  Tot: -0.64000 ]
SCF: Cycle: 15   F: -7.048339153634659   dF: -4.738e-05   |Residual|: 4.125e-03   |deigs|: 6.377e-03  t[s]:     99.94
	FillingsUpdate:  mu: -0.110559805  nElectrons: 3.000000  magneticMoment: [ Abs: 0.75260  Tot: -0.64000 ]
SCF: Cycle: 16   F: -7.048340141947437   dF: -9.883e-07   |Residual|: 3.244e-03   |deigs|: 4.241e-03  t[s]:    105.56
	FillingsUpdate:  mu: -0.107086829  nElectrons: 3.000000  magneticMoment: [ Abs: 0.72351  Tot: -0.64000 ]
SCF: Cycle: 17   F: -7.048322099091926   dF: +1.804e-05   |Residual|: 2.814e-03   |deigs|: 3.605e-03  t[s]:    111.12
	FillingsUpdate:  mu: -0.104205795  nElectrons: 3.000000  magneticMoment: [ Abs: 0.70449  Tot: -0.64000 ]
SCF: Cycle: 18   F: -7.048371179038780   dF: -4.908e-05   |Residual|: 2.020e-03   |deigs|: 3.375e-03  t[s]:    116.61
	FillingsUpdate:  mu: -0.102973676  nElectrons: 3.000000  magneticMoment: [ Abs: 0.68360  Tot: -0.64000 ]
SCF: Cycle: 19   F: -7.048424715428546   dF: -5.354e-05   |Residual|: 1.490e-03   |deigs|: 1.683e-03  t[s]:    122.11
	FillingsUpdate:  mu: -0.102071767  nElectrons: 3.000000  magneticMoment: [ Abs: 0.67438  Tot: -0.64000 ]
SCF: Cycle: 20   F: -7.048447266916366   dF: -2.255e-05   |Residual|: 1.109e-03   |deigs|: 9.699e-04  t[s]:    127.66
	FillingsUpdate:  mu: -0.101441183  nElectrons: 3.000000  magneticMoment: [ Abs: 0.66392  Tot: -0.64000 ]
SCF: Cycle: 21   F: -7.048466251078778   dF: -1.898e-05   |Residual|: 7.745e-04   |deigs|: 8.067e-04  t[s]:    133.16
	FillingsUpdate:  mu: -0.101852303  nElectrons: 3.000000  magneticMoment: [ Abs: 0.65584  Tot: -0.64000 ]
SCF: Cycle: 22   F: -7.048471076518138   dF: -4.825e-06   |Residual|: 5.847e-04   |deigs|: 4.788e-04  t[s]:    138.59
	FillingsUpdate:  mu: -0.101982869  nElectrons: 3.000000  magneticMoment: [ Abs: 0.64784  Tot: -0.64000 ]
SCF: Cycle: 23   F: -7.048478090292843   dF: -7.014e-06   |Residual|: 3.926e-04   |deigs|: 4.039e-04  t[s]:    144.12
	FillingsUpdate:  mu: -0.102352758  nElectrons: 3.000000  magneticMoment: [ Abs: 0.64382  Tot: -0.64000 ]
SCF: Cycle: 24   F: -7.048482219938157   dF: -4.130e-06   |Residual|: 2.588e-04   |deigs|: 5.211e-04  t[s]:    149.72
	FillingsUpdate:  mu: -0.102373358  nElectrons: 3.000000  magneticMoment: [ Abs: 0.64245  Tot: -0.64000 ]
SCF: Cycle: 25   F: -7.048483297122839   dF: -1.077e-06   |Residual|: 1.581e-04   |deigs|: 1.815e-04  t[s]:    155.26
	FillingsUpdate:  mu: -0.102399718  nElectrons: 3.000000  magneticMoment: [ Abs: 0.64147  Tot: -0.64000 ]
SCF: Cycle: 26   F: -7.048483509309447   dF: -2.122e-07   |Residual|: 8.336e-05   |deigs|: 1.184e-04  t[s]:    160.81
	FillingsUpdate:  mu: -0.102401381  nElectrons: 3.000000  magneticMoment: [ Abs: 0.64096  Tot: -0.64000 ]
SCF: Cycle: 27   F: -7.048483598900474   dF: -8.959e-08   |Residual|: 6.005e-05   |deigs|: 6.400e-05  t[s]:    166.38
	FillingsUpdate:  mu: -0.102426812  nElectrons: 3.000000  magneticMoment: [ Abs: 0.64071  Tot: -0.64000 ]
SCF: Cycle: 28   F: -7.048483605152351   dF: -6.252e-09   |Residual|: 4.432e-05   |deigs|: 6.595e-05  t[s]:    171.98
	FillingsUpdate:  mu: -0.102438695  nElectrons: 3.000000  magneticMoment: [ Abs: 0.64054  Tot: -0.64000 ]
SCF: Cycle: 29   F: -7.048483642012382   dF: -3.686e-08   |Residual|: 3.616e-05   |deigs|: 4.836e-05  t[s]:    177.56
	FillingsUpdate:  mu: -0.102453866  nElectrons: 3.000000  magneticMoment: [ Abs: 0.64044  Tot: -0.64000 ]
SCF: Cycle: 30   F: -7.048483676253773   dF: -3.424e-08   |Residual|: 2.857e-05   |deigs|: 4.251e-05  t[s]:    183.07
	FillingsUpdate:  mu: -0.102457287  nElectrons: 3.000000  magneticMoment: [ Abs: 0.64030  Tot: -0.64000 ]
SCF: Cycle: 31   F: -7.048483697408430   dF: -2.115e-08   |Residual|: 1.880e-05   |deigs|: 3.646e-05  t[s]:    188.58
	FillingsUpdate:  mu: -0.102452583  nElectrons: 3.000000  magneticMoment: [ Abs: 0.64013  Tot: -0.64000 ]
SCF: Cycle: 32   F: -7.048483690055865   dF: +7.353e-09   |Residual|: 1.367e-05   |deigs|: 3.472e-05  t[s]:    194.15
	FillingsUpdate:  mu: -0.102447027  nElectrons: 3.000000  magneticMoment: [ Abs: 0.64004  Tot: -0.64000 ]
SCF: Cycle: 33   F: -7.048483666447226   dF: +2.361e-08   |Residual|: 9.321e-06   |deigs|: 3.133e-05  t[s]:    199.77
	FillingsUpdate:  mu: -0.102443201  nElectrons: 3.000000  magneticMoment: [ Abs: 0.64001  Tot: -0.64000 ]
SCF: Cycle: 34   F: -7.048483690424311   dF: -2.398e-08   |Residual|: 6.780e-06   |deigs|: 2.820e-05  t[s]:    205.36
	FillingsUpdate:  mu: -0.102441488  nElectrons: 3.000000  magneticMoment: [ Abs: 0.64001  Tot: -0.64000 ]
SCF: Cycle: 35   F: -7.048483716950318   dF: -2.653e-08   |Residual|: 5.328e-06   |deigs|: 2.456e-05  t[s]:    210.93
	FillingsUpdate:  mu: -0.102440874  nElectrons: 3.000000  magneticMoment: [ Abs: 0.64001  Tot: -0.64000 ]
SCF: Cycle: 36   F: -7.048483719594205   dF: -2.644e-09   |Residual|: 4.087e-06   |deigs|: 2.135e-05  t[s]:    216.49
	FillingsUpdate:  mu: -0.102439766  nElectrons: 3.000000  magneticMoment: [ Abs: 0.64000  Tot: -0.64000 ]
SCF: Cycle: 37   F: -7.048483720905542   dF: -1.311e-09   |Residual|: 3.171e-06   |deigs|: 1.841e-05  t[s]:    222.07
SCF: Converged (|Delta E|<1.000000e-08 for 2 iters).


# Ionic positions in lattice coordinates:
ion Li   0.000000000000000   0.000000000000000   0.000000000000000 0

# Forces in Lattice coordinates:
force Li   0.000000000000000   0.000000000000000   0.000000000000000 0

# Energy components:
   Eewald =       -1.0026681166851483
       EH =        2.5552980561281413
     Eloc =       -8.2352709177644989
      Enl =       -3.6046987913304172
   Epulay =        0.0000051497655618
      Exc =       -1.5403887199079771
       KE =        4.7792412800254347
-------------------------------------
     Etot =       -7.0484820597689026
       TS =        0.0000016611366399
-------------------------------------
        F =       -7.0484837209055424

IonicMinimize: Iter:   0  F: -7.048483720905542  |grad|_K:  0.000e+00  t[s]:    222.33
IonicMinimize: Converged (|grad|_K<1.000000e-04).

#--- Lowdin population analysis ---
# oxidation-state Li +2.072
# magnetic-moments Li -0.593

End date and time: Sat Feb  5 22:52:51 2022  (Duration: 0-0:03:42.36)
Done!
