The alkali metal is Li
scale=2
magnetization=-0.4
--------------------------------------------------------------------------
The library attempted to open the following supporting CUDA libraries,
but each of them failed.  CUDA-aware support is disabled.
libcuda.so.1: cannot open shared object file: No such file or directory
libcuda.dylib: cannot open shared object file: No such file or directory
/usr/lib64/libcuda.so.1: cannot open shared object file: No such file or directory
/usr/lib64/libcuda.dylib: cannot open shared object file: No such file or directory
If you are not interested in CUDA-aware support, then run with
--mca opal_warn_on_missing_libcuda 0 to suppress this message.  If you are interested
in CUDA-aware support, then try setting LD_LIBRARY_PATH to the location
of libcuda.so.1 to get passed this issue.
--------------------------------------------------------------------------
--------------------------------------------------------------------------
No OpenFabrics connection schemes reported that they were able to be
used on a specific port.  As such, the openib BTL (OpenFabrics
support) will be disabled for this port.

  Local host:           d-6-12-3
  Local device:         mlx5_1
  Local port:           1
  CPCs attempted:       rdmacm, udcm
--------------------------------------------------------------------------

*************** JDFTx 1.6.0 (git hash 42ebbcc2) ***************

Start date and time: Sat Feb  5 22:52:45 2022
Executable jdftx with command-line: -i Alkali.in
Running on hosts (process indices):  d-6-12-3 (0-18)
Divided in process groups (process indices):  0 (0)  1 (1)  2 (2)  3 (3)  4 (4)  5 (5)  6 (6)  7 (7)  8 (8)  9 (9)  10 (10)  11 (11)  12 (12)  13 (13)  14 (14)  15 (15)  16 (16)  17 (17)  18 (18)
Resource initialization completed at t[s]:      0.00
Run totals: 19 processes, 48 threads, 0 GPUs


Input parsed successfully to the following command list (including defaults):

basis kpoint-dependent
coords-type Lattice
core-overlap-check vector
coulomb-interaction Slab 001
davidson-band-ratio 1.1
dump End None
dump-name $INPUT.$VAR
elec-cutoff 20
elec-eigen-algo Davidson
elec-ex-corr gga-PBE
elec-initial-magnetization -0.400000 yes
elec-smearing Fermi 1e-05
electronic-minimize  \
	dirUpdateScheme      FletcherReeves \
	linminMethod         DirUpdateRecommended \
	nIterations          100 \
	history              15 \
	knormThreshold       0 \
	energyDiffThreshold  1e-08 \
	nEnergyDiff          2 \
	alphaTstart          1 \
	alphaTmin            1e-10 \
	updateTestStepSize   yes \
	alphaTreduceFactor   0.1 \
	alphaTincreaseFactor 3 \
	nAlphaAdjustMax      3 \
	wolfeEnergy          0.0001 \
	wolfeGradient        0.9 \
	fdTest               no
electronic-scf  \
	nIterations	10000 \
	energyDiffThreshold	1e-08 \
	residualThreshold	1e-07 \
	mixFraction	0.5 \
	qMetric	0.8 \
	history	10 \
	nEigSteps	2 \
	eigDiffThreshold	1e-08 \
	mixedVariable	Density \
	qKerker	0.8 \
	qKappa	-1 \
	verbose	no \
	mixFractionMag	1.5
exchange-regularization WignerSeitzTruncated
fluid None
fluid-ex-corr (null) lda-PZ
fluid-gummel-loop 10 1.000000e-05
fluid-minimize  \
	dirUpdateScheme      PolakRibiere \
	linminMethod         DirUpdateRecommended \
	nIterations          100 \
	history              15 \
	knormThreshold       0 \
	energyDiffThreshold  0 \
	nEnergyDiff          2 \
	alphaTstart          1 \
	alphaTmin            1e-10 \
	updateTestStepSize   yes \
	alphaTreduceFactor   0.1 \
	alphaTincreaseFactor 3 \
	nAlphaAdjustMax      3 \
	wolfeEnergy          0.0001 \
	wolfeGradient        0.9 \
	fdTest               no
fluid-solvent H2O 55.338 ScalarEOS \
	epsBulk 78.4 \
	pMol 0.92466 \
	epsInf 1.77 \
	Pvap 1.06736e-10 \
	sigmaBulk 4.62e-05 \
	Rvdw 2.61727 \
	Res 1.42 \
	tauNuc 343133 \
	poleEl 15 7 1
forces-output-coords Positions
ion Li   0.000000000000000   0.000000000000000   0.000000000000000 0
ion-species SG15/$ID_ONCV_PBE.upf
ion-width 0
ionic-minimize  \
	dirUpdateScheme      L-BFGS \
	linminMethod         DirUpdateRecommended \
	nIterations          0 \
	history              15 \
	knormThreshold       0.0001 \
	energyDiffThreshold  1e-06 \
	nEnergyDiff          2 \
	alphaTstart          1 \
	alphaTmin            1e-10 \
	updateTestStepSize   yes \
	alphaTreduceFactor   0.1 \
	alphaTincreaseFactor 3 \
	nAlphaAdjustMax      3 \
	wolfeEnergy          0.0001 \
	wolfeGradient        0.9 \
	fdTest               no
kpoint   0.000000000000   0.000000000000   0.000000000000  1.00000000000000
kpoint-folding 12 12 1 
latt-move-scale 1 1 1
latt-scale 2 2 1 
lattice  \
	   4.727486978767153   -2.363743489383575    0.000000000000000  \
	  -0.000000000000000    4.094123819672498    0.000000000000000  \
	   0.000000000000000    0.000000000000000   40.000000000000000 
lattice-minimize  \
	dirUpdateScheme      L-BFGS \
	linminMethod         DirUpdateRecommended \
	nIterations          0 \
	history              15 \
	knormThreshold       0 \
	energyDiffThreshold  1e-06 \
	nEnergyDiff          2 \
	alphaTstart          1 \
	alphaTmin            1e-10 \
	updateTestStepSize   yes \
	alphaTreduceFactor   0.1 \
	alphaTincreaseFactor 3 \
	nAlphaAdjustMax      3 \
	wolfeEnergy          0.0001 \
	wolfeGradient        0.9 \
	fdTest               no
lcao-params -1 1e-06 1e-05
pcm-variant GLSSA13
spintype z-spin
subspace-rotation-factor 1 yes
symmetries automatic
symmetry-threshold 0.0001



---------- Setting up symmetries ----------

Found 24 point-group symmetries of the bravais lattice
Found 24 space-group symmetries with basis
Applied RMS atom displacement 0 bohrs to make symmetries exact.

---------- Initializing the Grid ----------
R = 
[      9.45497     -4.72749            0  ]
[            0      8.18825            0  ]
[            0            0           40  ]
unit cell volume = 3096.79
G =
[   0.664538   0.383671         -0  ]
[          0   0.767342         -0  ]
[         -0         -0    0.15708  ]
Minimum fftbox size, Smin = [  40  40  164  ]
Chosen fftbox size, S = [  40  40  168  ]

---------- Exchange Correlation functional ----------
Initalized PBE GGA exchange.
Initalized PBE GGA correlation.

---------- Setting up pseudopotentials ----------
Width of ionic core gaussian charges (only for fluid interactions / plotting) set to 0

Reading pseudopotential file '/home/gridsan/aligho/DFT/build-Nov24/pseudopotentials/SG15/Li_ONCV_PBE.upf':
  'Li' pseudopotential, 'PBE' functional
  Generated using ONCVPSP code by D. R. Hamann
  Author: Martin Schlipf and Francois Gygi  Date: 150915.
  3 valence electrons, 2 orbitals, 4 projectors, 1328 radial grid points, with lMax = 1
  Transforming local potential to a uniform radial grid of dG=0.02 with 1489 points.
  Transforming nonlocal projectors to a uniform radial grid of dG=0.02 with 432 points.
    1S    l: 0   occupation:  2.0   eigenvalue: -1.905623
    2S    l: 0   occupation:  1.0   eigenvalue: -0.105624
  Transforming atomic orbitals to a uniform radial grid of dG=0.02 with 432 points.
  WARNING: large normalization error in atomic orbital 1s (integral: 0.000000).
  Core radius for overlap checks: 1.63 bohrs.
  Reading pulay file /home/gridsan/aligho/DFT/build-Nov24/pseudopotentials/SG15/Li_ONCV_PBE.pulay ... using dE_dnG = -1.230239e-02 computed for Ecut = 20.

Initialized 1 species with 1 total atoms.

Folded 1 k-points by 12x12x1 to 144 k-points.

---------- Setting up k-points, bands, fillings ----------
Reduced to 19 k-points under symmetry. 
Computing the number of bands and number of electrons
Calculating initial fillings.
nElectrons:   3.000000   nBands: 3   nStates: 38

----- Setting up reduced wavefunction bases (one per k-point) -----
average nbasis = 13230.521 , ideal nbasis = 13229.709

---------- Setting up coulomb interaction ----------
Initialized slab truncation along lattice direction 001

---------- Setting up 2D ewald sum ----------
Optimum gaussian width for ewald sums = 5.249020 bohr.
Real space sums over 289 unit cells with max indices [  8  8  0  ]
Reciprocal space sums over 81 terms with max indices [  4  4  0  ]

---------- Allocating electronic variables ----------
Initializing wave functions:  linear combination of atomic orbitals
Note: number of bands (3) exceeds available atomic orbitals (2)
Li pseudo-atom occupations:   s ( 2 1 )
	FillingsUpdate:  mu: +0.327363709  nElectrons: 3.000000  magneticMoment: [ Abs: 0.40000  Tot: -0.40000 ]
LCAOMinimize: Iter:   0  F: -1.1817033642137369  |grad|_K:  7.349e-05  alpha:  1.000e+00
	FillingsUpdate:  mu: +0.327362422  nElectrons: 3.000000  magneticMoment: [ Abs: 0.40000  Tot: -0.40000 ]
LCAOMinimize: Iter:   1  F: -1.1817043292799507  |grad|_K:  1.802e-06  alpha:  1.045e+00  linmin: -1.792e-03  cgtest:  2.522e-02  t[s]:      3.92
LCAOMinimize: Encountered beta<0, resetting CG.
[d-6-12-3:48962] 18 more processes have sent help message help-mpi-common-cuda.txt / dlopen failed
[d-6-12-3:48962] Set MCA parameter "orte_base_help_aggregate" to 0 to see all help / error messages
[d-6-12-3:48962] 18 more processes have sent help message help-mpi-btl-openib-cpc-base.txt / no cpcs for port
	FillingsUpdate:  mu: +0.327362420  nElectrons: 3.000000  magneticMoment: [ Abs: 0.40000  Tot: -0.40000 ]
LCAOMinimize: Iter:   2  F: -1.1817043298461518  |grad|_K:  5.794e-08  alpha:  1.019e+00  linmin:  7.401e-04  cgtest: -1.848e-02  t[s]:      5.03
LCAOMinimize: Converged (|Delta F|<1.000000e-06 for 2 iters).


---- Citations for features of the code used in this run ----

   Software package:
      R. Sundararaman, K. Letchworth-Weaver, K.A. Schwarz, D. Gunceler, Y. Ozhabes and T.A. Arias, 'JDFTx: software for joint density-functional theory', SoftwareX 6, 278 (2017)

   gga-PBE exchange-correlation functional:
      J.P. Perdew, K. Burke and M. Ernzerhof, Phys. Rev. Lett. 77, 3865 (1996)

   Pseudopotentials:
      M Schlipf and F Gygi, Comput. Phys. Commun. 196, 36 (2015)

   Truncated Coulomb potentials:
      R. Sundararaman and T.A. Arias, Phys. Rev. B 87, 165122 (2013)

This list may not be complete. Please suggest additional citations or
report any other bugs at https://github.com/shankar1729/jdftx/issues

Initialization completed successfully at t[s]:      5.09


-------- Electronic minimization -----------
Will mix electronic density at each iteration.
	FillingsUpdate:  mu: +0.327362420  nElectrons: 3.000000  magneticMoment: [ Abs: 0.40000  Tot: -0.40000 ]
	FillingsUpdate:  mu: -0.971494566  nElectrons: 3.000000  magneticMoment: [ Abs: 0.40000  Tot: -0.40000 ]
SCF: Cycle:  0   F: -6.833940097898205   dF: -5.652e+00   |Residual|: 1.172e+00   |deigs|: 4.171e+00  t[s]:      6.79
	FillingsUpdate:  mu: -0.852859843  nElectrons: 3.000000  magneticMoment: [ Abs: 0.61089  Tot: -0.40000 ]
SCF: Cycle:  1   F: -6.937395057225010   dF: -1.035e-01   |Residual|: 7.742e-01   |deigs|: 2.358e-01  t[s]:      8.14
	FillingsUpdate:  mu: -0.637652782  nElectrons: 3.000000  magneticMoment: [ Abs: 0.79521  Tot: -0.40000 ]
SCF: Cycle:  2   F: -7.049242501252966   dF: -1.118e-01   |Residual|: 4.224e-01   |deigs|: 7.761e-01  t[s]:      9.48
	FillingsUpdate:  mu: -0.657128915  nElectrons: 3.000000  magneticMoment: [ Abs: 0.67181  Tot: -0.40000 ]
SCF: Cycle:  3   F: -7.057041584711974   dF: -7.799e-03   |Residual|: 2.082e-01   |deigs|: 1.227e-01  t[s]:     10.83
	FillingsUpdate:  mu: -0.619724091  nElectrons: 3.000000  magneticMoment: [ Abs: 0.51611  Tot: -0.40000 ]
SCF: Cycle:  4   F: -7.055568135269548   dF: +1.473e-03   |Residual|: 3.924e-02   |deigs|: 3.483e-02  t[s]:     12.29
	FillingsUpdate:  mu: -0.591371769  nElectrons: 3.000000  magneticMoment: [ Abs: 0.50084  Tot: -0.40000 ]
SCF: Cycle:  5   F: -7.055079854977285   dF: +4.883e-04   |Residual|: 1.192e-01   |deigs|: 2.245e-02  t[s]:     13.71
	FillingsUpdate:  mu: -0.461977153  nElectrons: 3.000000  magneticMoment: [ Abs: 0.58504  Tot: -0.40000 ]
SCF: Cycle:  6   F: -7.059576012252295   dF: -4.496e-03   |Residual|: 1.102e-01   |deigs|: 1.562e-01  t[s]:     15.29
	FillingsUpdate:  mu: -0.419304898  nElectrons: 3.000000  magneticMoment: [ Abs: 0.52982  Tot: -0.40000 ]
SCF: Cycle:  7   F: -7.060558249469392   dF: -9.822e-04   |Residual|: 1.446e-01   |deigs|: 1.072e-01  t[s]:     16.74
	FillingsUpdate:  mu: -0.403954151  nElectrons: 3.000000  magneticMoment: [ Abs: 0.49509  Tot: -0.40000 ]
SCF: Cycle:  8   F: -7.061596627163664   dF: -1.038e-03   |Residual|: 9.717e-02   |deigs|: 1.558e-02  t[s]:     18.21
	FillingsUpdate:  mu: -0.341497779  nElectrons: 3.000000  magneticMoment: [ Abs: 0.54691  Tot: -0.40000 ]
SCF: Cycle:  9   F: -7.064076767066633   dF: -2.480e-03   |Residual|: 1.192e-01   |deigs|: 6.825e-02  t[s]:     19.75
	FillingsUpdate:  mu: -0.321088007  nElectrons: 3.000000  magneticMoment: [ Abs: 0.50006  Tot: -0.40000 ]
SCF: Cycle: 10   F: -7.064650088788046   dF: -5.733e-04   |Residual|: 7.778e-02   |deigs|: 2.777e-02  t[s]:     21.27
	FillingsUpdate:  mu: -0.253046364  nElectrons: 3.000000  magneticMoment: [ Abs: 0.52890  Tot: -0.40000 ]
SCF: Cycle: 11   F: -7.065805339768065   dF: -1.155e-03   |Residual|: 1.891e-02   |deigs|: 8.770e-02  t[s]:     22.93
	FillingsUpdate:  mu: -0.227259111  nElectrons: 3.000000  magneticMoment: [ Abs: 0.53050  Tot: -0.40000 ]
SCF: Cycle: 12   F: -7.066034103752278   dF: -2.288e-04   |Residual|: 1.418e-02   |deigs|: 2.775e-02  t[s]:     24.44
	FillingsUpdate:  mu: -0.179416437  nElectrons: 3.000000  magneticMoment: [ Abs: 0.50312  Tot: -0.40000 ]
SCF: Cycle: 13   F: -7.066393931683463   dF: -3.598e-04   |Residual|: 1.302e-02   |deigs|: 4.955e-02  t[s]:     25.96
	FillingsUpdate:  mu: -0.152643297  nElectrons: 3.000000  magneticMoment: [ Abs: 0.47539  Tot: -0.40000 ]
SCF: Cycle: 14   F: -7.066418184664561   dF: -2.425e-05   |Residual|: 9.367e-03   |deigs|: 2.715e-02  t[s]:     27.53
	FillingsUpdate:  mu: -0.135361507  nElectrons: 3.000000  magneticMoment: [ Abs: 0.45543  Tot: -0.40000 ]
SCF: Cycle: 15   F: -7.066426454475106   dF: -8.270e-06   |Residual|: 7.064e-03   |deigs|: 1.574e-02  t[s]:     29.09
	FillingsUpdate:  mu: -0.117880294  nElectrons: 3.000000  magneticMoment: [ Abs: 0.45412  Tot: -0.40000 ]
SCF: Cycle: 16   F: -7.066590711320224   dF: -1.643e-04   |Residual|: 5.093e-03   |deigs|: 1.779e-02  t[s]:     30.60
	FillingsUpdate:  mu: -0.109302106  nElectrons: 3.000000  magneticMoment: [ Abs: 0.44185  Tot: -0.40000 ]
SCF: Cycle: 17   F: -7.066717941530699   dF: -1.272e-04   |Residual|: 3.174e-03   |deigs|: 9.854e-03  t[s]:     32.10
	FillingsUpdate:  mu: -0.108935738  nElectrons: 3.000000  magneticMoment: [ Abs: 0.43024  Tot: -0.40000 ]
SCF: Cycle: 18   F: -7.066758735590490   dF: -4.079e-05   |Residual|: 2.215e-03   |deigs|: 4.658e-04  t[s]:     33.65
	FillingsUpdate:  mu: -0.110544473  nElectrons: 3.000000  magneticMoment: [ Abs: 0.41617  Tot: -0.40000 ]
SCF: Cycle: 19   F: -7.066780807496604   dF: -2.207e-05   |Residual|: 1.072e-03   |deigs|: 2.008e-03  t[s]:     35.26
	FillingsUpdate:  mu: -0.110197402  nElectrons: 3.000000  magneticMoment: [ Abs: 0.41305  Tot: -0.40000 ]
SCF: Cycle: 20   F: -7.066786418402998   dF: -5.611e-06   |Residual|: 7.385e-04   |deigs|: 3.976e-04  t[s]:     36.77
	FillingsUpdate:  mu: -0.109878443  nElectrons: 3.000000  magneticMoment: [ Abs: 0.41095  Tot: -0.40000 ]
SCF: Cycle: 21   F: -7.066789570334125   dF: -3.152e-06   |Residual|: 5.123e-04   |deigs|: 5.201e-04  t[s]:     38.29
	FillingsUpdate:  mu: -0.109308918  nElectrons: 3.000000  magneticMoment: [ Abs: 0.40885  Tot: -0.40000 ]
SCF: Cycle: 22   F: -7.066789012778456   dF: +5.576e-07   |Residual|: 3.681e-04   |deigs|: 6.909e-04  t[s]:     39.83
	FillingsUpdate:  mu: -0.109192050  nElectrons: 3.000000  magneticMoment: [ Abs: 0.40636  Tot: -0.40000 ]
SCF: Cycle: 23   F: -7.066791148467688   dF: -2.136e-06   |Residual|: 3.102e-04   |deigs|: 2.111e-04  t[s]:     41.39
	FillingsUpdate:  mu: -0.109168789  nElectrons: 3.000000  magneticMoment: [ Abs: 0.40411  Tot: -0.40000 ]
SCF: Cycle: 24   F: -7.066790764764054   dF: +3.837e-07   |Residual|: 2.576e-04   |deigs|: 8.994e-05  t[s]:     43.01
	FillingsUpdate:  mu: -0.109000187  nElectrons: 3.000000  magneticMoment: [ Abs: 0.40155  Tot: -0.40000 ]
SCF: Cycle: 25   F: -7.066791607353211   dF: -8.426e-07   |Residual|: 1.762e-04   |deigs|: 1.849e-04  t[s]:     44.58
	FillingsUpdate:  mu: -0.109228421  nElectrons: 3.000000  magneticMoment: [ Abs: 0.40085  Tot: -0.40000 ]
SCF: Cycle: 26   F: -7.066791970013127   dF: -3.627e-07   |Residual|: 1.245e-04   |deigs|: 2.663e-04  t[s]:     46.06
	FillingsUpdate:  mu: -0.109395675  nElectrons: 3.000000  magneticMoment: [ Abs: 0.40031  Tot: -0.40000 ]
SCF: Cycle: 27   F: -7.066792107787127   dF: -1.378e-07   |Residual|: 6.593e-05   |deigs|: 2.011e-04  t[s]:     47.58
	FillingsUpdate:  mu: -0.109497198  nElectrons: 3.000000  magneticMoment: [ Abs: 0.40009  Tot: -0.40000 ]
SCF: Cycle: 28   F: -7.066792166234518   dF: -5.845e-08   |Residual|: 3.422e-05   |deigs|: 1.200e-04  t[s]:     49.11
	FillingsUpdate:  mu: -0.109498914  nElectrons: 3.000000  magneticMoment: [ Abs: 0.40003  Tot: -0.40000 ]
SCF: Cycle: 29   F: -7.066792163413224   dF: +2.821e-09   |Residual|: 1.951e-05   |deigs|: 5.076e-05  t[s]:     50.60
	FillingsUpdate:  mu: -0.109517375  nElectrons: 3.000000  magneticMoment: [ Abs: 0.40003  Tot: -0.40000 ]
SCF: Cycle: 30   F: -7.066792170890568   dF: -7.477e-09   |Residual|: 1.373e-05   |deigs|: 1.127e-04  t[s]:     52.21
	FillingsUpdate:  mu: -0.109536546  nElectrons: 3.000000  magneticMoment: [ Abs: 0.40003  Tot: -0.40000 ]
SCF: Cycle: 31   F: -7.066792175934943   dF: -5.044e-09   |Residual|: 9.767e-06   |deigs|: 4.032e-04  t[s]:     53.74
SCF: Converged (|Delta E|<1.000000e-08 for 2 iters).


# Ionic positions in lattice coordinates:
ion Li   0.000000000000000   0.000000000000000   0.000000000000000 0

# Forces in Lattice coordinates:
force Li  -0.000000000000000  -0.000000000000000   0.000000000000000 0

# Energy components:
   Eewald =       -2.0053362333702967
       EH =        1.5313425327889518
     Eloc =       -6.1925485276885910
      Enl =       -3.5903261150054768
   Epulay =        0.0000032255226020
      Exc =       -1.5387912662546062
       KE =        4.7288647989869581
-------------------------------------
     Etot =       -7.0667915850204572
       TS =        0.0000005909144852
-------------------------------------
        F =       -7.0667921759349426

IonicMinimize: Iter:   0  F: -7.066792175934943  |grad|_K:  0.000e+00  t[s]:     53.83
IonicMinimize: Converged (|grad|_K<1.000000e-04).

#--- Lowdin population analysis ---
# oxidation-state Li +2.182
# magnetic-moments Li -0.277

End date and time: Sat Feb  5 22:53:39 2022  (Duration: 0-0:00:53.85)
Done!
scale=3
magnetization=-0.4
--------------------------------------------------------------------------
The library attempted to open the following supporting CUDA libraries,
but each of them failed.  CUDA-aware support is disabled.
libcuda.so.1: cannot open shared object file: No such file or directory
libcuda.dylib: cannot open shared object file: No such file or directory
/usr/lib64/libcuda.so.1: cannot open shared object file: No such file or directory
/usr/lib64/libcuda.dylib: cannot open shared object file: No such file or directory
If you are not interested in CUDA-aware support, then run with
--mca opal_warn_on_missing_libcuda 0 to suppress this message.  If you are interested
in CUDA-aware support, then try setting LD_LIBRARY_PATH to the location
of libcuda.so.1 to get passed this issue.
--------------------------------------------------------------------------
--------------------------------------------------------------------------
No OpenFabrics connection schemes reported that they were able to be
used on a specific port.  As such, the openib BTL (OpenFabrics
support) will be disabled for this port.

  Local host:           d-6-12-3
  Local device:         mlx5_1
  Local port:           1
  CPCs attempted:       rdmacm, udcm
--------------------------------------------------------------------------

*************** JDFTx 1.6.0 (git hash 42ebbcc2) ***************

Start date and time: Sat Feb  5 22:53:40 2022
Executable jdftx with command-line: -i Alkali.in
Running on hosts (process indices):  d-6-12-3 (0-18)
Divided in process groups (process indices):  0 (0)  1 (1)  2 (2)  3 (3)  4 (4)  5 (5)  6 (6)  7 (7)  8 (8)  9 (9)  10 (10)  11 (11)  12 (12)  13 (13)  14 (14)  15 (15)  16 (16)  17 (17)  18 (18)
Resource initialization completed at t[s]:      0.00
Run totals: 19 processes, 48 threads, 0 GPUs


Input parsed successfully to the following command list (including defaults):

basis kpoint-dependent
coords-type Lattice
core-overlap-check vector
coulomb-interaction Slab 001
davidson-band-ratio 1.1
dump End None
dump-name $INPUT.$VAR
elec-cutoff 20
elec-eigen-algo Davidson
elec-ex-corr gga-PBE
elec-initial-magnetization -0.400000 yes
elec-smearing Fermi 1e-05
electronic-minimize  \
	dirUpdateScheme      FletcherReeves \
	linminMethod         DirUpdateRecommended \
	nIterations          100 \
	history              15 \
	knormThreshold       0 \
	energyDiffThreshold  1e-08 \
	nEnergyDiff          2 \
	alphaTstart          1 \
	alphaTmin            1e-10 \
	updateTestStepSize   yes \
	alphaTreduceFactor   0.1 \
	alphaTincreaseFactor 3 \
	nAlphaAdjustMax      3 \
	wolfeEnergy          0.0001 \
	wolfeGradient        0.9 \
	fdTest               no
electronic-scf  \
	nIterations	10000 \
	energyDiffThreshold	1e-08 \
	residualThreshold	1e-07 \
	mixFraction	0.5 \
	qMetric	0.8 \
	history	10 \
	nEigSteps	2 \
	eigDiffThreshold	1e-08 \
	mixedVariable	Density \
	qKerker	0.8 \
	qKappa	-1 \
	verbose	no \
	mixFractionMag	1.5
exchange-regularization WignerSeitzTruncated
fluid None
fluid-ex-corr (null) lda-PZ
fluid-gummel-loop 10 1.000000e-05
fluid-minimize  \
	dirUpdateScheme      PolakRibiere \
	linminMethod         DirUpdateRecommended \
	nIterations          100 \
	history              15 \
	knormThreshold       0 \
	energyDiffThreshold  0 \
	nEnergyDiff          2 \
	alphaTstart          1 \
	alphaTmin            1e-10 \
	updateTestStepSize   yes \
	alphaTreduceFactor   0.1 \
	alphaTincreaseFactor 3 \
	nAlphaAdjustMax      3 \
	wolfeEnergy          0.0001 \
	wolfeGradient        0.9 \
	fdTest               no
fluid-solvent H2O 55.338 ScalarEOS \
	epsBulk 78.4 \
	pMol 0.92466 \
	epsInf 1.77 \
	Pvap 1.06736e-10 \
	sigmaBulk 4.62e-05 \
	Rvdw 2.61727 \
	Res 1.42 \
	tauNuc 343133 \
	poleEl 15 7 1
forces-output-coords Positions
ion Li   0.000000000000000   0.000000000000000   0.000000000000000 0
ion-species SG15/$ID_ONCV_PBE.upf
ion-width 0
ionic-minimize  \
	dirUpdateScheme      L-BFGS \
	linminMethod         DirUpdateRecommended \
	nIterations          0 \
	history              15 \
	knormThreshold       0.0001 \
	energyDiffThreshold  1e-06 \
	nEnergyDiff          2 \
	alphaTstart          1 \
	alphaTmin            1e-10 \
	updateTestStepSize   yes \
	alphaTreduceFactor   0.1 \
	alphaTincreaseFactor 3 \
	nAlphaAdjustMax      3 \
	wolfeEnergy          0.0001 \
	wolfeGradient        0.9 \
	fdTest               no
kpoint   0.000000000000   0.000000000000   0.000000000000  1.00000000000000
kpoint-folding 12 12 1 
latt-move-scale 1 1 1
latt-scale 3 3 1 
lattice  \
	   4.727486978767153   -2.363743489383575    0.000000000000000  \
	  -0.000000000000000    4.094123819672498    0.000000000000000  \
	   0.000000000000000    0.000000000000000   40.000000000000000 
lattice-minimize  \
	dirUpdateScheme      L-BFGS \
	linminMethod         DirUpdateRecommended \
	nIterations          0 \
	history              15 \
	knormThreshold       0 \
	energyDiffThreshold  1e-06 \
	nEnergyDiff          2 \
	alphaTstart          1 \
	alphaTmin            1e-10 \
	updateTestStepSize   yes \
	alphaTreduceFactor   0.1 \
	alphaTincreaseFactor 3 \
	nAlphaAdjustMax      3 \
	wolfeEnergy          0.0001 \
	wolfeGradient        0.9 \
	fdTest               no
lcao-params -1 1e-06 1e-05
pcm-variant GLSSA13
spintype z-spin
subspace-rotation-factor 1 yes
symmetries automatic
symmetry-threshold 0.0001



---------- Setting up symmetries ----------

Found 24 point-group symmetries of the bravais lattice
Found 24 space-group symmetries with basis
Applied RMS atom displacement 0 bohrs to make symmetries exact.

---------- Initializing the Grid ----------
R = 
[      14.1825     -7.09123            0  ]
[            0      12.2824            0  ]
[            0            0           40  ]
unit cell volume = 6967.77
G =
[   0.443025   0.255781         -0  ]
[          0   0.511561         -0  ]
[         -0         -0    0.15708  ]
Minimum fftbox size, Smin = [  60  60  164  ]
Chosen fftbox size, S = [  60  60  168  ]

---------- Exchange Correlation functional ----------
Initalized PBE GGA exchange.
Initalized PBE GGA correlation.

---------- Setting up pseudopotentials ----------
Width of ionic core gaussian charges (only for fluid interactions / plotting) set to 0

Reading pseudopotential file '/home/gridsan/aligho/DFT/build-Nov24/pseudopotentials/SG15/Li_ONCV_PBE.upf':
  'Li' pseudopotential, 'PBE' functional
  Generated using ONCVPSP code by D. R. Hamann
  Author: Martin Schlipf and Francois Gygi  Date: 150915.
  3 valence electrons, 2 orbitals, 4 projectors, 1328 radial grid points, with lMax = 1
  Transforming local potential to a uniform radial grid of dG=0.02 with 1489 points.
  Transforming nonlocal projectors to a uniform radial grid of dG=0.02 with 432 points.
    1S    l: 0   occupation:  2.0   eigenvalue: -1.905623
    2S    l: 0   occupation:  1.0   eigenvalue: -0.105624
  Transforming atomic orbitals to a uniform radial grid of dG=0.02 with 432 points.
  WARNING: large normalization error in atomic orbital 1s (integral: 0.000000).
  Core radius for overlap checks: 1.63 bohrs.
  Reading pulay file /home/gridsan/aligho/DFT/build-Nov24/pseudopotentials/SG15/Li_ONCV_PBE.pulay ... using dE_dnG = -1.230239e-02 computed for Ecut = 20.

Initialized 1 species with 1 total atoms.

Folded 1 k-points by 12x12x1 to 144 k-points.

---------- Setting up k-points, bands, fillings ----------
Reduced to 19 k-points under symmetry. 
Computing the number of bands and number of electrons
Calculating initial fillings.
nElectrons:   3.000000   nBands: 3   nStates: 38

----- Setting up reduced wavefunction bases (one per k-point) -----
average nbasis = 29766.104 , ideal nbasis = 29766.845

---------- Setting up coulomb interaction ----------
Initialized slab truncation along lattice direction 001

---------- Setting up 2D ewald sum ----------
Optimum gaussian width for ewald sums = 7.873530 bohr.
Real space sums over 289 unit cells with max indices [  8  8  0  ]
Reciprocal space sums over 81 terms with max indices [  4  4  0  ]

---------- Allocating electronic variables ----------
Initializing wave functions:  linear combination of atomic orbitals
Note: number of bands (3) exceeds available atomic orbitals (2)
Li pseudo-atom occupations:   s ( 2 1 )
[d-6-12-3:94547] 18 more processes have sent help message help-mpi-common-cuda.txt / dlopen failed
[d-6-12-3:94547] Set MCA parameter "orte_base_help_aggregate" to 0 to see all help / error messages
[d-6-12-3:94547] 18 more processes have sent help message help-mpi-btl-openib-cpc-base.txt / no cpcs for port
	FillingsUpdate:  mu: +0.352942020  nElectrons: 3.000000  magneticMoment: [ Abs: 0.40047  Tot: -0.40000 ]
LCAOMinimize: Iter:   0  F: -1.2871403518881561  |grad|_K:  4.862e-05  alpha:  1.000e+00
	FillingsUpdate:  mu: +0.352941484  nElectrons: 3.000000  magneticMoment: [ Abs: 0.40047  Tot: -0.40000 ]
LCAOMinimize: Iter:   1  F: -1.2871407792497507  |grad|_K:  4.852e-07  alpha:  1.057e+00  linmin: -1.174e-03  cgtest:  9.944e-03  t[s]:      7.58
	FillingsUpdate:  mu: +0.352941485  nElectrons: 3.000000  magneticMoment: [ Abs: 0.40047  Tot: -0.40000 ]
LCAOMinimize: Iter:   2  F: -1.2871407792875973  |grad|_K:  7.848e-09  alpha:  1.003e+00  linmin: -1.671e-03  cgtest:  6.175e-02  t[s]:      9.58
LCAOMinimize: Encountered beta<0, resetting CG.
LCAOMinimize: Converged (|Delta F|<1.000000e-06 for 2 iters).


---- Citations for features of the code used in this run ----

   Software package:
      R. Sundararaman, K. Letchworth-Weaver, K.A. Schwarz, D. Gunceler, Y. Ozhabes and T.A. Arias, 'JDFTx: software for joint density-functional theory', SoftwareX 6, 278 (2017)

   gga-PBE exchange-correlation functional:
      J.P. Perdew, K. Burke and M. Ernzerhof, Phys. Rev. Lett. 77, 3865 (1996)

   Pseudopotentials:
      M Schlipf and F Gygi, Comput. Phys. Commun. 196, 36 (2015)

   Truncated Coulomb potentials:
      R. Sundararaman and T.A. Arias, Phys. Rev. B 87, 165122 (2013)

This list may not be complete. Please suggest additional citations or
report any other bugs at https://github.com/shankar1729/jdftx/issues

Initialization completed successfully at t[s]:      9.67


-------- Electronic minimization -----------
Will mix electronic density at each iteration.
	FillingsUpdate:  mu: +0.352941485  nElectrons: 3.000000  magneticMoment: [ Abs: 0.40047  Tot: -0.40000 ]
	FillingsUpdate:  mu: -0.694425790  nElectrons: 3.000000  magneticMoment: [ Abs: 0.40047  Tot: -0.40000 ]
SCF: Cycle:  0   F: -6.874097583070890   dF: -5.587e+00   |Residual|: 1.224e+00   |deigs|: 4.156e+00  t[s]:     13.08
	FillingsUpdate:  mu: -0.572696227  nElectrons: 3.000000  magneticMoment: [ Abs: 0.63440  Tot: -0.40000 ]
SCF: Cycle:  1   F: -6.917282087296751   dF: -4.318e-02   |Residual|: 7.625e-01   |deigs|: 2.736e-01  t[s]:     15.80
	FillingsUpdate:  mu: -0.348057630  nElectrons: 3.000000  magneticMoment: [ Abs: 0.87149  Tot: -0.40000 ]
SCF: Cycle:  2   F: -7.038835045226307   dF: -1.216e-01   |Residual|: 3.292e-01   |deigs|: 7.107e-01  t[s]:     18.57
	FillingsUpdate:  mu: -0.362206972  nElectrons: 3.000000  magneticMoment: [ Abs: 0.81576  Tot: -0.40000 ]
SCF: Cycle:  3   F: -7.040489531987850   dF: -1.654e-03   |Residual|: 1.849e-01   |deigs|: 7.925e-02  t[s]:     21.46
	FillingsUpdate:  mu: -0.325486303  nElectrons: 3.000000  magneticMoment: [ Abs: 0.76202  Tot: -0.40000 ]
SCF: Cycle:  4   F: -7.041384965100296   dF: -8.954e-04   |Residual|: 5.100e-02   |deigs|: 2.917e-02  t[s]:     24.39
	FillingsUpdate:  mu: -0.309839669  nElectrons: 3.000000  magneticMoment: [ Abs: 0.70063  Tot: -0.40000 ]
SCF: Cycle:  5   F: -7.040781764674611   dF: +6.032e-04   |Residual|: 1.064e-01   |deigs|: 1.510e-02  t[s]:     27.33
	FillingsUpdate:  mu: -0.257344480  nElectrons: 3.000000  magneticMoment: [ Abs: 0.52466  Tot: -0.40000 ]
SCF: Cycle:  6   F: -7.045005238568884   dF: -4.223e-03   |Residual|: 3.558e-02   |deigs|: 1.035e-01  t[s]:     30.39
	FillingsUpdate:  mu: -0.241373232  nElectrons: 3.000000  magneticMoment: [ Abs: 0.49662  Tot: -0.40000 ]
SCF: Cycle:  7   F: -7.045816814211920   dF: -8.116e-04   |Residual|: 1.163e-01   |deigs|: 5.519e-02  t[s]:     33.46
	FillingsUpdate:  mu: -0.246654343  nElectrons: 3.000000  magneticMoment: [ Abs: 0.46497  Tot: -0.40000 ]
SCF: Cycle:  8   F: -7.045758000687043   dF: +5.881e-05   |Residual|: 8.541e-02   |deigs|: 1.912e-02  t[s]:     36.65
	FillingsUpdate:  mu: -0.215451497  nElectrons: 3.000000  magneticMoment: [ Abs: 0.47504  Tot: -0.40000 ]
SCF: Cycle:  9   F: -7.046849568329522   dF: -1.092e-03   |Residual|: 7.411e-02   |deigs|: 4.610e-02  t[s]:     39.95
	FillingsUpdate:  mu: -0.205860154  nElectrons: 3.000000  magneticMoment: [ Abs: 0.47947  Tot: -0.40000 ]
SCF: Cycle: 10   F: -7.047023623941728   dF: -1.741e-04   |Residual|: 6.576e-02   |deigs|: 7.440e-03  t[s]:     43.24
	FillingsUpdate:  mu: -0.176723362  nElectrons: 3.000000  magneticMoment: [ Abs: 0.52470  Tot: -0.40000 ]
SCF: Cycle: 11   F: -7.047775090510920   dF: -7.515e-04   |Residual|: 1.767e-02   |deigs|: 4.089e-02  t[s]:     46.53
	FillingsUpdate:  mu: -0.165432491  nElectrons: 3.000000  magneticMoment: [ Abs: 0.53118  Tot: -0.40000 ]
SCF: Cycle: 12   F: -7.047998980539190   dF: -2.239e-04   |Residual|: 1.104e-02   |deigs|: 9.785e-03  t[s]:     49.79
	FillingsUpdate:  mu: -0.145025443  nElectrons: 3.000000  magneticMoment: [ Abs: 0.52945  Tot: -0.40000 ]
SCF: Cycle: 13   F: -7.047983217053686   dF: +1.576e-05   |Residual|: 8.175e-03   |deigs|: 2.119e-02  t[s]:     53.13
	FillingsUpdate:  mu: -0.131733180  nElectrons: 3.000000  magneticMoment: [ Abs: 0.51481  Tot: -0.40000 ]
SCF: Cycle: 14   F: -7.047935167995828   dF: +4.805e-05   |Residual|: 7.527e-03   |deigs|: 1.492e-02  t[s]:     56.45
	FillingsUpdate:  mu: -0.119958924  nElectrons: 3.000000  magneticMoment: [ Abs: 0.48229  Tot: -0.40000 ]
SCF: Cycle: 15   F: -7.047929368682711   dF: +5.799e-06   |Residual|: 5.367e-03   |deigs|: 1.138e-02  t[s]:     59.76
	FillingsUpdate:  mu: -0.112863396  nElectrons: 3.000000  magneticMoment: [ Abs: 0.45166  Tot: -0.40000 ]
SCF: Cycle: 16   F: -7.048203709114881   dF: -2.743e-04   |Residual|: 4.185e-03   |deigs|: 7.712e-03  t[s]:     63.06
	FillingsUpdate:  mu: -0.108340345  nElectrons: 3.000000  magneticMoment: [ Abs: 0.43963  Tot: -0.40000 ]
SCF: Cycle: 17   F: -7.048324537752439   dF: -1.208e-04   |Residual|: 2.862e-03   |deigs|: 5.404e-03  t[s]:     66.32
	FillingsUpdate:  mu: -0.106820246  nElectrons: 3.000000  magneticMoment: [ Abs: 0.42575  Tot: -0.40000 ]
SCF: Cycle: 18   F: -7.048401400619207   dF: -7.686e-05   |Residual|: 1.865e-03   |deigs|: 2.113e-03  t[s]:     69.57
	FillingsUpdate:  mu: -0.105868835  nElectrons: 3.000000  magneticMoment: [ Abs: 0.41820  Tot: -0.40000 ]
SCF: Cycle: 19   F: -7.048442146975176   dF: -4.075e-05   |Residual|: 1.106e-03   |deigs|: 1.109e-03  t[s]:     72.87
	FillingsUpdate:  mu: -0.105701023  nElectrons: 3.000000  magneticMoment: [ Abs: 0.41381  Tot: -0.40000 ]
SCF: Cycle: 20   F: -7.048459842816241   dF: -1.770e-05   |Residual|: 6.417e-04   |deigs|: 3.293e-04  t[s]:     76.07
	FillingsUpdate:  mu: -0.105485195  nElectrons: 3.000000  magneticMoment: [ Abs: 0.41118  Tot: -0.40000 ]
SCF: Cycle: 21   F: -7.048466700843099   dF: -6.858e-06   |Residual|: 3.679e-04   |deigs|: 2.294e-04  t[s]:     79.37
	FillingsUpdate:  mu: -0.105513378  nElectrons: 3.000000  magneticMoment: [ Abs: 0.40931  Tot: -0.40000 ]
SCF: Cycle: 22   F: -7.048467771176116   dF: -1.070e-06   |Residual|: 2.879e-04   |deigs|: 1.156e-04  t[s]:     82.56
	FillingsUpdate:  mu: -0.105631729  nElectrons: 3.000000  magneticMoment: [ Abs: 0.40618  Tot: -0.40000 ]
SCF: Cycle: 23   F: -7.048469026947542   dF: -1.256e-06   |Residual|: 2.024e-04   |deigs|: 1.575e-04  t[s]:     85.80
	FillingsUpdate:  mu: -0.105762805  nElectrons: 3.000000  magneticMoment: [ Abs: 0.40412  Tot: -0.40000 ]
SCF: Cycle: 24   F: -7.048469364109705   dF: -3.372e-07   |Residual|: 1.583e-04   |deigs|: 1.697e-04  t[s]:     89.10
	FillingsUpdate:  mu: -0.105866020  nElectrons: 3.000000  magneticMoment: [ Abs: 0.40276  Tot: -0.40000 ]
SCF: Cycle: 25   F: -7.048469485461438   dF: -1.214e-07   |Residual|: 1.348e-04   |deigs|: 1.584e-04  t[s]:     92.32
	FillingsUpdate:  mu: -0.105946981  nElectrons: 3.000000  magneticMoment: [ Abs: 0.40160  Tot: -0.40000 ]
SCF: Cycle: 26   F: -7.048469575101733   dF: -8.964e-08   |Residual|: 9.579e-05   |deigs|: 1.529e-04  t[s]:     95.71
	FillingsUpdate:  mu: -0.105966553  nElectrons: 3.000000  magneticMoment: [ Abs: 0.40077  Tot: -0.40000 ]
SCF: Cycle: 27   F: -7.048469635809613   dF: -6.071e-08   |Residual|: 6.823e-05   |deigs|: 1.059e-04  t[s]:     98.97
	FillingsUpdate:  mu: -0.105943516  nElectrons: 3.000000  magneticMoment: [ Abs: 0.40029  Tot: -0.40000 ]
SCF: Cycle: 28   F: -7.048469673400882   dF: -3.759e-08   |Residual|: 4.844e-05   |deigs|: 7.992e-05  t[s]:    102.22
	FillingsUpdate:  mu: -0.105909800  nElectrons: 3.000000  magneticMoment: [ Abs: 0.40007  Tot: -0.40000 ]
SCF: Cycle: 29   F: -7.048469712607782   dF: -3.921e-08   |Residual|: 3.639e-05   |deigs|: 6.804e-05  t[s]:    105.48
	FillingsUpdate:  mu: -0.105863897  nElectrons: 3.000000  magneticMoment: [ Abs: 0.40013  Tot: -0.40000 ]
SCF: Cycle: 30   F: -7.048469731771840   dF: -1.916e-08   |Residual|: 2.546e-05   |deigs|: 6.313e-05  t[s]:    108.83
	FillingsUpdate:  mu: -0.105828005  nElectrons: 3.000000  magneticMoment: [ Abs: 0.40010  Tot: -0.40000 ]
SCF: Cycle: 31   F: -7.048469739837897   dF: -8.066e-09   |Residual|: 1.680e-05   |deigs|: 4.795e-05  t[s]:    112.08
	FillingsUpdate:  mu: -0.105811256  nElectrons: 3.000000  magneticMoment: [ Abs: 0.40008  Tot: -0.40000 ]
SCF: Cycle: 32   F: -7.048469742953307   dF: -3.115e-09   |Residual|: 1.257e-05   |deigs|: 3.082e-05  t[s]:    115.35
SCF: Converged (|Delta E|<1.000000e-08 for 2 iters).


# Ionic positions in lattice coordinates:
ion Li   0.000000000000000   0.000000000000000   0.000000000000000 0

# Forces in Lattice coordinates:
force Li  -0.000000000000000   0.000000000000000   0.000000000000000 0

# Energy components:
   Eewald =       -1.3368908222468645
       EH =        2.2018947935514972
     Eloc =       -7.5420663247099409
      Enl =       -3.6016201586601122
   Epulay =       -0.0000013080581827
      Exc =       -1.5334920337164561
       KE =        4.7637067836266365
-------------------------------------
     Etot =       -7.0484690702134216
       TS =        0.0000006727398856
-------------------------------------
        F =       -7.0484697429533067

IonicMinimize: Iter:   0  F: -7.048469742953307  |grad|_K:  0.000e+00  t[s]:    115.50
IonicMinimize: Converged (|grad|_K<1.000000e-04).

#--- Lowdin population analysis ---
# oxidation-state Li +2.097
# magnetic-moments Li -0.369

End date and time: Sat Feb  5 22:55:35 2022  (Duration: 0-0:01:55.52)
Done!
scale=4
magnetization=-0.4
--------------------------------------------------------------------------
The library attempted to open the following supporting CUDA libraries,
but each of them failed.  CUDA-aware support is disabled.
libcuda.so.1: cannot open shared object file: No such file or directory
libcuda.dylib: cannot open shared object file: No such file or directory
/usr/lib64/libcuda.so.1: cannot open shared object file: No such file or directory
/usr/lib64/libcuda.dylib: cannot open shared object file: No such file or directory
If you are not interested in CUDA-aware support, then run with
--mca opal_warn_on_missing_libcuda 0 to suppress this message.  If you are interested
in CUDA-aware support, then try setting LD_LIBRARY_PATH to the location
of libcuda.so.1 to get passed this issue.
--------------------------------------------------------------------------
--------------------------------------------------------------------------
No OpenFabrics connection schemes reported that they were able to be
used on a specific port.  As such, the openib BTL (OpenFabrics
support) will be disabled for this port.

  Local host:           d-6-12-3
  Local device:         mlx5_1
  Local port:           1
  CPCs attempted:       rdmacm, udcm
--------------------------------------------------------------------------

*************** JDFTx 1.6.0 (git hash 42ebbcc2) ***************

Start date and time: Sat Feb  5 22:55:37 2022
Executable jdftx with command-line: -i Alkali.in
Running on hosts (process indices):  d-6-12-3 (0-18)
Divided in process groups (process indices):  0 (0)  1 (1)  2 (2)  3 (3)  4 (4)  5 (5)  6 (6)  7 (7)  8 (8)  9 (9)  10 (10)  11 (11)  12 (12)  13 (13)  14 (14)  15 (15)  16 (16)  17 (17)  18 (18)
Resource initialization completed at t[s]:      0.00
Run totals: 19 processes, 48 threads, 0 GPUs


Input parsed successfully to the following command list (including defaults):

basis kpoint-dependent
coords-type Lattice
core-overlap-check vector
coulomb-interaction Slab 001
davidson-band-ratio 1.1
dump End None
dump-name $INPUT.$VAR
elec-cutoff 20
elec-eigen-algo Davidson
elec-ex-corr gga-PBE
elec-initial-magnetization -0.400000 yes
elec-smearing Fermi 1e-05
electronic-minimize  \
	dirUpdateScheme      FletcherReeves \
	linminMethod         DirUpdateRecommended \
	nIterations          100 \
	history              15 \
	knormThreshold       0 \
	energyDiffThreshold  1e-08 \
	nEnergyDiff          2 \
	alphaTstart          1 \
	alphaTmin            1e-10 \
	updateTestStepSize   yes \
	alphaTreduceFactor   0.1 \
	alphaTincreaseFactor 3 \
	nAlphaAdjustMax      3 \
	wolfeEnergy          0.0001 \
	wolfeGradient        0.9 \
	fdTest               no
electronic-scf  \
	nIterations	10000 \
	energyDiffThreshold	1e-08 \
	residualThreshold	1e-07 \
	mixFraction	0.5 \
	qMetric	0.8 \
	history	10 \
	nEigSteps	2 \
	eigDiffThreshold	1e-08 \
	mixedVariable	Density \
	qKerker	0.8 \
	qKappa	-1 \
	verbose	no \
	mixFractionMag	1.5
exchange-regularization WignerSeitzTruncated
fluid None
fluid-ex-corr (null) lda-PZ
fluid-gummel-loop 10 1.000000e-05
fluid-minimize  \
	dirUpdateScheme      PolakRibiere \
	linminMethod         DirUpdateRecommended \
	nIterations          100 \
	history              15 \
	knormThreshold       0 \
	energyDiffThreshold  0 \
	nEnergyDiff          2 \
	alphaTstart          1 \
	alphaTmin            1e-10 \
	updateTestStepSize   yes \
	alphaTreduceFactor   0.1 \
	alphaTincreaseFactor 3 \
	nAlphaAdjustMax      3 \
	wolfeEnergy          0.0001 \
	wolfeGradient        0.9 \
	fdTest               no
fluid-solvent H2O 55.338 ScalarEOS \
	epsBulk 78.4 \
	pMol 0.92466 \
	epsInf 1.77 \
	Pvap 1.06736e-10 \
	sigmaBulk 4.62e-05 \
	Rvdw 2.61727 \
	Res 1.42 \
	tauNuc 343133 \
	poleEl 15 7 1
forces-output-coords Positions
ion Li   0.000000000000000   0.000000000000000   0.000000000000000 0
ion-species SG15/$ID_ONCV_PBE.upf
ion-width 0
ionic-minimize  \
	dirUpdateScheme      L-BFGS \
	linminMethod         DirUpdateRecommended \
	nIterations          0 \
	history              15 \
	knormThreshold       0.0001 \
	energyDiffThreshold  1e-06 \
	nEnergyDiff          2 \
	alphaTstart          1 \
	alphaTmin            1e-10 \
	updateTestStepSize   yes \
	alphaTreduceFactor   0.1 \
	alphaTincreaseFactor 3 \
	nAlphaAdjustMax      3 \
	wolfeEnergy          0.0001 \
	wolfeGradient        0.9 \
	fdTest               no
kpoint   0.000000000000   0.000000000000   0.000000000000  1.00000000000000
kpoint-folding 12 12 1 
latt-move-scale 1 1 1
latt-scale 4 4 1 
lattice  \
	   4.727486978767153   -2.363743489383575    0.000000000000000  \
	  -0.000000000000000    4.094123819672498    0.000000000000000  \
	   0.000000000000000    0.000000000000000   40.000000000000000 
lattice-minimize  \
	dirUpdateScheme      L-BFGS \
	linminMethod         DirUpdateRecommended \
	nIterations          0 \
	history              15 \
	knormThreshold       0 \
	energyDiffThreshold  1e-06 \
	nEnergyDiff          2 \
	alphaTstart          1 \
	alphaTmin            1e-10 \
	updateTestStepSize   yes \
	alphaTreduceFactor   0.1 \
	alphaTincreaseFactor 3 \
	nAlphaAdjustMax      3 \
	wolfeEnergy          0.0001 \
	wolfeGradient        0.9 \
	fdTest               no
lcao-params -1 1e-06 1e-05
pcm-variant GLSSA13
spintype z-spin
subspace-rotation-factor 1 yes
symmetries automatic
symmetry-threshold 0.0001



---------- Setting up symmetries ----------

Found 24 point-group symmetries of the bravais lattice
Found 24 space-group symmetries with basis
Applied RMS atom displacement 0 bohrs to make symmetries exact.

---------- Initializing the Grid ----------
R = 
[      18.9099     -9.45497            0  ]
[            0      16.3765            0  ]
[            0            0           40  ]
unit cell volume = 12387.1
G =
[   0.332269   0.191835         -0  ]
[          0   0.383671         -0  ]
[         -0         -0    0.15708  ]
Minimum fftbox size, Smin = [  80  80  164  ]
Chosen fftbox size, S = [  80  80  168  ]

---------- Exchange Correlation functional ----------
Initalized PBE GGA exchange.
Initalized PBE GGA correlation.

---------- Setting up pseudopotentials ----------
Width of ionic core gaussian charges (only for fluid interactions / plotting) set to 0

Reading pseudopotential file '/home/gridsan/aligho/DFT/build-Nov24/pseudopotentials/SG15/Li_ONCV_PBE.upf':
  'Li' pseudopotential, 'PBE' functional
  Generated using ONCVPSP code by D. R. Hamann
  Author: Martin Schlipf and Francois Gygi  Date: 150915.
  3 valence electrons, 2 orbitals, 4 projectors, 1328 radial grid points, with lMax = 1
  Transforming local potential to a uniform radial grid of dG=0.02 with 1489 points.
  Transforming nonlocal projectors to a uniform radial grid of dG=0.02 with 432 points.
    1S    l: 0   occupation:  2.0   eigenvalue: -1.905623
    2S    l: 0   occupation:  1.0   eigenvalue: -0.105624
  Transforming atomic orbitals to a uniform radial grid of dG=0.02 with 432 points.
  WARNING: large normalization error in atomic orbital 1s (integral: 0.000000).
  Core radius for overlap checks: 1.63 bohrs.
  Reading pulay file /home/gridsan/aligho/DFT/build-Nov24/pseudopotentials/SG15/Li_ONCV_PBE.pulay ... using dE_dnG = -1.230239e-02 computed for Ecut = 20.

Initialized 1 species with 1 total atoms.

Folded 1 k-points by 12x12x1 to 144 k-points.

---------- Setting up k-points, bands, fillings ----------
Reduced to 19 k-points under symmetry. 
Computing the number of bands and number of electrons
Calculating initial fillings.
nElectrons:   3.000000   nBands: 3   nStates: 38

----- Setting up reduced wavefunction bases (one per k-point) -----
average nbasis = 52924.021 , ideal nbasis = 52918.836

---------- Setting up coulomb interaction ----------
Initialized slab truncation along lattice direction 001

---------- Setting up 2D ewald sum ----------
Optimum gaussian width for ewald sums = 10.498040 bohr.
Real space sums over 289 unit cells with max indices [  8  8  0  ]
Reciprocal space sums over 81 terms with max indices [  4  4  0  ]

---------- Allocating electronic variables ----------
Initializing wave functions:  linear combination of atomic orbitals
Note: number of bands (3) exceeds available atomic orbitals (2)
Li pseudo-atom occupations:   s ( 2 1 )
[d-6-12-3:65755] 18 more processes have sent help message help-mpi-common-cuda.txt / dlopen failed
[d-6-12-3:65755] Set MCA parameter "orte_base_help_aggregate" to 0 to see all help / error messages
[d-6-12-3:65755] 18 more processes have sent help message help-mpi-btl-openib-cpc-base.txt / no cpcs for port
	FillingsUpdate:  mu: +0.365995665  nElectrons: 3.000000  magneticMoment: [ Abs: 0.40000  Tot: -0.40000 ]
LCAOMinimize: Iter:   0  F: -1.3111246724457795  |grad|_K:  4.072e-05  alpha:  1.000e+00
LCAOMinimize: 	Wrong curvature in test step, increasing alphaT to 3.000000e+00.
	FillingsUpdate:  mu: +0.366476152  nElectrons: 3.000000  magneticMoment: [ Abs: 0.40000  Tot: -0.40000 ]
LCAOMinimize: Iter:   1  F: -1.3111481993892899  |grad|_K:  2.593e-06  alpha: -1.235e-02  linmin: -7.363e-01  cgtest:  1.003e+00  t[s]:     12.71
LCAOMinimize: Encountered beta<0, resetting CG.
LCAOMinimize: 	Wrong curvature in test step, increasing alphaT to 3.000000e+00.
	FillingsUpdate:  mu: +0.366482942  nElectrons: 3.000000  magneticMoment: [ Abs: 0.40000  Tot: -0.40000 ]
LCAOMinimize: Iter:   2  F: -1.3111482152201825  |grad|_K:  1.469e-05  alpha: -8.498e-02  linmin: -1.012e-01  cgtest:  9.843e-03  t[s]:     15.99
LCAOMinimize: 	Step increased F by 1.068040e-05, reducing alpha to 1.469226e-02.
	FillingsUpdate:  mu: +0.366755653  nElectrons: 3.000000  magneticMoment: [ Abs: 0.40000  Tot: -0.40000 ]
LCAOMinimize: Iter:   3  F: -1.3111559101743946  |grad|_K:  9.246e-07  alpha:  1.469e-02  linmin:  5.371e-02  cgtest:  2.742e+02  t[s]:     21.05
LCAOMinimize: Encountered beta<0, resetting CG.
LCAOMinimize: 	Wrong curvature in test step, increasing alphaT to 4.407678e-02.
	FillingsUpdate:  mu: +0.366755653  nElectrons: 3.000000  magneticMoment: [ Abs: 0.40000  Tot: -0.40000 ]
LCAOMinimize: Iter:   4  F: -1.3111559101787702  |grad|_K:  9.117e-07  alpha: -3.937e-01  linmin: -9.440e-02  cgtest:  1.000e+00  t[s]:     24.31
LCAOMinimize: Encountered beta<0, resetting CG.
	FillingsUpdate:  mu: +0.366755663  nElectrons: 3.000000  magneticMoment: [ Abs: 0.40000  Tot: -0.40000 ]
LCAOMinimize: Iter:   5  F: -1.3111559103271317  |grad|_K:  1.391e-08  alpha:  1.052e+00  linmin: -5.310e-03  cgtest:  1.163e-01  t[s]:     27.58
LCAOMinimize: Encountered beta<0, resetting CG.
LCAOMinimize: Converged (|Delta F|<1.000000e-06 for 2 iters).


---- Citations for features of the code used in this run ----

   Software package:
      R. Sundararaman, K. Letchworth-Weaver, K.A. Schwarz, D. Gunceler, Y. Ozhabes and T.A. Arias, 'JDFTx: software for joint density-functional theory', SoftwareX 6, 278 (2017)

   gga-PBE exchange-correlation functional:
      J.P. Perdew, K. Burke and M. Ernzerhof, Phys. Rev. Lett. 77, 3865 (1996)

   Pseudopotentials:
      M Schlipf and F Gygi, Comput. Phys. Commun. 196, 36 (2015)

   Truncated Coulomb potentials:
      R. Sundararaman and T.A. Arias, Phys. Rev. B 87, 165122 (2013)

This list may not be complete. Please suggest additional citations or
report any other bugs at https://github.com/shankar1729/jdftx/issues

Initialization completed successfully at t[s]:     27.72


-------- Electronic minimization -----------
Will mix electronic density at each iteration.
	FillingsUpdate:  mu: +0.366755663  nElectrons: 3.000000  magneticMoment: [ Abs: 0.40000  Tot: -0.40000 ]
	FillingsUpdate:  mu: -0.615835000  nElectrons: 3.000000  magneticMoment: [ Abs: 0.40000  Tot: -0.40000 ]
SCF: Cycle:  0   F: -6.871627782554249   dF: -5.560e+00   |Residual|: 1.229e+00   |deigs|: 4.155e+00  t[s]:     33.35
	FillingsUpdate:  mu: -0.490659745  nElectrons: 3.000000  magneticMoment: [ Abs: 0.69337  Tot: -0.40000 ]
SCF: Cycle:  1   F: -6.916461761149312   dF: -4.483e-02   |Residual|: 7.615e-01   |deigs|: 2.765e-01  t[s]:     37.87
	FillingsUpdate:  mu: -0.261801551  nElectrons: 3.000000  magneticMoment: [ Abs: 0.89192  Tot: -0.40000 ]
SCF: Cycle:  2   F: -7.036782121087195   dF: -1.203e-01   |Residual|: 3.207e-01   |deigs|: 7.066e-01  t[s]:     42.51
	FillingsUpdate:  mu: -0.272935573  nElectrons: 3.000000  magneticMoment: [ Abs: 0.82676  Tot: -0.40000 ]
SCF: Cycle:  3   F: -7.037197953415172   dF: -4.158e-04   |Residual|: 1.872e-01   |deigs|: 7.223e-02  t[s]:     47.26
	FillingsUpdate:  mu: -0.234063645  nElectrons: 3.000000  magneticMoment: [ Abs: 0.75653  Tot: -0.40000 ]
SCF: Cycle:  4   F: -7.037283205851462   dF: -8.525e-05   |Residual|: 6.095e-02   |deigs|: 3.281e-02  t[s]:     52.20
	FillingsUpdate:  mu: -0.220773446  nElectrons: 3.000000  magneticMoment: [ Abs: 0.75326  Tot: -0.40000 ]
SCF: Cycle:  5   F: -7.038482495511110   dF: -1.199e-03   |Residual|: 1.137e-01   |deigs|: 1.244e-02  t[s]:     57.19
	FillingsUpdate:  mu: -0.195494214  nElectrons: 3.000000  magneticMoment: [ Abs: 0.60740  Tot: -0.40000 ]
SCF: Cycle:  6   F: -7.042301768423772   dF: -3.819e-03   |Residual|: 2.594e-02   |deigs|: 7.414e-02  t[s]:     62.27
	FillingsUpdate:  mu: -0.181256584  nElectrons: 3.000000  magneticMoment: [ Abs: 0.50493  Tot: -0.40000 ]
SCF: Cycle:  7   F: -7.043759515076143   dF: -1.458e-03   |Residual|: 1.027e-01   |deigs|: 4.612e-02  t[s]:     67.49
	FillingsUpdate:  mu: -0.185530768  nElectrons: 3.000000  magneticMoment: [ Abs: 0.46650  Tot: -0.40000 ]
SCF: Cycle:  8   F: -7.044025955843606   dF: -2.664e-04   |Residual|: 5.458e-02   |deigs|: 1.993e-02  t[s]:     72.78
	FillingsUpdate:  mu: -0.187955357  nElectrons: 3.000000  magneticMoment: [ Abs: 0.47298  Tot: -0.40000 ]
SCF: Cycle:  9   F: -7.044565747622412   dF: -5.398e-04   |Residual|: 1.009e-01   |deigs|: 5.955e-02  t[s]:     78.18
	FillingsUpdate:  mu: -0.162925261  nElectrons: 3.000000  magneticMoment: [ Abs: 0.46293  Tot: -0.40000 ]
SCF: Cycle: 10   F: -7.045525496464290   dF: -9.597e-04   |Residual|: 1.622e-02   |deigs|: 5.272e-02  t[s]:     83.71
	FillingsUpdate:  mu: -0.151016657  nElectrons: 3.000000  magneticMoment: [ Abs: 0.50768  Tot: -0.40000 ]
SCF: Cycle: 11   F: -7.045565004060966   dF: -3.951e-05   |Residual|: 4.583e-02   |deigs|: 2.217e-02  t[s]:     89.23
	FillingsUpdate:  mu: -0.148571266  nElectrons: 3.000000  magneticMoment: [ Abs: 0.46910  Tot: -0.40000 ]
SCF: Cycle: 12   F: -7.045707218396061   dF: -1.422e-04   |Residual|: 1.198e-02   |deigs|: 1.714e-02  t[s]:     94.69
	FillingsUpdate:  mu: -0.129274614  nElectrons: 3.000000  magneticMoment: [ Abs: 0.52611  Tot: -0.40000 ]
SCF: Cycle: 13   F: -7.045907658560673   dF: -2.004e-04   |Residual|: 6.961e-03   |deigs|: 2.180e-02  t[s]:    100.19
	FillingsUpdate:  mu: -0.121439617  nElectrons: 3.000000  magneticMoment: [ Abs: 0.52130  Tot: -0.40000 ]
SCF: Cycle: 14   F: -7.045939667104444   dF: -3.201e-05   |Residual|: 5.623e-03   |deigs|: 8.969e-03  t[s]:    105.71
	FillingsUpdate:  mu: -0.114050869  nElectrons: 3.000000  magneticMoment: [ Abs: 0.49763  Tot: -0.40000 ]
SCF: Cycle: 15   F: -7.045928394120978   dF: +1.127e-05   |Residual|: 3.957e-03   |deigs|: 6.830e-03  t[s]:    111.19
	FillingsUpdate:  mu: -0.111170636  nElectrons: 3.000000  magneticMoment: [ Abs: 0.48778  Tot: -0.40000 ]
SCF: Cycle: 16   F: -7.045958891188363   dF: -3.050e-05   |Residual|: 3.165e-03   |deigs|: 2.844e-03  t[s]:    116.69
	FillingsUpdate:  mu: -0.108674170  nElectrons: 3.000000  magneticMoment: [ Abs: 0.45846  Tot: -0.40000 ]
SCF: Cycle: 17   F: -7.045927460091200   dF: +3.143e-05   |Residual|: 2.356e-03   |deigs|: 2.312e-03  t[s]:    122.21
	FillingsUpdate:  mu: -0.106980522  nElectrons: 3.000000  magneticMoment: [ Abs: 0.44749  Tot: -0.40000 ]
SCF: Cycle: 18   F: -7.045963757967182   dF: -3.630e-05   |Residual|: 1.747e-03   |deigs|: 1.650e-03  t[s]:    127.74
	FillingsUpdate:  mu: -0.106060964  nElectrons: 3.000000  magneticMoment: [ Abs: 0.43166  Tot: -0.40000 ]
SCF: Cycle: 19   F: -7.045988760283239   dF: -2.500e-05   |Residual|: 1.234e-03   |deigs|: 1.388e-03  t[s]:    133.30
	FillingsUpdate:  mu: -0.105078379  nElectrons: 3.000000  magneticMoment: [ Abs: 0.42347  Tot: -0.40000 ]
SCF: Cycle: 20   F: -7.046017201835509   dF: -2.844e-05   |Residual|: 8.653e-04   |deigs|: 1.436e-03  t[s]:    138.76
	FillingsUpdate:  mu: -0.104388859  nElectrons: 3.000000  magneticMoment: [ Abs: 0.41755  Tot: -0.40000 ]
SCF: Cycle: 21   F: -7.046029405313957   dF: -1.220e-05   |Residual|: 6.988e-04   |deigs|: 8.660e-04  t[s]:    144.26
	FillingsUpdate:  mu: -0.103967263  nElectrons: 3.000000  magneticMoment: [ Abs: 0.41149  Tot: -0.40000 ]
SCF: Cycle: 22   F: -7.046039295738478   dF: -9.890e-06   |Residual|: 4.733e-04   |deigs|: 4.028e-04  t[s]:    149.69
	FillingsUpdate:  mu: -0.103915887  nElectrons: 3.000000  magneticMoment: [ Abs: 0.40899  Tot: -0.40000 ]
SCF: Cycle: 23   F: -7.046045152260634   dF: -5.857e-06   |Residual|: 3.343e-04   |deigs|: 1.816e-04  t[s]:    155.17
	FillingsUpdate:  mu: -0.103992920  nElectrons: 3.000000  magneticMoment: [ Abs: 0.40637  Tot: -0.40000 ]
SCF: Cycle: 24   F: -7.046046709444703   dF: -1.557e-06   |Residual|: 2.467e-04   |deigs|: 2.096e-04  t[s]:    160.69
	FillingsUpdate:  mu: -0.104167872  nElectrons: 3.000000  magneticMoment: [ Abs: 0.40396  Tot: -0.40000 ]
SCF: Cycle: 25   F: -7.046048354641032   dF: -1.645e-06   |Residual|: 1.526e-04   |deigs|: 3.130e-04  t[s]:    166.24
	FillingsUpdate:  mu: -0.104230983  nElectrons: 3.000000  magneticMoment: [ Abs: 0.40291  Tot: -0.40000 ]
SCF: Cycle: 26   F: -7.046048556139087   dF: -2.015e-07   |Residual|: 1.009e-04   |deigs|: 1.261e-04  t[s]:    171.76
	FillingsUpdate:  mu: -0.104302309  nElectrons: 3.000000  magneticMoment: [ Abs: 0.40194  Tot: -0.40000 ]
SCF: Cycle: 27   F: -7.046048726346010   dF: -1.702e-07   |Residual|: 7.360e-05   |deigs|: 1.036e-04  t[s]:    177.33
	FillingsUpdate:  mu: -0.104336738  nElectrons: 3.000000  magneticMoment: [ Abs: 0.40122  Tot: -0.40000 ]
SCF: Cycle: 28   F: -7.046048766372858   dF: -4.003e-08   |Residual|: 4.956e-05   |deigs|: 7.102e-05  t[s]:    182.85
	FillingsUpdate:  mu: -0.104359762  nElectrons: 3.000000  magneticMoment: [ Abs: 0.40064  Tot: -0.40000 ]
SCF: Cycle: 29   F: -7.046048812793888   dF: -4.642e-08   |Residual|: 2.966e-05   |deigs|: 5.570e-05  t[s]:    188.44
	FillingsUpdate:  mu: -0.104376757  nElectrons: 3.000000  magneticMoment: [ Abs: 0.40040  Tot: -0.40000 ]
SCF: Cycle: 30   F: -7.046048799602565   dF: +1.319e-08   |Residual|: 2.327e-05   |deigs|: 4.950e-05  t[s]:    193.97
	FillingsUpdate:  mu: -0.104394663  nElectrons: 3.000000  magneticMoment: [ Abs: 0.40021  Tot: -0.40000 ]
SCF: Cycle: 31   F: -7.046048794368295   dF: +5.234e-09   |Residual|: 1.810e-05   |deigs|: 4.657e-05  t[s]:    199.54
	FillingsUpdate:  mu: -0.104408353  nElectrons: 3.000000  magneticMoment: [ Abs: 0.40012  Tot: -0.40000 ]
SCF: Cycle: 32   F: -7.046048798802063   dF: -4.434e-09   |Residual|: 1.434e-05   |deigs|: 4.157e-05  t[s]:    205.10
	FillingsUpdate:  mu: -0.104421644  nElectrons: 3.000000  magneticMoment: [ Abs: 0.40008  Tot: -0.40000 ]
SCF: Cycle: 33   F: -7.046048827211761   dF: -2.841e-08   |Residual|: 1.014e-05   |deigs|: 3.692e-05  t[s]:    210.58
	FillingsUpdate:  mu: -0.104426244  nElectrons: 3.000000  magneticMoment: [ Abs: 0.40005  Tot: -0.40000 ]
SCF: Cycle: 34   F: -7.046048817329513   dF: +9.882e-09   |Residual|: 8.224e-06   |deigs|: 2.956e-05  t[s]:    216.12
	FillingsUpdate:  mu: -0.104427691  nElectrons: 3.000000  magneticMoment: [ Abs: 0.40003  Tot: -0.40000 ]
SCF: Cycle: 35   F: -7.046048814420822   dF: +2.909e-09   |Residual|: 5.893e-06   |deigs|: 2.531e-05  t[s]:    221.63
	FillingsUpdate:  mu: -0.104427991  nElectrons: 3.000000  magneticMoment: [ Abs: 0.40002  Tot: -0.40000 ]
SCF: Cycle: 36   F: -7.046048839757071   dF: -2.534e-08   |Residual|: 3.838e-06   |deigs|: 2.194e-05  t[s]:    227.14
	FillingsUpdate:  mu: -0.104427898  nElectrons: 3.000000  magneticMoment: [ Abs: 0.40000  Tot: -0.40000 ]
SCF: Cycle: 37   F: -7.046048843650950   dF: -3.894e-09   |Residual|: 2.463e-06   |deigs|: 1.936e-05  t[s]:    232.69
	FillingsUpdate:  mu: -0.104428128  nElectrons: 3.000000  magneticMoment: [ Abs: 0.40000  Tot: -0.40000 ]
SCF: Cycle: 38   F: -7.046048844363192   dF: -7.122e-10   |Residual|: 1.724e-06   |deigs|: 1.721e-05  t[s]:    238.22
SCF: Converged (|Delta E|<1.000000e-08 for 2 iters).


# Ionic positions in lattice coordinates:
ion Li   0.000000000000000   0.000000000000000   0.000000000000000 0

# Forces in Lattice coordinates:
force Li   0.000000000000000   0.000000000000000   0.000000000000000 0

# Energy components:
   Eewald =       -1.0026681166851483
       EH =        2.5492605156532373
     Eloc =       -8.2277503986383813
      Enl =       -3.6037739941731690
   Epulay =        0.0000051497655618
      Exc =       -1.5364573108445674
       KE =        4.7753370381261018
-------------------------------------
     Etot =       -7.0460471167963643
       TS =        0.0000017275668273
-------------------------------------
        F =       -7.0460488443631917

IonicMinimize: Iter:   0  F: -7.046048844363192  |grad|_K:  0.000e+00  t[s]:    238.47
IonicMinimize: Converged (|grad|_K<1.000000e-04).

#--- Lowdin population analysis ---
# oxidation-state Li +2.078
# magnetic-moments Li -0.370

End date and time: Sat Feb  5 22:59:35 2022  (Duration: 0-0:03:58.50)
Done!
