
*************** JDFTx 1.6.0 (git hash 42ebbcc2) ***************

Start date and time: Sat Feb  5 22:59:55 2022
Executable jdftx with command-line: -i Alkali.in
Running on hosts (process indices):  d-4-7-2 (0-18)
Divided in process groups (process indices):  0 (0)  1 (1)  2 (2)  3 (3)  4 (4)  5 (5)  6 (6)  7 (7)  8 (8)  9 (9)  10 (10)  11 (11)  12 (12)  13 (13)  14 (14)  15 (15)  16 (16)  17 (17)  18 (18)
Resource initialization completed at t[s]:      0.00
Run totals: 19 processes, 48 threads, 0 GPUs


Input parsed successfully to the following command list (including defaults):

basis kpoint-dependent
coords-type Lattice
core-overlap-check vector
coulomb-interaction Slab 001
davidson-band-ratio 1.1
dump End None
dump-name $INPUT.$VAR
elec-cutoff 20
elec-eigen-algo Davidson
elec-ex-corr gga-PBE
elec-initial-magnetization 0.120000 yes
elec-smearing Fermi 1e-05
electronic-minimize  \
	dirUpdateScheme      FletcherReeves \
	linminMethod         DirUpdateRecommended \
	nIterations          100 \
	history              15 \
	knormThreshold       0 \
	energyDiffThreshold  1e-08 \
	nEnergyDiff          2 \
	alphaTstart          1 \
	alphaTmin            1e-10 \
	updateTestStepSize   yes \
	alphaTreduceFactor   0.1 \
	alphaTincreaseFactor 3 \
	nAlphaAdjustMax      3 \
	wolfeEnergy          0.0001 \
	wolfeGradient        0.9 \
	fdTest               no
electronic-scf  \
	nIterations	10000 \
	energyDiffThreshold	1e-08 \
	residualThreshold	1e-07 \
	mixFraction	0.5 \
	qMetric	0.8 \
	history	10 \
	nEigSteps	2 \
	eigDiffThreshold	1e-08 \
	mixedVariable	Density \
	qKerker	0.8 \
	qKappa	-1 \
	verbose	no \
	mixFractionMag	1.5
exchange-regularization WignerSeitzTruncated
fluid None
fluid-ex-corr (null) lda-PZ
fluid-gummel-loop 10 1.000000e-05
fluid-minimize  \
	dirUpdateScheme      PolakRibiere \
	linminMethod         DirUpdateRecommended \
	nIterations          100 \
	history              15 \
	knormThreshold       0 \
	energyDiffThreshold  0 \
	nEnergyDiff          2 \
	alphaTstart          1 \
	alphaTmin            1e-10 \
	updateTestStepSize   yes \
	alphaTreduceFactor   0.1 \
	alphaTincreaseFactor 3 \
	nAlphaAdjustMax      3 \
	wolfeEnergy          0.0001 \
	wolfeGradient        0.9 \
	fdTest               no
fluid-solvent H2O 55.338 ScalarEOS \
	epsBulk 78.4 \
	pMol 0.92466 \
	epsInf 1.77 \
	Pvap 1.06736e-10 \
	sigmaBulk 4.62e-05 \
	Rvdw 2.61727 \
	Res 1.42 \
	tauNuc 343133 \
	poleEl 15 7 1
forces-output-coords Positions
ion Li   0.000000000000000   0.000000000000000   0.000000000000000 0
ion-species SG15/$ID_ONCV_PBE.upf
ion-width 0
ionic-minimize  \
	dirUpdateScheme      L-BFGS \
	linminMethod         DirUpdateRecommended \
	nIterations          0 \
	history              15 \
	knormThreshold       0.0001 \
	energyDiffThreshold  1e-06 \
	nEnergyDiff          2 \
	alphaTstart          1 \
	alphaTmin            1e-10 \
	updateTestStepSize   yes \
	alphaTreduceFactor   0.1 \
	alphaTincreaseFactor 3 \
	nAlphaAdjustMax      3 \
	wolfeEnergy          0.0001 \
	wolfeGradient        0.9 \
	fdTest               no
kpoint   0.000000000000   0.000000000000   0.000000000000  1.00000000000000
kpoint-folding 12 12 1 
latt-move-scale 1 1 1
latt-scale 2 2 1 
lattice  \
	   4.727486978767153   -2.363743489383575    0.000000000000000  \
	  -0.000000000000000    4.094123819672498    0.000000000000000  \
	   0.000000000000000    0.000000000000000   40.000000000000000 
lattice-minimize  \
	dirUpdateScheme      L-BFGS \
	linminMethod         DirUpdateRecommended \
	nIterations          0 \
	history              15 \
	knormThreshold       0 \
	energyDiffThreshold  1e-06 \
	nEnergyDiff          2 \
	alphaTstart          1 \
	alphaTmin            1e-10 \
	updateTestStepSize   yes \
	alphaTreduceFactor   0.1 \
	alphaTincreaseFactor 3 \
	nAlphaAdjustMax      3 \
	wolfeEnergy          0.0001 \
	wolfeGradient        0.9 \
	fdTest               no
lcao-params -1 1e-06 1e-05
pcm-variant GLSSA13
spintype z-spin
subspace-rotation-factor 1 yes
symmetries automatic
symmetry-threshold 0.0001



---------- Setting up symmetries ----------

Found 24 point-group symmetries of the bravais lattice
Found 24 space-group symmetries with basis
Applied RMS atom displacement 0 bohrs to make symmetries exact.

---------- Initializing the Grid ----------
R = 
[      9.45497     -4.72749            0  ]
[            0      8.18825            0  ]
[            0            0           40  ]
unit cell volume = 3096.79
G =
[   0.664538   0.383671         -0  ]
[          0   0.767342         -0  ]
[         -0         -0    0.15708  ]
Minimum fftbox size, Smin = [  40  40  164  ]
Chosen fftbox size, S = [  40  40  168  ]

---------- Exchange Correlation functional ----------
Initalized PBE GGA exchange.
Initalized PBE GGA correlation.

---------- Setting up pseudopotentials ----------
Width of ionic core gaussian charges (only for fluid interactions / plotting) set to 0

Reading pseudopotential file '/home/gridsan/aligho/DFT/build-Nov24/pseudopotentials/SG15/Li_ONCV_PBE.upf':
  'Li' pseudopotential, 'PBE' functional
  Generated using ONCVPSP code by D. R. Hamann
  Author: Martin Schlipf and Francois Gygi  Date: 150915.
  3 valence electrons, 2 orbitals, 4 projectors, 1328 radial grid points, with lMax = 1
  Transforming local potential to a uniform radial grid of dG=0.02 with 1489 points.
  Transforming nonlocal projectors to a uniform radial grid of dG=0.02 with 432 points.
    1S    l: 0   occupation:  2.0   eigenvalue: -1.905623
    2S    l: 0   occupation:  1.0   eigenvalue: -0.105624
  Transforming atomic orbitals to a uniform radial grid of dG=0.02 with 432 points.
  WARNING: large normalization error in atomic orbital 1s (integral: 0.000000).
  Core radius for overlap checks: 1.63 bohrs.
  Reading pulay file /home/gridsan/aligho/DFT/build-Nov24/pseudopotentials/SG15/Li_ONCV_PBE.pulay ... using dE_dnG = -1.230239e-02 computed for Ecut = 20.

Initialized 1 species with 1 total atoms.

Folded 1 k-points by 12x12x1 to 144 k-points.

---------- Setting up k-points, bands, fillings ----------
Reduced to 19 k-points under symmetry. 
Computing the number of bands and number of electrons
Calculating initial fillings.
nElectrons:   3.000000   nBands: 3   nStates: 38

----- Setting up reduced wavefunction bases (one per k-point) -----
average nbasis = 13230.521 , ideal nbasis = 13229.709

---------- Setting up coulomb interaction ----------
Initialized slab truncation along lattice direction 001

---------- Setting up 2D ewald sum ----------
Optimum gaussian width for ewald sums = 5.249020 bohr.
Real space sums over 289 unit cells with max indices [  8  8  0  ]
Reciprocal space sums over 81 terms with max indices [  4  4  0  ]

---------- Allocating electronic variables ----------
Initializing wave functions:  linear combination of atomic orbitals
Note: number of bands (3) exceeds available atomic orbitals (2)
Li pseudo-atom occupations:   s ( 2 1 )
	FillingsUpdate:  mu: +0.325236564  nElectrons: 3.000000  magneticMoment: [ Abs: 0.12922  Tot: +0.12000 ]
LCAOMinimize: Iter:   0  F: -1.1786401578935424  |grad|_K:  7.173e-05  alpha:  1.000e+00
	FillingsUpdate:  mu: +0.325235292  nElectrons: 3.000000  magneticMoment: [ Abs: 0.12922  Tot: +0.12000 ]
LCAOMinimize: Iter:   1  F: -1.1786410763497961  |grad|_K:  1.711e-06  alpha:  1.044e+00  linmin: -1.846e-03  cgtest:  2.849e-02  t[s]:      3.94
LCAOMinimize: Encountered beta<0, resetting CG.
	FillingsUpdate:  mu: +0.325235302  nElectrons: 3.000000  magneticMoment: [ Abs: 0.12922  Tot: +0.12000 ]
LCAOMinimize: Iter:   2  F: -1.1786410768566857  |grad|_K:  4.286e-08  alpha:  1.008e+00  linmin: -9.081e-03  cgtest:  2.359e-01  t[s]:      5.22
LCAOMinimize: Encountered beta<0, resetting CG.
LCAOMinimize: Converged (|Delta F|<1.000000e-06 for 2 iters).


---- Citations for features of the code used in this run ----

   Software package:
      R. Sundararaman, K. Letchworth-Weaver, K.A. Schwarz, D. Gunceler, Y. Ozhabes and T.A. Arias, 'JDFTx: software for joint density-functional theory', SoftwareX 6, 278 (2017)

   gga-PBE exchange-correlation functional:
      J.P. Perdew, K. Burke and M. Ernzerhof, Phys. Rev. Lett. 77, 3865 (1996)

   Pseudopotentials:
      M Schlipf and F Gygi, Comput. Phys. Commun. 196, 36 (2015)

   Truncated Coulomb potentials:
      R. Sundararaman and T.A. Arias, Phys. Rev. B 87, 165122 (2013)

This list may not be complete. Please suggest additional citations or
report any other bugs at https://github.com/shankar1729/jdftx/issues

Initialization completed successfully at t[s]:      5.29


-------- Electronic minimization -----------
Will mix electronic density at each iteration.
	FillingsUpdate:  mu: +0.325235302  nElectrons: 3.000000  magneticMoment: [ Abs: 0.12922  Tot: +0.12000 ]
	FillingsUpdate:  mu: -0.978513531  nElectrons: 3.000000  magneticMoment: [ Abs: 0.12922  Tot: +0.12000 ]
SCF: Cycle:  0   F: -6.826415394473451   dF: -5.648e+00   |Residual|: 1.172e+00   |deigs|: 4.170e+00  t[s]:      6.96
	FillingsUpdate:  mu: -0.865605210  nElectrons: 3.000000  magneticMoment: [ Abs: 0.20885  Tot: +0.12000 ]
SCF: Cycle:  1   F: -6.935762682745664   dF: -1.093e-01   |Residual|: 7.729e-01   |deigs|: 2.329e-01  t[s]:      8.26
	FillingsUpdate:  mu: -0.615669587  nElectrons: 3.000000  magneticMoment: [ Abs: 0.26810  Tot: +0.12000 ]
SCF: Cycle:  2   F: -7.050363264453122   dF: -1.146e-01   |Residual|: 4.187e-01   |deigs|: 7.851e-01  t[s]:      9.58
	FillingsUpdate:  mu: -0.653526342  nElectrons: 3.000000  magneticMoment: [ Abs: 0.24285  Tot: +0.12000 ]
SCF: Cycle:  3   F: -7.057536743522640   dF: -7.173e-03   |Residual|: 2.109e-01   |deigs|: 1.269e-01  t[s]:     10.95
	FillingsUpdate:  mu: -0.619575476  nElectrons: 3.000000  magneticMoment: [ Abs: 0.29525  Tot: +0.12000 ]
SCF: Cycle:  4   F: -7.055953989651134   dF: +1.583e-03   |Residual|: 6.216e-02   |deigs|: 3.938e-02  t[s]:     12.34
	FillingsUpdate:  mu: -0.585587992  nElectrons: 3.000000  magneticMoment: [ Abs: 0.24000  Tot: +0.12000 ]
SCF: Cycle:  5   F: -7.055561783530359   dF: +3.922e-04   |Residual|: 1.571e-01   |deigs|: 2.711e-02  t[s]:     13.77
	FillingsUpdate:  mu: -0.487005803  nElectrons: 3.000000  magneticMoment: [ Abs: 0.27978  Tot: +0.12000 ]
SCF: Cycle:  6   F: -7.060279498105052   dF: -4.718e-03   |Residual|: 9.140e-02   |deigs|: 1.289e-01  t[s]:     15.26
	FillingsUpdate:  mu: -0.427192157  nElectrons: 3.000000  magneticMoment: [ Abs: 0.24734  Tot: +0.12000 ]
SCF: Cycle:  7   F: -7.061532878171186   dF: -1.253e-03   |Residual|: 1.658e-01   |deigs|: 1.333e-01  t[s]:     16.74
	FillingsUpdate:  mu: -0.370893187  nElectrons: 3.000000  magneticMoment: [ Abs: 0.17281  Tot: +0.12000 ]
SCF: Cycle:  8   F: -7.064900781483340   dF: -3.368e-03   |Residual|: 4.462e-02   |deigs|: 4.598e-02  t[s]:     18.20
	FillingsUpdate:  mu: -0.320112204  nElectrons: 3.000000  magneticMoment: [ Abs: 0.41835  Tot: +0.12000 ]
SCF: Cycle:  9   F: -7.064830648732801   dF: +7.013e-05   |Residual|: 1.295e-01   |deigs|: 5.769e-02  t[s]:     19.70
	FillingsUpdate:  mu: -0.287513740  nElectrons: 3.000000  magneticMoment: [ Abs: 0.31315  Tot: +0.12000 ]
SCF: Cycle: 10   F: -7.065319110552782   dF: -4.885e-04   |Residual|: 1.432e-01   |deigs|: 2.637e-02  t[s]:     21.26
	FillingsUpdate:  mu: -0.240170492  nElectrons: 3.000000  magneticMoment: [ Abs: 0.27368  Tot: +0.12000 ]
SCF: Cycle: 11   F: -7.067132589208848   dF: -1.813e-03   |Residual|: 2.987e-02   |deigs|: 1.074e-01  t[s]:     22.86
	FillingsUpdate:  mu: -0.210960478  nElectrons: 3.000000  magneticMoment: [ Abs: 0.18067  Tot: +0.12000 ]
SCF: Cycle: 12   F: -7.067651075712619   dF: -5.185e-04   |Residual|: 1.379e-02   |deigs|: 2.389e-02  t[s]:     24.40
	FillingsUpdate:  mu: -0.172109730  nElectrons: 3.000000  magneticMoment: [ Abs: 0.17172  Tot: +0.12000 ]
SCF: Cycle: 13   F: -7.067874518208535   dF: -2.234e-04   |Residual|: 1.032e-02   |deigs|: 4.012e-02  t[s]:     25.96
	FillingsUpdate:  mu: -0.143357317  nElectrons: 3.000000  magneticMoment: [ Abs: 0.15698  Tot: +0.12000 ]
SCF: Cycle: 14   F: -7.067895959907396   dF: -2.144e-05   |Residual|: 8.332e-03   |deigs|: 3.013e-02  t[s]:     27.52
	FillingsUpdate:  mu: -0.130235375  nElectrons: 3.000000  magneticMoment: [ Abs: 0.15340  Tot: +0.12000 ]
SCF: Cycle: 15   F: -7.067941717755176   dF: -4.576e-05   |Residual|: 6.408e-03   |deigs|: 1.282e-02  t[s]:     29.02
	FillingsUpdate:  mu: -0.115428442  nElectrons: 3.000000  magneticMoment: [ Abs: 0.14224  Tot: +0.12000 ]
SCF: Cycle: 16   F: -7.068064453982470   dF: -1.227e-04   |Residual|: 3.765e-03   |deigs|: 1.427e-02  t[s]:     30.53
	FillingsUpdate:  mu: -0.114921833  nElectrons: 3.000000  magneticMoment: [ Abs: 0.13407  Tot: +0.12000 ]
SCF: Cycle: 17   F: -7.068127579102362   dF: -6.313e-05   |Residual|: 2.469e-03   |deigs|: 6.648e-04  t[s]:     32.05
	FillingsUpdate:  mu: -0.114682403  nElectrons: 3.000000  magneticMoment: [ Abs: 0.12935  Tot: +0.12000 ]
SCF: Cycle: 18   F: -7.068159391704893   dF: -3.181e-05   |Residual|: 1.595e-03   |deigs|: 5.888e-04  t[s]:     33.56
	FillingsUpdate:  mu: -0.115175402  nElectrons: 3.000000  magneticMoment: [ Abs: 0.12651  Tot: +0.12000 ]
SCF: Cycle: 19   F: -7.068171330696894   dF: -1.194e-05   |Residual|: 9.032e-04   |deigs|: 5.591e-04  t[s]:     35.09
	FillingsUpdate:  mu: -0.113310091  nElectrons: 3.000000  magneticMoment: [ Abs: 0.12616  Tot: +0.12000 ]
SCF: Cycle: 20   F: -7.068178361351970   dF: -7.031e-06   |Residual|: 4.457e-04   |deigs|: 1.749e-03  t[s]:     36.61
	FillingsUpdate:  mu: -0.112187920  nElectrons: 3.000000  magneticMoment: [ Abs: 0.12511  Tot: +0.12000 ]
SCF: Cycle: 21   F: -7.068179188647250   dF: -8.273e-07   |Residual|: 2.744e-04   |deigs|: 1.239e-03  t[s]:     38.12
	FillingsUpdate:  mu: -0.111674683  nElectrons: 3.000000  magneticMoment: [ Abs: 0.12451  Tot: +0.12000 ]
SCF: Cycle: 22   F: -7.068179658942063   dF: -4.703e-07   |Residual|: 1.697e-04   |deigs|: 6.055e-04  t[s]:     39.65
	FillingsUpdate:  mu: -0.111577972  nElectrons: 3.000000  magneticMoment: [ Abs: 0.12391  Tot: +0.12000 ]
SCF: Cycle: 23   F: -7.068179735190452   dF: -7.625e-08   |Residual|: 1.200e-04   |deigs|: 1.582e-04  t[s]:     41.15
	FillingsUpdate:  mu: -0.111599217  nElectrons: 3.000000  magneticMoment: [ Abs: 0.12321  Tot: +0.12000 ]
SCF: Cycle: 24   F: -7.068179820706841   dF: -8.552e-08   |Residual|: 1.026e-04   |deigs|: 4.306e-05  t[s]:     42.64
	FillingsUpdate:  mu: -0.111700988  nElectrons: 3.000000  magneticMoment: [ Abs: 0.12214  Tot: +0.12000 ]
SCF: Cycle: 25   F: -7.068179936116601   dF: -1.154e-07   |Residual|: 1.019e-04   |deigs|: 1.187e-04  t[s]:     44.19
	FillingsUpdate:  mu: -0.111800442  nElectrons: 3.000000  magneticMoment: [ Abs: 0.12111  Tot: +0.12000 ]
SCF: Cycle: 26   F: -7.068179969722354   dF: -3.361e-08   |Residual|: 8.214e-05   |deigs|: 1.310e-04  t[s]:     45.79
	FillingsUpdate:  mu: -0.111885548  nElectrons: 3.000000  magneticMoment: [ Abs: 0.12050  Tot: +0.12000 ]
SCF: Cycle: 27   F: -7.068180010985231   dF: -4.126e-08   |Residual|: 5.551e-05   |deigs|: 1.002e-04  t[s]:     47.32
	FillingsUpdate:  mu: -0.111896977  nElectrons: 3.000000  magneticMoment: [ Abs: 0.12018  Tot: +0.12000 ]
SCF: Cycle: 28   F: -7.068180030669011   dF: -1.968e-08   |Residual|: 3.248e-05   |deigs|: 5.037e-05  t[s]:     48.82
	FillingsUpdate:  mu: -0.111874108  nElectrons: 3.000000  magneticMoment: [ Abs: 0.12009  Tot: +0.12000 ]
SCF: Cycle: 29   F: -7.068180034932076   dF: -4.263e-09   |Residual|: 2.382e-05   |deigs|: 5.199e-05  t[s]:     50.35
	FillingsUpdate:  mu: -0.111843293  nElectrons: 3.000000  magneticMoment: [ Abs: 0.12004  Tot: +0.12000 ]
SCF: Cycle: 30   F: -7.068180047451269   dF: -1.252e-08   |Residual|: 1.751e-05   |deigs|: 5.469e-05  t[s]:     51.84
	FillingsUpdate:  mu: -0.111804603  nElectrons: 3.000000  magneticMoment: [ Abs: 0.12002  Tot: +0.12000 ]
SCF: Cycle: 31   F: -7.068180049787284   dF: -2.336e-09   |Residual|: 1.251e-05   |deigs|: 6.154e-05  t[s]:     53.33
	FillingsUpdate:  mu: -0.111778475  nElectrons: 3.000000  magneticMoment: [ Abs: 0.12001  Tot: +0.12000 ]
SCF: Cycle: 32   F: -7.068180053273256   dF: -3.486e-09   |Residual|: 8.382e-06   |deigs|: 5.996e-05  t[s]:     54.87
SCF: Converged (|Delta E|<1.000000e-08 for 2 iters).


# Ionic positions in lattice coordinates:
ion Li   0.000000000000000   0.000000000000000   0.000000000000000 0

# Forces in Lattice coordinates:
force Li  -0.000000000000000   0.000000000000000   0.000000000000000 0

# Energy components:
   Eewald =       -2.0053362333702967
       EH =        1.5278687259943373
     Eloc =       -6.1885290947548572
      Enl =       -3.5905144635375223
   Epulay =        0.0000032255226020
      Exc =       -1.5370975885293405
       KE =        4.7254263346172936
-------------------------------------
     Etot =       -7.0681790940577818
       TS =        0.0000009592154742
-------------------------------------
        F =       -7.0681800532732559

IonicMinimize: Iter:   0  F: -7.068180053273256  |grad|_K:  0.000e+00  t[s]:     54.99
IonicMinimize: Converged (|grad|_K<1.000000e-04).

#--- Lowdin population analysis ---
# oxidation-state Li +2.162
# magnetic-moments Li +0.083

End date and time: Sat Feb  5 23:00:50 2022  (Duration: 0-0:00:55.00)
Done!
