
*************** JDFTx 1.6.0 (git hash 42ebbcc2) ***************

Start date and time: Sat Feb  5 22:52:45 2022
Executable jdftx with command-line: -i Alkali.in
Running on hosts (process indices):  d-6-8-2 (0-18)
Divided in process groups (process indices):  0 (0)  1 (1)  2 (2)  3 (3)  4 (4)  5 (5)  6 (6)  7 (7)  8 (8)  9 (9)  10 (10)  11 (11)  12 (12)  13 (13)  14 (14)  15 (15)  16 (16)  17 (17)  18 (18)
Resource initialization completed at t[s]:      0.00
Run totals: 19 processes, 48 threads, 0 GPUs


Input parsed successfully to the following command list (including defaults):

basis kpoint-dependent
coords-type Lattice
core-overlap-check vector
coulomb-interaction Slab 001
davidson-band-ratio 1.1
dump End None
dump-name $INPUT.$VAR
elec-cutoff 20
elec-eigen-algo Davidson
elec-ex-corr gga-PBE
elec-initial-magnetization -0.420000 yes
elec-smearing Fermi 1e-05
electronic-minimize  \
	dirUpdateScheme      FletcherReeves \
	linminMethod         DirUpdateRecommended \
	nIterations          100 \
	history              15 \
	knormThreshold       0 \
	energyDiffThreshold  1e-08 \
	nEnergyDiff          2 \
	alphaTstart          1 \
	alphaTmin            1e-10 \
	updateTestStepSize   yes \
	alphaTreduceFactor   0.1 \
	alphaTincreaseFactor 3 \
	nAlphaAdjustMax      3 \
	wolfeEnergy          0.0001 \
	wolfeGradient        0.9 \
	fdTest               no
electronic-scf  \
	nIterations	10000 \
	energyDiffThreshold	1e-08 \
	residualThreshold	1e-07 \
	mixFraction	0.5 \
	qMetric	0.8 \
	history	10 \
	nEigSteps	2 \
	eigDiffThreshold	1e-08 \
	mixedVariable	Density \
	qKerker	0.8 \
	qKappa	-1 \
	verbose	no \
	mixFractionMag	1.5
exchange-regularization WignerSeitzTruncated
fluid None
fluid-ex-corr (null) lda-PZ
fluid-gummel-loop 10 1.000000e-05
fluid-minimize  \
	dirUpdateScheme      PolakRibiere \
	linminMethod         DirUpdateRecommended \
	nIterations          100 \
	history              15 \
	knormThreshold       0 \
	energyDiffThreshold  0 \
	nEnergyDiff          2 \
	alphaTstart          1 \
	alphaTmin            1e-10 \
	updateTestStepSize   yes \
	alphaTreduceFactor   0.1 \
	alphaTincreaseFactor 3 \
	nAlphaAdjustMax      3 \
	wolfeEnergy          0.0001 \
	wolfeGradient        0.9 \
	fdTest               no
fluid-solvent H2O 55.338 ScalarEOS \
	epsBulk 78.4 \
	pMol 0.92466 \
	epsInf 1.77 \
	Pvap 1.06736e-10 \
	sigmaBulk 4.62e-05 \
	Rvdw 2.61727 \
	Res 1.42 \
	tauNuc 343133 \
	poleEl 15 7 1
forces-output-coords Positions
ion Li   0.000000000000000   0.000000000000000   0.000000000000000 0
ion-species SG15/$ID_ONCV_PBE.upf
ion-width 0
ionic-minimize  \
	dirUpdateScheme      L-BFGS \
	linminMethod         DirUpdateRecommended \
	nIterations          0 \
	history              15 \
	knormThreshold       0.0001 \
	energyDiffThreshold  1e-06 \
	nEnergyDiff          2 \
	alphaTstart          1 \
	alphaTmin            1e-10 \
	updateTestStepSize   yes \
	alphaTreduceFactor   0.1 \
	alphaTincreaseFactor 3 \
	nAlphaAdjustMax      3 \
	wolfeEnergy          0.0001 \
	wolfeGradient        0.9 \
	fdTest               no
kpoint   0.000000000000   0.000000000000   0.000000000000  1.00000000000000
kpoint-folding 12 12 1 
latt-move-scale 1 1 1
latt-scale 2 2 1 
lattice  \
	   4.727486978767153   -2.363743489383575    0.000000000000000  \
	  -0.000000000000000    4.094123819672498    0.000000000000000  \
	   0.000000000000000    0.000000000000000   40.000000000000000 
lattice-minimize  \
	dirUpdateScheme      L-BFGS \
	linminMethod         DirUpdateRecommended \
	nIterations          0 \
	history              15 \
	knormThreshold       0 \
	energyDiffThreshold  1e-06 \
	nEnergyDiff          2 \
	alphaTstart          1 \
	alphaTmin            1e-10 \
	updateTestStepSize   yes \
	alphaTreduceFactor   0.1 \
	alphaTincreaseFactor 3 \
	nAlphaAdjustMax      3 \
	wolfeEnergy          0.0001 \
	wolfeGradient        0.9 \
	fdTest               no
lcao-params -1 1e-06 1e-05
pcm-variant GLSSA13
spintype z-spin
subspace-rotation-factor 1 yes
symmetries automatic
symmetry-threshold 0.0001



---------- Setting up symmetries ----------

Found 24 point-group symmetries of the bravais lattice
Found 24 space-group symmetries with basis
Applied RMS atom displacement 0 bohrs to make symmetries exact.

---------- Initializing the Grid ----------
R = 
[      9.45497     -4.72749            0  ]
[            0      8.18825            0  ]
[            0            0           40  ]
unit cell volume = 3096.79
G =
[   0.664538   0.383671         -0  ]
[          0   0.767342         -0  ]
[         -0         -0    0.15708  ]
Minimum fftbox size, Smin = [  40  40  164  ]
Chosen fftbox size, S = [  40  40  168  ]

---------- Exchange Correlation functional ----------
Initalized PBE GGA exchange.
Initalized PBE GGA correlation.

---------- Setting up pseudopotentials ----------
Width of ionic core gaussian charges (only for fluid interactions / plotting) set to 0

Reading pseudopotential file '/home/gridsan/aligho/DFT/build-Nov24/pseudopotentials/SG15/Li_ONCV_PBE.upf':
  'Li' pseudopotential, 'PBE' functional
  Generated using ONCVPSP code by D. R. Hamann
  Author: Martin Schlipf and Francois Gygi  Date: 150915.
  3 valence electrons, 2 orbitals, 4 projectors, 1328 radial grid points, with lMax = 1
  Transforming local potential to a uniform radial grid of dG=0.02 with 1489 points.
  Transforming nonlocal projectors to a uniform radial grid of dG=0.02 with 432 points.
    1S    l: 0   occupation:  2.0   eigenvalue: -1.905623
    2S    l: 0   occupation:  1.0   eigenvalue: -0.105624
  Transforming atomic orbitals to a uniform radial grid of dG=0.02 with 432 points.
  WARNING: large normalization error in atomic orbital 1s (integral: 0.000000).
  Core radius for overlap checks: 1.63 bohrs.
  Reading pulay file /home/gridsan/aligho/DFT/build-Nov24/pseudopotentials/SG15/Li_ONCV_PBE.pulay ... using dE_dnG = -1.230239e-02 computed for Ecut = 20.

Initialized 1 species with 1 total atoms.

Folded 1 k-points by 12x12x1 to 144 k-points.

---------- Setting up k-points, bands, fillings ----------
Reduced to 19 k-points under symmetry. 
Computing the number of bands and number of electrons
Calculating initial fillings.
nElectrons:   3.000000   nBands: 3   nStates: 38

----- Setting up reduced wavefunction bases (one per k-point) -----
average nbasis = 13230.521 , ideal nbasis = 13229.709

---------- Setting up coulomb interaction ----------
Initialized slab truncation along lattice direction 001

---------- Setting up 2D ewald sum ----------
Optimum gaussian width for ewald sums = 5.249020 bohr.
Real space sums over 289 unit cells with max indices [  8  8  0  ]
Reciprocal space sums over 81 terms with max indices [  4  4  0  ]

---------- Allocating electronic variables ----------
Initializing wave functions:  linear combination of atomic orbitals
Note: number of bands (3) exceeds available atomic orbitals (2)
Li pseudo-atom occupations:   s ( 2 1 )
	FillingsUpdate:  mu: +0.327513089  nElectrons: 3.000000  magneticMoment: [ Abs: 0.42000  Tot: -0.42000 ]
LCAOMinimize: Iter:   0  F: -1.1816793632473954  |grad|_K:  7.316e-05  alpha:  1.000e+00
	FillingsUpdate:  mu: +0.327511811  nElectrons: 3.000000  magneticMoment: [ Abs: 0.42000  Tot: -0.42000 ]
LCAOMinimize: Iter:   1  F: -1.1816803199549575  |grad|_K:  1.793e-06  alpha:  1.045e+00  linmin: -1.794e-03  cgtest:  2.489e-02  t[s]:      3.78
LCAOMinimize: Encountered beta<0, resetting CG.
	FillingsUpdate:  mu: +0.327511809  nElectrons: 3.000000  magneticMoment: [ Abs: 0.42000  Tot: -0.42000 ]
LCAOMinimize: Iter:   2  F: -1.1816803205156785  |grad|_K:  5.868e-08  alpha:  1.018e+00  linmin: -1.304e-03  cgtest:  3.205e-02  t[s]:      4.81
LCAOMinimize: Converged (|Delta F|<1.000000e-06 for 2 iters).


---- Citations for features of the code used in this run ----

   Software package:
      R. Sundararaman, K. Letchworth-Weaver, K.A. Schwarz, D. Gunceler, Y. Ozhabes and T.A. Arias, 'JDFTx: software for joint density-functional theory', SoftwareX 6, 278 (2017)

   gga-PBE exchange-correlation functional:
      J.P. Perdew, K. Burke and M. Ernzerhof, Phys. Rev. Lett. 77, 3865 (1996)

   Pseudopotentials:
      M Schlipf and F Gygi, Comput. Phys. Commun. 196, 36 (2015)

   Truncated Coulomb potentials:
      R. Sundararaman and T.A. Arias, Phys. Rev. B 87, 165122 (2013)

This list may not be complete. Please suggest additional citations or
report any other bugs at https://github.com/shankar1729/jdftx/issues

Initialization completed successfully at t[s]:      4.88


-------- Electronic minimization -----------
Will mix electronic density at each iteration.
	FillingsUpdate:  mu: +0.327511809  nElectrons: 3.000000  magneticMoment: [ Abs: 0.42000  Tot: -0.42000 ]
	FillingsUpdate:  mu: -0.971470430  nElectrons: 3.000000  magneticMoment: [ Abs: 0.42000  Tot: -0.42000 ]
SCF: Cycle:  0   F: -6.834470909357333   dF: -5.653e+00   |Residual|: 1.173e+00   |deigs|: 4.171e+00  t[s]:      6.50
	FillingsUpdate:  mu: -0.852430880  nElectrons: 3.000000  magneticMoment: [ Abs: 0.64115  Tot: -0.42000 ]
SCF: Cycle:  1   F: -6.937372036606745   dF: -1.029e-01   |Residual|: 7.743e-01   |deigs|: 2.360e-01  t[s]:      7.78
	FillingsUpdate:  mu: -0.638856320  nElectrons: 3.000000  magneticMoment: [ Abs: 0.83535  Tot: -0.42000 ]
SCF: Cycle:  2   F: -7.049096001601613   dF: -1.117e-01   |Residual|: 4.224e-01   |deigs|: 7.757e-01  t[s]:      9.06
	FillingsUpdate:  mu: -0.659103326  nElectrons: 3.000000  magneticMoment: [ Abs: 0.70477  Tot: -0.42000 ]
SCF: Cycle:  3   F: -7.056844406368910   dF: -7.748e-03   |Residual|: 2.077e-01   |deigs|: 1.227e-01  t[s]:     10.35
	FillingsUpdate:  mu: -0.620197474  nElectrons: 3.000000  magneticMoment: [ Abs: 0.54036  Tot: -0.42000 ]
SCF: Cycle:  4   F: -7.055355795522586   dF: +1.489e-03   |Residual|: 3.912e-02   |deigs|: 3.522e-02  t[s]:     11.73
	FillingsUpdate:  mu: -0.591978059  nElectrons: 3.000000  magneticMoment: [ Abs: 0.52595  Tot: -0.42000 ]
SCF: Cycle:  5   F: -7.054985723495262   dF: +3.701e-04   |Residual|: 1.158e-01   |deigs|: 2.196e-02  t[s]:     13.09
	FillingsUpdate:  mu: -0.464321938  nElectrons: 3.000000  magneticMoment: [ Abs: 0.60752  Tot: -0.42000 ]
SCF: Cycle:  6   F: -7.059392784152107   dF: -4.407e-03   |Residual|: 1.071e-01   |deigs|: 1.547e-01  t[s]:     14.49
	FillingsUpdate:  mu: -0.421930292  nElectrons: 3.000000  magneticMoment: [ Abs: 0.55747  Tot: -0.42000 ]
SCF: Cycle:  7   F: -7.060459321657519   dF: -1.067e-03   |Residual|: 1.371e-01   |deigs|: 1.037e-01  t[s]:     15.88
	FillingsUpdate:  mu: -0.405238165  nElectrons: 3.000000  magneticMoment: [ Abs: 0.52036  Tot: -0.42000 ]
SCF: Cycle:  8   F: -7.061457098724403   dF: -9.978e-04   |Residual|: 9.953e-02   |deigs|: 1.432e-02  t[s]:     17.30
	FillingsUpdate:  mu: -0.344891383  nElectrons: 3.000000  magneticMoment: [ Abs: 0.55220  Tot: -0.42000 ]
SCF: Cycle:  9   F: -7.064059356046115   dF: -2.602e-03   |Residual|: 9.841e-02   |deigs|: 6.322e-02  t[s]:     18.77
	FillingsUpdate:  mu: -0.320688173  nElectrons: 3.000000  magneticMoment: [ Abs: 0.51990  Tot: -0.42000 ]
SCF: Cycle: 10   F: -7.064657791011327   dF: -5.984e-04   |Residual|: 5.995e-02   |deigs|: 3.028e-02  t[s]:     20.23
	FillingsUpdate:  mu: -0.255940715  nElectrons: 3.000000  magneticMoment: [ Abs: 0.55502  Tot: -0.42000 ]
SCF: Cycle: 11   F: -7.065648776907784   dF: -9.910e-04   |Residual|: 1.856e-02   |deigs|: 7.977e-02  t[s]:     21.73
	FillingsUpdate:  mu: -0.229007073  nElectrons: 3.000000  magneticMoment: [ Abs: 0.55431  Tot: -0.42000 ]
SCF: Cycle: 12   F: -7.065894232443198   dF: -2.455e-04   |Residual|: 1.397e-02   |deigs|: 2.943e-02  t[s]:     23.20
	FillingsUpdate:  mu: -0.178871450  nElectrons: 3.000000  magneticMoment: [ Abs: 0.52605  Tot: -0.42000 ]
SCF: Cycle: 13   F: -7.066218773785637   dF: -3.245e-04   |Residual|: 1.275e-02   |deigs|: 5.162e-02  t[s]:     24.68
	FillingsUpdate:  mu: -0.153249030  nElectrons: 3.000000  magneticMoment: [ Abs: 0.49745  Tot: -0.42000 ]
SCF: Cycle: 14   F: -7.066247817736756   dF: -2.904e-05   |Residual|: 9.381e-03   |deigs|: 2.575e-02  t[s]:     26.14
	FillingsUpdate:  mu: -0.135715262  nElectrons: 3.000000  magneticMoment: [ Abs: 0.47779  Tot: -0.42000 ]
SCF: Cycle: 15   F: -7.066270698637557   dF: -2.288e-05   |Residual|: 7.059e-03   |deigs|: 1.601e-02  t[s]:     27.63
	FillingsUpdate:  mu: -0.118167360  nElectrons: 3.000000  magneticMoment: [ Abs: 0.47532  Tot: -0.42000 ]
SCF: Cycle: 16   F: -7.066446977607095   dF: -1.763e-04   |Residual|: 5.143e-03   |deigs|: 1.793e-02  t[s]:     29.11
	FillingsUpdate:  mu: -0.110628365  nElectrons: 3.000000  magneticMoment: [ Abs: 0.46150  Tot: -0.42000 ]
SCF: Cycle: 17   F: -7.066578986526303   dF: -1.320e-04   |Residual|: 3.146e-03   |deigs|: 8.834e-03  t[s]:     30.60
	FillingsUpdate:  mu: -0.110420573  nElectrons: 3.000000  magneticMoment: [ Abs: 0.44939  Tot: -0.42000 ]
SCF: Cycle: 18   F: -7.066623473138272   dF: -4.449e-05   |Residual|: 2.114e-03   |deigs|: 5.772e-04  t[s]:     32.05
	FillingsUpdate:  mu: -0.112207501  nElectrons: 3.000000  magneticMoment: [ Abs: 0.43614  Tot: -0.42000 ]
SCF: Cycle: 19   F: -7.066642041007277   dF: -1.857e-05   |Residual|: 1.147e-03   |deigs|: 2.049e-03  t[s]:     33.51
	FillingsUpdate:  mu: -0.111407948  nElectrons: 3.000000  magneticMoment: [ Abs: 0.43325  Tot: -0.42000 ]
SCF: Cycle: 20   F: -7.066649213621290   dF: -7.173e-06   |Residual|: 7.759e-04   |deigs|: 8.628e-04  t[s]:     34.98
	FillingsUpdate:  mu: -0.110712007  nElectrons: 3.000000  magneticMoment: [ Abs: 0.43102  Tot: -0.42000 ]
SCF: Cycle: 21   F: -7.066653250357260   dF: -4.037e-06   |Residual|: 5.406e-04   |deigs|: 8.559e-04  t[s]:     36.48
	FillingsUpdate:  mu: -0.109901464  nElectrons: 3.000000  magneticMoment: [ Abs: 0.42920  Tot: -0.42000 ]
SCF: Cycle: 22   F: -7.066653523723205   dF: -2.734e-07   |Residual|: 3.663e-04   |deigs|: 8.858e-04  t[s]:     37.99
	FillingsUpdate:  mu: -0.109738744  nElectrons: 3.000000  magneticMoment: [ Abs: 0.42700  Tot: -0.42000 ]
SCF: Cycle: 23   F: -7.066654866414869   dF: -1.343e-06   |Residual|: 3.128e-04   |deigs|: 2.168e-04  t[s]:     39.52
	FillingsUpdate:  mu: -0.109668100  nElectrons: 3.000000  magneticMoment: [ Abs: 0.42392  Tot: -0.42000 ]
SCF: Cycle: 24   F: -7.066654182055579   dF: +6.844e-07   |Residual|: 2.511e-04   |deigs|: 1.450e-04  t[s]:     41.10
	FillingsUpdate:  mu: -0.109675802  nElectrons: 3.000000  magneticMoment: [ Abs: 0.42151  Tot: -0.42000 ]
SCF: Cycle: 25   F: -7.066655331443586   dF: -1.149e-06   |Residual|: 1.834e-04   |deigs|: 7.573e-05  t[s]:     42.64
	FillingsUpdate:  mu: -0.109959122  nElectrons: 3.000000  magneticMoment: [ Abs: 0.42073  Tot: -0.42000 ]
SCF: Cycle: 26   F: -7.066655833366974   dF: -5.019e-07   |Residual|: 1.262e-04   |deigs|: 3.091e-04  t[s]:     44.10
	FillingsUpdate:  mu: -0.110139548  nElectrons: 3.000000  magneticMoment: [ Abs: 0.42030  Tot: -0.42000 ]
SCF: Cycle: 27   F: -7.066655966784098   dF: -1.334e-07   |Residual|: 6.090e-05   |deigs|: 1.925e-04  t[s]:     45.55
	FillingsUpdate:  mu: -0.110221638  nElectrons: 3.000000  magneticMoment: [ Abs: 0.42008  Tot: -0.42000 ]
SCF: Cycle: 28   F: -7.066656012562452   dF: -4.578e-08   |Residual|: 2.994e-05   |deigs|: 9.137e-05  t[s]:     46.97
	FillingsUpdate:  mu: -0.110235724  nElectrons: 3.000000  magneticMoment: [ Abs: 0.42000  Tot: -0.42000 ]
SCF: Cycle: 29   F: -7.066656019999624   dF: -7.437e-09   |Residual|: 1.777e-05   |deigs|: 2.974e-05  t[s]:     48.45
	FillingsUpdate:  mu: -0.110252648  nElectrons: 3.000000  magneticMoment: [ Abs: 0.42000  Tot: -0.42000 ]
SCF: Cycle: 30   F: -7.066656023442071   dF: -3.442e-09   |Residual|: 1.084e-05   |deigs|: 1.688e-04  t[s]:     49.87
SCF: Converged (|Delta E|<1.000000e-08 for 2 iters).


# Ionic positions in lattice coordinates:
ion Li   0.000000000000000   0.000000000000000   0.000000000000000 0

# Forces in Lattice coordinates:
force Li  -0.000000000000000   0.000000000000000   0.000000000000000 0

# Energy components:
   Eewald =       -2.0053362333702967
       EH =        1.5316950271613399
     Eloc =       -6.1929588083307667
      Enl =       -3.5903061596825223
   Epulay =        0.0000032255226020
      Exc =       -1.5389807339444173
       KE =        4.7292284424158915
-------------------------------------
     Etot =       -7.0666552402281670
       TS =        0.0000007832139037
-------------------------------------
        F =       -7.0666560234420706

IonicMinimize: Iter:   0  F: -7.066656023442071  |grad|_K:  0.000e+00  t[s]:     49.94
IonicMinimize: Converged (|grad|_K<1.000000e-04).

#--- Lowdin population analysis ---
# oxidation-state Li +2.184
# magnetic-moments Li -0.291

End date and time: Sat Feb  5 22:53:35 2022  (Duration: 0-0:00:49.95)
Done!
