
*************** JDFTx 1.6.0 (git hash 42ebbcc2) ***************

Start date and time: Sat Feb  5 22:58:47 2022
Executable jdftx with command-line: -i Alkali.in
Running on hosts (process indices):  d-3-7-1 (0-18)
Divided in process groups (process indices):  0 (0)  1 (1)  2 (2)  3 (3)  4 (4)  5 (5)  6 (6)  7 (7)  8 (8)  9 (9)  10 (10)  11 (11)  12 (12)  13 (13)  14 (14)  15 (15)  16 (16)  17 (17)  18 (18)
Resource initialization completed at t[s]:      0.00
Run totals: 19 processes, 48 threads, 0 GPUs


Input parsed successfully to the following command list (including defaults):

basis kpoint-dependent
coords-type Lattice
core-overlap-check vector
coulomb-interaction Slab 001
davidson-band-ratio 1.1
dump End None
dump-name $INPUT.$VAR
elec-cutoff 20
elec-eigen-algo Davidson
elec-ex-corr gga-PBE
elec-initial-magnetization -0.080000 yes
elec-smearing Fermi 1e-05
electronic-minimize  \
	dirUpdateScheme      FletcherReeves \
	linminMethod         DirUpdateRecommended \
	nIterations          100 \
	history              15 \
	knormThreshold       0 \
	energyDiffThreshold  1e-08 \
	nEnergyDiff          2 \
	alphaTstart          1 \
	alphaTmin            1e-10 \
	updateTestStepSize   yes \
	alphaTreduceFactor   0.1 \
	alphaTincreaseFactor 3 \
	nAlphaAdjustMax      3 \
	wolfeEnergy          0.0001 \
	wolfeGradient        0.9 \
	fdTest               no
electronic-scf  \
	nIterations	10000 \
	energyDiffThreshold	1e-08 \
	residualThreshold	1e-07 \
	mixFraction	0.5 \
	qMetric	0.8 \
	history	10 \
	nEigSteps	2 \
	eigDiffThreshold	1e-08 \
	mixedVariable	Density \
	qKerker	0.8 \
	qKappa	-1 \
	verbose	no \
	mixFractionMag	1.5
exchange-regularization WignerSeitzTruncated
fluid None
fluid-ex-corr (null) lda-PZ
fluid-gummel-loop 10 1.000000e-05
fluid-minimize  \
	dirUpdateScheme      PolakRibiere \
	linminMethod         DirUpdateRecommended \
	nIterations          100 \
	history              15 \
	knormThreshold       0 \
	energyDiffThreshold  0 \
	nEnergyDiff          2 \
	alphaTstart          1 \
	alphaTmin            1e-10 \
	updateTestStepSize   yes \
	alphaTreduceFactor   0.1 \
	alphaTincreaseFactor 3 \
	nAlphaAdjustMax      3 \
	wolfeEnergy          0.0001 \
	wolfeGradient        0.9 \
	fdTest               no
fluid-solvent H2O 55.338 ScalarEOS \
	epsBulk 78.4 \
	pMol 0.92466 \
	epsInf 1.77 \
	Pvap 1.06736e-10 \
	sigmaBulk 4.62e-05 \
	Rvdw 2.61727 \
	Res 1.42 \
	tauNuc 343133 \
	poleEl 15 7 1
forces-output-coords Positions
ion Li   0.000000000000000   0.000000000000000   0.000000000000000 0
ion-species SG15/$ID_ONCV_PBE.upf
ion-width 0
ionic-minimize  \
	dirUpdateScheme      L-BFGS \
	linminMethod         DirUpdateRecommended \
	nIterations          0 \
	history              15 \
	knormThreshold       0.0001 \
	energyDiffThreshold  1e-06 \
	nEnergyDiff          2 \
	alphaTstart          1 \
	alphaTmin            1e-10 \
	updateTestStepSize   yes \
	alphaTreduceFactor   0.1 \
	alphaTincreaseFactor 3 \
	nAlphaAdjustMax      3 \
	wolfeEnergy          0.0001 \
	wolfeGradient        0.9 \
	fdTest               no
kpoint   0.000000000000   0.000000000000   0.000000000000  1.00000000000000
kpoint-folding 12 12 1 
latt-move-scale 1 1 1
latt-scale 2 2 1 
lattice  \
	   4.727486978767153   -2.363743489383575    0.000000000000000  \
	  -0.000000000000000    4.094123819672498    0.000000000000000  \
	   0.000000000000000    0.000000000000000   40.000000000000000 
lattice-minimize  \
	dirUpdateScheme      L-BFGS \
	linminMethod         DirUpdateRecommended \
	nIterations          0 \
	history              15 \
	knormThreshold       0 \
	energyDiffThreshold  1e-06 \
	nEnergyDiff          2 \
	alphaTstart          1 \
	alphaTmin            1e-10 \
	updateTestStepSize   yes \
	alphaTreduceFactor   0.1 \
	alphaTincreaseFactor 3 \
	nAlphaAdjustMax      3 \
	wolfeEnergy          0.0001 \
	wolfeGradient        0.9 \
	fdTest               no
lcao-params -1 1e-06 1e-05
pcm-variant GLSSA13
spintype z-spin
subspace-rotation-factor 1 yes
symmetries automatic
symmetry-threshold 0.0001



---------- Setting up symmetries ----------

Found 24 point-group symmetries of the bravais lattice
Found 24 space-group symmetries with basis
Applied RMS atom displacement 0 bohrs to make symmetries exact.

---------- Initializing the Grid ----------
R = 
[      9.45497     -4.72749            0  ]
[            0      8.18825            0  ]
[            0            0           40  ]
unit cell volume = 3096.79
G =
[   0.664538   0.383671         -0  ]
[          0   0.767342         -0  ]
[         -0         -0    0.15708  ]
Minimum fftbox size, Smin = [  40  40  164  ]
Chosen fftbox size, S = [  40  40  168  ]

---------- Exchange Correlation functional ----------
Initalized PBE GGA exchange.
Initalized PBE GGA correlation.

---------- Setting up pseudopotentials ----------
Width of ionic core gaussian charges (only for fluid interactions / plotting) set to 0

Reading pseudopotential file '/home/gridsan/aligho/DFT/build-Nov24/pseudopotentials/SG15/Li_ONCV_PBE.upf':
  'Li' pseudopotential, 'PBE' functional
  Generated using ONCVPSP code by D. R. Hamann
  Author: Martin Schlipf and Francois Gygi  Date: 150915.
  3 valence electrons, 2 orbitals, 4 projectors, 1328 radial grid points, with lMax = 1
  Transforming local potential to a uniform radial grid of dG=0.02 with 1489 points.
  Transforming nonlocal projectors to a uniform radial grid of dG=0.02 with 432 points.
    1S    l: 0   occupation:  2.0   eigenvalue: -1.905623
    2S    l: 0   occupation:  1.0   eigenvalue: -0.105624
  Transforming atomic orbitals to a uniform radial grid of dG=0.02 with 432 points.
  WARNING: large normalization error in atomic orbital 1s (integral: 0.000000).
  Core radius for overlap checks: 1.63 bohrs.
  Reading pulay file /home/gridsan/aligho/DFT/build-Nov24/pseudopotentials/SG15/Li_ONCV_PBE.pulay ... using dE_dnG = -1.230239e-02 computed for Ecut = 20.

Initialized 1 species with 1 total atoms.

Folded 1 k-points by 12x12x1 to 144 k-points.

---------- Setting up k-points, bands, fillings ----------
Reduced to 19 k-points under symmetry. 
Computing the number of bands and number of electrons
Calculating initial fillings.
nElectrons:   3.000000   nBands: 3   nStates: 38

----- Setting up reduced wavefunction bases (one per k-point) -----
average nbasis = 13230.521 , ideal nbasis = 13229.709

---------- Setting up coulomb interaction ----------
Initialized slab truncation along lattice direction 001

---------- Setting up 2D ewald sum ----------
Optimum gaussian width for ewald sums = 5.249020 bohr.
Real space sums over 289 unit cells with max indices [  8  8  0  ]
Reciprocal space sums over 81 terms with max indices [  4  4  0  ]

---------- Allocating electronic variables ----------
Initializing wave functions:  linear combination of atomic orbitals
Note: number of bands (3) exceeds available atomic orbitals (2)
Li pseudo-atom occupations:   s ( 2 1 )
	FillingsUpdate:  mu: +0.326837349  nElectrons: 3.000000  magneticMoment: [ Abs: 0.10773  Tot: -0.08000 ]
LCAOMinimize: Iter:   0  F: -1.1809031567789920  |grad|_K:  7.262e-05  alpha:  1.000e+00
	FillingsUpdate:  mu: +0.326836325  nElectrons: 3.000000  magneticMoment: [ Abs: 0.10774  Tot: -0.08000 ]
LCAOMinimize: Iter:   1  F: -1.1809040984947616  |grad|_K:  1.732e-06  alpha:  1.044e+00  linmin: -1.690e-03  cgtest:  2.685e-02  t[s]:      4.01
LCAOMinimize: Encountered beta<0, resetting CG.
	FillingsUpdate:  mu: +0.326836315  nElectrons: 3.000000  magneticMoment: [ Abs: 0.10774  Tot: -0.08000 ]
LCAOMinimize: Iter:   2  F: -1.1809040990146262  |grad|_K:  4.495e-08  alpha:  1.015e+00  linmin:  4.142e-04  cgtest: -1.166e-02  t[s]:      5.11
LCAOMinimize: Converged (|Delta F|<1.000000e-06 for 2 iters).


---- Citations for features of the code used in this run ----

   Software package:
      R. Sundararaman, K. Letchworth-Weaver, K.A. Schwarz, D. Gunceler, Y. Ozhabes and T.A. Arias, 'JDFTx: software for joint density-functional theory', SoftwareX 6, 278 (2017)

   gga-PBE exchange-correlation functional:
      J.P. Perdew, K. Burke and M. Ernzerhof, Phys. Rev. Lett. 77, 3865 (1996)

   Pseudopotentials:
      M Schlipf and F Gygi, Comput. Phys. Commun. 196, 36 (2015)

   Truncated Coulomb potentials:
      R. Sundararaman and T.A. Arias, Phys. Rev. B 87, 165122 (2013)

This list may not be complete. Please suggest additional citations or
report any other bugs at https://github.com/shankar1729/jdftx/issues

Initialization completed successfully at t[s]:      5.18


-------- Electronic minimization -----------
Will mix electronic density at each iteration.
	FillingsUpdate:  mu: +0.326836315  nElectrons: 3.000000  magneticMoment: [ Abs: 0.10774  Tot: -0.08000 ]
	FillingsUpdate:  mu: -0.975720836  nElectrons: 3.000000  magneticMoment: [ Abs: 0.10774  Tot: -0.08000 ]
SCF: Cycle:  0   F: -6.829817831689446   dF: -5.649e+00   |Residual|: 1.172e+00   |deigs|: 4.171e+00  t[s]:      6.96
	FillingsUpdate:  mu: -0.863718956  nElectrons: 3.000000  magneticMoment: [ Abs: 0.12850  Tot: -0.08000 ]
SCF: Cycle:  1   F: -6.935915388857070   dF: -1.061e-01   |Residual|: 7.732e-01   |deigs|: 2.332e-01  t[s]:      8.28
	FillingsUpdate:  mu: -0.610315278  nElectrons: 3.000000  magneticMoment: [ Abs: 0.14634  Tot: -0.08000 ]
SCF: Cycle:  2   F: -7.050752201317606   dF: -1.148e-01   |Residual|: 4.206e-01   |deigs|: 7.866e-01  t[s]:      9.60
	FillingsUpdate:  mu: -0.655120294  nElectrons: 3.000000  magneticMoment: [ Abs: 0.13035  Tot: -0.08000 ]
SCF: Cycle:  3   F: -7.058207856173230   dF: -7.456e-03   |Residual|: 2.108e-01   |deigs|: 1.300e-01  t[s]:     11.10
	FillingsUpdate:  mu: -0.618229974  nElectrons: 3.000000  magneticMoment: [ Abs: 0.19655  Tot: -0.08000 ]
SCF: Cycle:  4   F: -7.055721066973569   dF: +2.487e-03   |Residual|: 7.066e-02   |deigs|: 4.176e-02  t[s]:     12.53
	FillingsUpdate:  mu: -0.577961114  nElectrons: 3.000000  magneticMoment: [ Abs: 0.13710  Tot: -0.08000 ]
SCF: Cycle:  5   F: -7.055610436756991   dF: +1.106e-04   |Residual|: 1.670e-01   |deigs|: 3.118e-02  t[s]:     13.97
	FillingsUpdate:  mu: -0.494466018  nElectrons: 3.000000  magneticMoment: [ Abs: 0.19092  Tot: -0.08000 ]
SCF: Cycle:  6   F: -7.060416206645972   dF: -4.806e-03   |Residual|: 3.905e-02   |deigs|: 1.437e-01  t[s]:     15.40
	FillingsUpdate:  mu: -0.423467881  nElectrons: 3.000000  magneticMoment: [ Abs: 0.21791  Tot: -0.08000 ]
SCF: Cycle:  7   F: -7.061513516980902   dF: -1.097e-03   |Residual|: 1.771e-01   |deigs|: 1.171e-01  t[s]:     16.86
	FillingsUpdate:  mu: -0.346089398  nElectrons: 3.000000  magneticMoment: [ Abs: 0.29857  Tot: -0.08000 ]
SCF: Cycle:  8   F: -7.065278846874611   dF: -3.765e-03   |Residual|: 8.406e-02   |deigs|: 7.451e-02  t[s]:     18.35
	FillingsUpdate:  mu: -0.318380989  nElectrons: 3.000000  magneticMoment: [ Abs: 0.36046  Tot: -0.08000 ]
SCF: Cycle:  9   F: -7.064806846584262   dF: +4.720e-04   |Residual|: 1.655e-01   |deigs|: 3.361e-02  t[s]:     19.91
	FillingsUpdate:  mu: -0.280915940  nElectrons: 3.000000  magneticMoment: [ Abs: 0.16639  Tot: -0.08000 ]
SCF: Cycle: 10   F: -7.066263091997890   dF: -1.456e-03   |Residual|: 1.187e-01   |deigs|: 4.386e-02  t[s]:     21.47
	FillingsUpdate:  mu: -0.234500535  nElectrons: 3.000000  magneticMoment: [ Abs: 0.20037  Tot: -0.08000 ]
SCF: Cycle: 11   F: -7.067194241123969   dF: -9.311e-04   |Residual|: 2.808e-02   |deigs|: 9.285e-02  t[s]:     23.05
	FillingsUpdate:  mu: -0.208047596  nElectrons: 3.000000  magneticMoment: [ Abs: 0.13405  Tot: -0.08000 ]
SCF: Cycle: 12   F: -7.067703190903765   dF: -5.089e-04   |Residual|: 1.781e-02   |deigs|: 2.230e-02  t[s]:     24.65
	FillingsUpdate:  mu: -0.168469390  nElectrons: 3.000000  magneticMoment: [ Abs: 0.10560  Tot: -0.08000 ]
SCF: Cycle: 13   F: -7.067906141842696   dF: -2.030e-04   |Residual|: 9.271e-03   |deigs|: 4.029e-02  t[s]:     26.22
	FillingsUpdate:  mu: -0.139721752  nElectrons: 3.000000  magneticMoment: [ Abs: 0.09875  Tot: -0.08000 ]
SCF: Cycle: 14   F: -7.067891965859104   dF: +1.418e-05   |Residual|: 7.950e-03   |deigs|: 2.971e-02  t[s]:     27.79
	FillingsUpdate:  mu: -0.125045748  nElectrons: 3.000000  magneticMoment: [ Abs: 0.09907  Tot: -0.08000 ]
SCF: Cycle: 15   F: -7.067962630787007   dF: -7.066e-05   |Residual|: 6.006e-03   |deigs|: 1.452e-02  t[s]:     29.35
	FillingsUpdate:  mu: -0.116121217  nElectrons: 3.000000  magneticMoment: [ Abs: 0.09196  Tot: -0.08000 ]
SCF: Cycle: 16   F: -7.068093568324512   dF: -1.309e-04   |Residual|: 3.742e-03   |deigs|: 7.960e-03  t[s]:     30.97
	FillingsUpdate:  mu: -0.113143645  nElectrons: 3.000000  magneticMoment: [ Abs: 0.08768  Tot: -0.08000 ]
SCF: Cycle: 17   F: -7.068144439609812   dF: -5.087e-05   |Residual|: 2.319e-03   |deigs|: 3.273e-03  t[s]:     32.60
	FillingsUpdate:  mu: -0.112592645  nElectrons: 3.000000  magneticMoment: [ Abs: 0.08496  Tot: -0.08000 ]
SCF: Cycle: 18   F: -7.068168814804858   dF: -2.438e-05   |Residual|: 1.436e-03   |deigs|: 8.021e-04  t[s]:     34.20
	FillingsUpdate:  mu: -0.112900841  nElectrons: 3.000000  magneticMoment: [ Abs: 0.08293  Tot: -0.08000 ]
SCF: Cycle: 19   F: -7.068176549949107   dF: -7.735e-06   |Residual|: 9.102e-04   |deigs|: 3.606e-04  t[s]:     35.79
	FillingsUpdate:  mu: -0.113109180  nElectrons: 3.000000  magneticMoment: [ Abs: 0.08247  Tot: -0.08000 ]
SCF: Cycle: 20   F: -7.068179694079584   dF: -3.144e-06   |Residual|: 3.692e-04   |deigs|: 3.714e-04  t[s]:     37.34
	FillingsUpdate:  mu: -0.112974581  nElectrons: 3.000000  magneticMoment: [ Abs: 0.08190  Tot: -0.08000 ]
SCF: Cycle: 21   F: -7.068180663947918   dF: -9.699e-07   |Residual|: 2.162e-04   |deigs|: 1.424e-04  t[s]:     38.91
	FillingsUpdate:  mu: -0.112422471  nElectrons: 3.000000  magneticMoment: [ Abs: 0.08165  Tot: -0.08000 ]
SCF: Cycle: 22   F: -7.068181057317919   dF: -3.934e-07   |Residual|: 1.354e-04   |deigs|: 5.770e-04  t[s]:     40.42
	FillingsUpdate:  mu: -0.112133175  nElectrons: 3.000000  magneticMoment: [ Abs: 0.08148  Tot: -0.08000 ]
SCF: Cycle: 23   F: -7.068181201186688   dF: -1.439e-07   |Residual|: 8.433e-05   |deigs|: 3.091e-04  t[s]:     42.07
	FillingsUpdate:  mu: -0.111898081  nElectrons: 3.000000  magneticMoment: [ Abs: 0.08121  Tot: -0.08000 ]
SCF: Cycle: 24   F: -7.068181230512488   dF: -2.933e-08   |Residual|: 6.040e-05   |deigs|: 2.633e-04  t[s]:     43.58
	FillingsUpdate:  mu: -0.111753242  nElectrons: 3.000000  magneticMoment: [ Abs: 0.08099  Tot: -0.08000 ]
SCF: Cycle: 25   F: -7.068181229191895   dF: +1.321e-09   |Residual|: 3.896e-05   |deigs|: 1.508e-04  t[s]:     45.10
	FillingsUpdate:  mu: -0.111709887  nElectrons: 3.000000  magneticMoment: [ Abs: 0.08077  Tot: -0.08000 ]
SCF: Cycle: 26   F: -7.068181233919574   dF: -4.728e-09   |Residual|: 2.964e-05   |deigs|: 6.451e-05  t[s]:     46.66
	FillingsUpdate:  mu: -0.111719275  nElectrons: 3.000000  magneticMoment: [ Abs: 0.08062  Tot: -0.08000 ]
SCF: Cycle: 27   F: -7.068181236025861   dF: -2.106e-09   |Residual|: 2.477e-05   |deigs|: 5.699e-05  t[s]:     48.19
SCF: Converged (|Delta E|<1.000000e-08 for 2 iters).


# Ionic positions in lattice coordinates:
ion Li   0.000000000000000   0.000000000000000   0.000000000000000 0

# Forces in Lattice coordinates:
force Li  -0.000000000000000  -0.000000000000000   0.000000000000000 0

# Energy components:
   Eewald =       -2.0053362333702967
       EH =        1.5276290067021194
     Eloc =       -6.1882655199935268
      Enl =       -3.5905159545600212
   Epulay =        0.0000032255226020
      Exc =       -1.5370014433117021
       KE =        4.7253068136018923
-------------------------------------
     Etot =       -7.0681801054089322
       TS =        0.0000011306169286
-------------------------------------
        F =       -7.0681812360258611

IonicMinimize: Iter:   0  F: -7.068181236025861  |grad|_K:  0.000e+00  t[s]:     48.28
IonicMinimize: Converged (|grad|_K<1.000000e-04).

#--- Lowdin population analysis ---
# oxidation-state Li +2.161
# magnetic-moments Li -0.055

End date and time: Sat Feb  5 22:59:35 2022  (Duration: 0-0:00:48.28)
Done!
