
*************** JDFTx 1.6.0 (git hash 42ebbcc2) ***************

Start date and time: Sat Feb  5 22:53:19 2022
Executable jdftx with command-line: -i Alkali.in
Running on hosts (process indices):  d-16-12-1 (0-18)
Divided in process groups (process indices):  0 (0)  1 (1)  2 (2)  3 (3)  4 (4)  5 (5)  6 (6)  7 (7)  8 (8)  9 (9)  10 (10)  11 (11)  12 (12)  13 (13)  14 (14)  15 (15)  16 (16)  17 (17)  18 (18)
Resource initialization completed at t[s]:      0.00
Run totals: 19 processes, 48 threads, 0 GPUs


Input parsed successfully to the following command list (including defaults):

basis kpoint-dependent
coords-type Lattice
core-overlap-check vector
coulomb-interaction Slab 001
davidson-band-ratio 1.1
dump End None
dump-name $INPUT.$VAR
elec-cutoff 20
elec-eigen-algo Davidson
elec-ex-corr gga-PBE
elec-initial-magnetization -0.180000 yes
elec-smearing Fermi 1e-05
electronic-minimize  \
	dirUpdateScheme      FletcherReeves \
	linminMethod         DirUpdateRecommended \
	nIterations          100 \
	history              15 \
	knormThreshold       0 \
	energyDiffThreshold  1e-08 \
	nEnergyDiff          2 \
	alphaTstart          1 \
	alphaTmin            1e-10 \
	updateTestStepSize   yes \
	alphaTreduceFactor   0.1 \
	alphaTincreaseFactor 3 \
	nAlphaAdjustMax      3 \
	wolfeEnergy          0.0001 \
	wolfeGradient        0.9 \
	fdTest               no
electronic-scf  \
	nIterations	10000 \
	energyDiffThreshold	1e-08 \
	residualThreshold	1e-07 \
	mixFraction	0.5 \
	qMetric	0.8 \
	history	10 \
	nEigSteps	2 \
	eigDiffThreshold	1e-08 \
	mixedVariable	Density \
	qKerker	0.8 \
	qKappa	-1 \
	verbose	no \
	mixFractionMag	1.5
exchange-regularization WignerSeitzTruncated
fluid None
fluid-ex-corr (null) lda-PZ
fluid-gummel-loop 10 1.000000e-05
fluid-minimize  \
	dirUpdateScheme      PolakRibiere \
	linminMethod         DirUpdateRecommended \
	nIterations          100 \
	history              15 \
	knormThreshold       0 \
	energyDiffThreshold  0 \
	nEnergyDiff          2 \
	alphaTstart          1 \
	alphaTmin            1e-10 \
	updateTestStepSize   yes \
	alphaTreduceFactor   0.1 \
	alphaTincreaseFactor 3 \
	nAlphaAdjustMax      3 \
	wolfeEnergy          0.0001 \
	wolfeGradient        0.9 \
	fdTest               no
fluid-solvent H2O 55.338 ScalarEOS \
	epsBulk 78.4 \
	pMol 0.92466 \
	epsInf 1.77 \
	Pvap 1.06736e-10 \
	sigmaBulk 4.62e-05 \
	Rvdw 2.61727 \
	Res 1.42 \
	tauNuc 343133 \
	poleEl 15 7 1
forces-output-coords Positions
ion Li   0.000000000000000   0.000000000000000   0.000000000000000 0
ion-species SG15/$ID_ONCV_PBE.upf
ion-width 0
ionic-minimize  \
	dirUpdateScheme      L-BFGS \
	linminMethod         DirUpdateRecommended \
	nIterations          0 \
	history              15 \
	knormThreshold       0.0001 \
	energyDiffThreshold  1e-06 \
	nEnergyDiff          2 \
	alphaTstart          1 \
	alphaTmin            1e-10 \
	updateTestStepSize   yes \
	alphaTreduceFactor   0.1 \
	alphaTincreaseFactor 3 \
	nAlphaAdjustMax      3 \
	wolfeEnergy          0.0001 \
	wolfeGradient        0.9 \
	fdTest               no
kpoint   0.000000000000   0.000000000000   0.000000000000  1.00000000000000
kpoint-folding 12 12 1 
latt-move-scale 1 1 1
latt-scale 2 2 1 
lattice  \
	   4.727486978767153   -2.363743489383575    0.000000000000000  \
	  -0.000000000000000    4.094123819672498    0.000000000000000  \
	   0.000000000000000    0.000000000000000   40.000000000000000 
lattice-minimize  \
	dirUpdateScheme      L-BFGS \
	linminMethod         DirUpdateRecommended \
	nIterations          0 \
	history              15 \
	knormThreshold       0 \
	energyDiffThreshold  1e-06 \
	nEnergyDiff          2 \
	alphaTstart          1 \
	alphaTmin            1e-10 \
	updateTestStepSize   yes \
	alphaTreduceFactor   0.1 \
	alphaTincreaseFactor 3 \
	nAlphaAdjustMax      3 \
	wolfeEnergy          0.0001 \
	wolfeGradient        0.9 \
	fdTest               no
lcao-params -1 1e-06 1e-05
pcm-variant GLSSA13
spintype z-spin
subspace-rotation-factor 1 yes
symmetries automatic
symmetry-threshold 0.0001



---------- Setting up symmetries ----------

Found 24 point-group symmetries of the bravais lattice
Found 24 space-group symmetries with basis
Applied RMS atom displacement 0 bohrs to make symmetries exact.

---------- Initializing the Grid ----------
R = 
[      9.45497     -4.72749            0  ]
[            0      8.18825            0  ]
[            0            0           40  ]
unit cell volume = 3096.79
G =
[   0.664538   0.383671         -0  ]
[          0   0.767342         -0  ]
[         -0         -0    0.15708  ]
Minimum fftbox size, Smin = [  40  40  164  ]
Chosen fftbox size, S = [  40  40  168  ]

---------- Exchange Correlation functional ----------
Initalized PBE GGA exchange.
Initalized PBE GGA correlation.

---------- Setting up pseudopotentials ----------
Width of ionic core gaussian charges (only for fluid interactions / plotting) set to 0

Reading pseudopotential file '/home/gridsan/aligho/DFT/build-Nov24/pseudopotentials/SG15/Li_ONCV_PBE.upf':
  'Li' pseudopotential, 'PBE' functional
  Generated using ONCVPSP code by D. R. Hamann
  Author: Martin Schlipf and Francois Gygi  Date: 150915.
  3 valence electrons, 2 orbitals, 4 projectors, 1328 radial grid points, with lMax = 1
  Transforming local potential to a uniform radial grid of dG=0.02 with 1489 points.
  Transforming nonlocal projectors to a uniform radial grid of dG=0.02 with 432 points.
    1S    l: 0   occupation:  2.0   eigenvalue: -1.905623
    2S    l: 0   occupation:  1.0   eigenvalue: -0.105624
  Transforming atomic orbitals to a uniform radial grid of dG=0.02 with 432 points.
  WARNING: large normalization error in atomic orbital 1s (integral: 0.000000).
  Core radius for overlap checks: 1.63 bohrs.
  Reading pulay file /home/gridsan/aligho/DFT/build-Nov24/pseudopotentials/SG15/Li_ONCV_PBE.pulay ... using dE_dnG = -1.230239e-02 computed for Ecut = 20.

Initialized 1 species with 1 total atoms.

Folded 1 k-points by 12x12x1 to 144 k-points.

---------- Setting up k-points, bands, fillings ----------
Reduced to 19 k-points under symmetry. 
Computing the number of bands and number of electrons
Calculating initial fillings.
nElectrons:   3.000000   nBands: 3   nStates: 38

----- Setting up reduced wavefunction bases (one per k-point) -----
average nbasis = 13230.521 , ideal nbasis = 13229.709

---------- Setting up coulomb interaction ----------
Initialized slab truncation along lattice direction 001

---------- Setting up 2D ewald sum ----------
Optimum gaussian width for ewald sums = 5.249020 bohr.
Real space sums over 289 unit cells with max indices [  8  8  0  ]
Reciprocal space sums over 81 terms with max indices [  4  4  0  ]

---------- Allocating electronic variables ----------
Initializing wave functions:  linear combination of atomic orbitals
Note: number of bands (3) exceeds available atomic orbitals (2)
Li pseudo-atom occupations:   s ( 2 1 )
	FillingsUpdate:  mu: +0.324800438  nElectrons: 3.000000  magneticMoment: [ Abs: 0.18689  Tot: -0.18000 ]
LCAOMinimize: Iter:   0  F: -1.1815719465533683  |grad|_K:  7.586e-05  alpha:  1.000e+00
	FillingsUpdate:  mu: +0.324798683  nElectrons: 3.000000  magneticMoment: [ Abs: 0.18689  Tot: -0.18000 ]
LCAOMinimize: Iter:   1  F: -1.1815729727836342  |grad|_K:  1.886e-06  alpha:  1.043e+00  linmin: -1.893e-03  cgtest:  2.978e-02  t[s]:      4.02
LCAOMinimize: Encountered beta<0, resetting CG.
	FillingsUpdate:  mu: +0.324798672  nElectrons: 3.000000  magneticMoment: [ Abs: 0.18689  Tot: -0.18000 ]
LCAOMinimize: Iter:   2  F: -1.1815729734029374  |grad|_K:  5.324e-08  alpha:  1.019e+00  linmin:  2.390e-03  cgtest: -6.459e-02  t[s]:      5.12
LCAOMinimize: 	Step increased F by 5.175860e-13, reducing alpha to 1.691923e-02.
	FillingsUpdate:  mu: +0.324798672  nElectrons: 3.000000  magneticMoment: [ Abs: 0.18689  Tot: -0.18000 ]
LCAOMinimize: Iter:   3  F: -1.1815729734048255  |grad|_K:  5.239e-08  alpha:  1.692e-02  linmin: -6.252e-02  cgtest:  1.000e+00  t[s]:      6.76
LCAOMinimize: Encountered beta<0, resetting CG.
LCAOMinimize: Converged (|Delta F|<1.000000e-06 for 2 iters).


---- Citations for features of the code used in this run ----

   Software package:
      R. Sundararaman, K. Letchworth-Weaver, K.A. Schwarz, D. Gunceler, Y. Ozhabes and T.A. Arias, 'JDFTx: software for joint density-functional theory', SoftwareX 6, 278 (2017)

   gga-PBE exchange-correlation functional:
      J.P. Perdew, K. Burke and M. Ernzerhof, Phys. Rev. Lett. 77, 3865 (1996)

   Pseudopotentials:
      M Schlipf and F Gygi, Comput. Phys. Commun. 196, 36 (2015)

   Truncated Coulomb potentials:
      R. Sundararaman and T.A. Arias, Phys. Rev. B 87, 165122 (2013)

This list may not be complete. Please suggest additional citations or
report any other bugs at https://github.com/shankar1729/jdftx/issues

Initialization completed successfully at t[s]:      6.83


-------- Electronic minimization -----------
Will mix electronic density at each iteration.
	FillingsUpdate:  mu: +0.324798672  nElectrons: 3.000000  magneticMoment: [ Abs: 0.18689  Tot: -0.18000 ]
	FillingsUpdate:  mu: -0.972612433  nElectrons: 3.000000  magneticMoment: [ Abs: 0.18689  Tot: -0.18000 ]
SCF: Cycle:  0   F: -6.830831473931582   dF: -5.649e+00   |Residual|: 1.172e+00   |deigs|: 4.171e+00  t[s]:      8.68
	FillingsUpdate:  mu: -0.859730168  nElectrons: 3.000000  magneticMoment: [ Abs: 0.27193  Tot: -0.18000 ]
SCF: Cycle:  1   F: -6.936905093358940   dF: -1.061e-01   |Residual|: 7.732e-01   |deigs|: 2.339e-01  t[s]:     10.02
	FillingsUpdate:  mu: -0.618003195  nElectrons: 3.000000  magneticMoment: [ Abs: 0.34892  Tot: -0.18000 ]
SCF: Cycle:  2   F: -7.050980069694881   dF: -1.141e-01   |Residual|: 4.201e-01   |deigs|: 7.836e-01  t[s]:     11.38
	FillingsUpdate:  mu: -0.654241093  nElectrons: 3.000000  magneticMoment: [ Abs: 0.30370  Tot: -0.18000 ]
SCF: Cycle:  3   F: -7.058128163205969   dF: -7.148e-03   |Residual|: 2.108e-01   |deigs|: 1.266e-01  t[s]:     12.75
	FillingsUpdate:  mu: -0.620958534  nElectrons: 3.000000  magneticMoment: [ Abs: 0.31760  Tot: -0.18000 ]
SCF: Cycle:  4   F: -7.056880473233268   dF: +1.248e-03   |Residual|: 5.037e-02   |deigs|: 3.676e-02  t[s]:     14.13
	FillingsUpdate:  mu: -0.580213917  nElectrons: 3.000000  magneticMoment: [ Abs: 0.25427  Tot: -0.18000 ]
SCF: Cycle:  5   F: -7.055429264792537   dF: +1.451e-03   |Residual|: 1.820e-01   |deigs|: 3.283e-02  t[s]:     15.64
	FillingsUpdate:  mu: -0.499166844  nElectrons: 3.000000  magneticMoment: [ Abs: 0.30554  Tot: -0.18000 ]
SCF: Cycle:  6   F: -7.060374649711292   dF: -4.945e-03   |Residual|: 3.481e-02   |deigs|: 1.347e-01  t[s]:     17.09
	FillingsUpdate:  mu: -0.419381630  nElectrons: 3.000000  magneticMoment: [ Abs: 0.36325  Tot: -0.18000 ]
SCF: Cycle:  7   F: -7.061546598401192   dF: -1.172e-03   |Residual|: 1.701e-01   |deigs|: 1.340e-01  t[s]:     18.59
	FillingsUpdate:  mu: -0.378643253  nElectrons: 3.000000  magneticMoment: [ Abs: 0.33152  Tot: -0.18000 ]
SCF: Cycle:  8   F: -7.064633931294746   dF: -3.087e-03   |Residual|: 2.770e-02   |deigs|: 5.034e-02  t[s]:     20.09
	FillingsUpdate:  mu: -0.333332053  nElectrons: 3.000000  magneticMoment: [ Abs: 0.58587  Tot: -0.18000 ]
SCF: Cycle:  9   F: -7.063638701407808   dF: +9.952e-04   |Residual|: 1.499e-01   |deigs|: 5.030e-02  t[s]:     21.64
	FillingsUpdate:  mu: -0.299280240  nElectrons: 3.000000  magneticMoment: [ Abs: 0.34950  Tot: -0.18000 ]
SCF: Cycle: 10   F: -7.064717799675896   dF: -1.079e-03   |Residual|: 1.804e-01   |deigs|: 2.774e-02  t[s]:     23.23
	FillingsUpdate:  mu: -0.250902778  nElectrons: 3.000000  magneticMoment: [ Abs: 0.25492  Tot: -0.18000 ]
SCF: Cycle: 11   F: -7.067281067101147   dF: -2.563e-03   |Residual|: 1.503e-02   |deigs|: 1.046e-01  t[s]:     24.78
	FillingsUpdate:  mu: -0.214263799  nElectrons: 3.000000  magneticMoment: [ Abs: 0.26389  Tot: -0.18000 ]
SCF: Cycle: 12   F: -7.067580239272296   dF: -2.992e-04   |Residual|: 2.117e-02   |deigs|: 3.816e-02  t[s]:     26.34
	FillingsUpdate:  mu: -0.183818163  nElectrons: 3.000000  magneticMoment: [ Abs: 0.23028  Tot: -0.18000 ]
SCF: Cycle: 13   F: -7.067825542579992   dF: -2.453e-04   |Residual|: 1.106e-02   |deigs|: 2.977e-02  t[s]:     27.92
	FillingsUpdate:  mu: -0.144974960  nElectrons: 3.000000  magneticMoment: [ Abs: 0.21663  Tot: -0.18000 ]
SCF: Cycle: 14   F: -7.067878071700798   dF: -5.253e-05   |Residual|: 8.714e-03   |deigs|: 4.008e-02  t[s]:     29.47
	FillingsUpdate:  mu: -0.130408566  nElectrons: 3.000000  magneticMoment: [ Abs: 0.21585  Tot: -0.18000 ]
SCF: Cycle: 15   F: -7.067920426790319   dF: -4.236e-05   |Residual|: 6.442e-03   |deigs|: 1.478e-02  t[s]:     31.08
	FillingsUpdate:  mu: -0.119970305  nElectrons: 3.000000  magneticMoment: [ Abs: 0.20081  Tot: -0.18000 ]
SCF: Cycle: 16   F: -7.068042104506579   dF: -1.217e-04   |Residual|: 4.165e-03   |deigs|: 9.325e-03  t[s]:     32.76
	FillingsUpdate:  mu: -0.117013299  nElectrons: 3.000000  magneticMoment: [ Abs: 0.19342  Tot: -0.18000 ]
SCF: Cycle: 17   F: -7.068092349611369   dF: -5.025e-05   |Residual|: 2.581e-03   |deigs|: 2.280e-03  t[s]:     34.32
	FillingsUpdate:  mu: -0.117010209  nElectrons: 3.000000  magneticMoment: [ Abs: 0.18917  Tot: -0.18000 ]
SCF: Cycle: 18   F: -7.068129244920241   dF: -3.690e-05   |Residual|: 1.636e-03   |deigs|: 4.332e-04  t[s]:     35.92
	FillingsUpdate:  mu: -0.117535415  nElectrons: 3.000000  magneticMoment: [ Abs: 0.18657  Tot: -0.18000 ]
SCF: Cycle: 19   F: -7.068148425748620   dF: -1.918e-05   |Residual|: 8.849e-04   |deigs|: 6.388e-04  t[s]:     37.45
	FillingsUpdate:  mu: -0.116727572  nElectrons: 3.000000  magneticMoment: [ Abs: 0.18596  Tot: -0.18000 ]
SCF: Cycle: 20   F: -7.068153593558493   dF: -5.168e-06   |Residual|: 5.295e-04   |deigs|: 9.544e-04  t[s]:     38.95
	FillingsUpdate:  mu: -0.115843235  nElectrons: 3.000000  magneticMoment: [ Abs: 0.18487  Tot: -0.18000 ]
SCF: Cycle: 21   F: -7.068156282667414   dF: -2.689e-06   |Residual|: 3.066e-04   |deigs|: 9.426e-04  t[s]:     40.57
	FillingsUpdate:  mu: -0.115254525  nElectrons: 3.000000  magneticMoment: [ Abs: 0.18405  Tot: -0.18000 ]
SCF: Cycle: 22   F: -7.068157007422654   dF: -7.248e-07   |Residual|: 2.488e-04   |deigs|: 6.008e-04  t[s]:     42.14
	FillingsUpdate:  mu: -0.114530473  nElectrons: 3.000000  magneticMoment: [ Abs: 0.18308  Tot: -0.18000 ]
SCF: Cycle: 23   F: -7.068157596727107   dF: -5.893e-07   |Residual|: 1.783e-04   |deigs|: 7.212e-04  t[s]:     43.80
	FillingsUpdate:  mu: -0.114043137  nElectrons: 3.000000  magneticMoment: [ Abs: 0.18233  Tot: -0.18000 ]
SCF: Cycle: 24   F: -7.068157651731840   dF: -5.500e-08   |Residual|: 1.240e-04   |deigs|: 4.911e-04  t[s]:     45.33
	FillingsUpdate:  mu: -0.113826846  nElectrons: 3.000000  magneticMoment: [ Abs: 0.18201  Tot: -0.18000 ]
SCF: Cycle: 25   F: -7.068157751704764   dF: -9.997e-08   |Residual|: 8.887e-05   |deigs|: 2.216e-04  t[s]:     46.91
	FillingsUpdate:  mu: -0.113811706  nElectrons: 3.000000  magneticMoment: [ Abs: 0.18159  Tot: -0.18000 ]
SCF: Cycle: 26   F: -7.068157760244262   dF: -8.539e-09   |Residual|: 6.591e-05   |deigs|: 3.728e-05  t[s]:     48.52
	FillingsUpdate:  mu: -0.113877574  nElectrons: 3.000000  magneticMoment: [ Abs: 0.18118  Tot: -0.18000 ]
SCF: Cycle: 27   F: -7.068157743092484   dF: +1.715e-08   |Residual|: 5.575e-05   |deigs|: 7.925e-05  t[s]:     50.06
	FillingsUpdate:  mu: -0.113971243  nElectrons: 3.000000  magneticMoment: [ Abs: 0.18073  Tot: -0.18000 ]
SCF: Cycle: 28   F: -7.068157763790896   dF: -2.070e-08   |Residual|: 4.953e-05   |deigs|: 1.198e-04  t[s]:     51.58
	FillingsUpdate:  mu: -0.114102015  nElectrons: 3.000000  magneticMoment: [ Abs: 0.18032  Tot: -0.18000 ]
SCF: Cycle: 29   F: -7.068157793203203   dF: -2.941e-08   |Residual|: 4.360e-05   |deigs|: 1.599e-04  t[s]:     53.20
	FillingsUpdate:  mu: -0.114160951  nElectrons: 3.000000  magneticMoment: [ Abs: 0.18016  Tot: -0.18000 ]
SCF: Cycle: 30   F: -7.068157811053090   dF: -1.785e-08   |Residual|: 3.555e-05   |deigs|: 8.393e-05  t[s]:     54.76
	FillingsUpdate:  mu: -0.114208061  nElectrons: 3.000000  magneticMoment: [ Abs: 0.18001  Tot: -0.18000 ]
SCF: Cycle: 31   F: -7.068157827087519   dF: -1.603e-08   |Residual|: 1.911e-05   |deigs|: 7.611e-05  t[s]:     56.30
	FillingsUpdate:  mu: -0.114217072  nElectrons: 3.000000  magneticMoment: [ Abs: 0.18000  Tot: -0.18000 ]
SCF: Cycle: 32   F: -7.068157833635792   dF: -6.548e-09   |Residual|: 1.365e-05   |deigs|: 6.754e-05  t[s]:     57.87
	FillingsUpdate:  mu: -0.114214973  nElectrons: 3.000000  magneticMoment: [ Abs: 0.18000  Tot: -0.18000 ]
SCF: Cycle: 33   F: -7.068157836100853   dF: -2.465e-09   |Residual|: 1.053e-05   |deigs|: 7.038e-05  t[s]:     59.40
SCF: Converged (|Delta E|<1.000000e-08 for 2 iters).


# Ionic positions in lattice coordinates:
ion Li   0.000000000000000   0.000000000000000   0.000000000000000 0

# Forces in Lattice coordinates:
force Li   0.000000000000000   0.000000000000000   0.000000000000000 0

# Energy components:
   Eewald =       -2.0053362333702967
       EH =        1.5281290179762759
     Eloc =       -6.1888266678657002
      Enl =       -3.5905043066973992
   Epulay =        0.0000032255226020
      Exc =       -1.5372889521149182
       KE =        4.7256663623125856
-------------------------------------
     Etot =       -7.0681575542368495
       TS =        0.0000002818640035
-------------------------------------
        F =       -7.0681578361008528

IonicMinimize: Iter:   0  F: -7.068157836100853  |grad|_K:  0.000e+00  t[s]:     59.47
IonicMinimize: Converged (|grad|_K<1.000000e-04).

#--- Lowdin population analysis ---
# oxidation-state Li +2.163
# magnetic-moments Li -0.125

End date and time: Sat Feb  5 22:54:18 2022  (Duration: 0-0:00:59.48)
Done!
