
*************** JDFTx 1.6.0 (git hash 42ebbcc2) ***************

Start date and time: Sat Feb  5 22:45:58 2022
Executable jdftx with command-line: -i Alkali.in
Running on hosts (process indices):  d-16-12-1 (0-18)
Divided in process groups (process indices):  0 (0)  1 (1)  2 (2)  3 (3)  4 (4)  5 (5)  6 (6)  7 (7)  8 (8)  9 (9)  10 (10)  11 (11)  12 (12)  13 (13)  14 (14)  15 (15)  16 (16)  17 (17)  18 (18)
Resource initialization completed at t[s]:      0.00
Run totals: 19 processes, 48 threads, 0 GPUs


Input parsed successfully to the following command list (including defaults):

basis kpoint-dependent
coords-type Lattice
core-overlap-check vector
coulomb-interaction Slab 001
davidson-band-ratio 1.1
dump End None
dump-name $INPUT.$VAR
elec-cutoff 20
elec-eigen-algo Davidson
elec-ex-corr gga-PBE
elec-initial-magnetization -0.600000 yes
elec-smearing Fermi 1e-05
electronic-minimize  \
	dirUpdateScheme      FletcherReeves \
	linminMethod         DirUpdateRecommended \
	nIterations          100 \
	history              15 \
	knormThreshold       0 \
	energyDiffThreshold  1e-08 \
	nEnergyDiff          2 \
	alphaTstart          1 \
	alphaTmin            1e-10 \
	updateTestStepSize   yes \
	alphaTreduceFactor   0.1 \
	alphaTincreaseFactor 3 \
	nAlphaAdjustMax      3 \
	wolfeEnergy          0.0001 \
	wolfeGradient        0.9 \
	fdTest               no
electronic-scf  \
	nIterations	10000 \
	energyDiffThreshold	1e-08 \
	residualThreshold	1e-07 \
	mixFraction	0.5 \
	qMetric	0.8 \
	history	10 \
	nEigSteps	2 \
	eigDiffThreshold	1e-08 \
	mixedVariable	Density \
	qKerker	0.8 \
	qKappa	-1 \
	verbose	no \
	mixFractionMag	1.5
exchange-regularization WignerSeitzTruncated
fluid None
fluid-ex-corr (null) lda-PZ
fluid-gummel-loop 10 1.000000e-05
fluid-minimize  \
	dirUpdateScheme      PolakRibiere \
	linminMethod         DirUpdateRecommended \
	nIterations          100 \
	history              15 \
	knormThreshold       0 \
	energyDiffThreshold  0 \
	nEnergyDiff          2 \
	alphaTstart          1 \
	alphaTmin            1e-10 \
	updateTestStepSize   yes \
	alphaTreduceFactor   0.1 \
	alphaTincreaseFactor 3 \
	nAlphaAdjustMax      3 \
	wolfeEnergy          0.0001 \
	wolfeGradient        0.9 \
	fdTest               no
fluid-solvent H2O 55.338 ScalarEOS \
	epsBulk 78.4 \
	pMol 0.92466 \
	epsInf 1.77 \
	Pvap 1.06736e-10 \
	sigmaBulk 4.62e-05 \
	Rvdw 2.61727 \
	Res 1.42 \
	tauNuc 343133 \
	poleEl 15 7 1
forces-output-coords Positions
ion Li   0.000000000000000   0.000000000000000   0.000000000000000 0
ion-species SG15/$ID_ONCV_PBE.upf
ion-width 0
ionic-minimize  \
	dirUpdateScheme      L-BFGS \
	linminMethod         DirUpdateRecommended \
	nIterations          0 \
	history              15 \
	knormThreshold       0.0001 \
	energyDiffThreshold  1e-06 \
	nEnergyDiff          2 \
	alphaTstart          1 \
	alphaTmin            1e-10 \
	updateTestStepSize   yes \
	alphaTreduceFactor   0.1 \
	alphaTincreaseFactor 3 \
	nAlphaAdjustMax      3 \
	wolfeEnergy          0.0001 \
	wolfeGradient        0.9 \
	fdTest               no
kpoint   0.000000000000   0.000000000000   0.000000000000  1.00000000000000
kpoint-folding 12 12 1 
latt-move-scale 1 1 1
latt-scale 2 2 1 
lattice  \
	   4.727486978767153   -2.363743489383575    0.000000000000000  \
	  -0.000000000000000    4.094123819672498    0.000000000000000  \
	   0.000000000000000    0.000000000000000   40.000000000000000 
lattice-minimize  \
	dirUpdateScheme      L-BFGS \
	linminMethod         DirUpdateRecommended \
	nIterations          0 \
	history              15 \
	knormThreshold       0 \
	energyDiffThreshold  1e-06 \
	nEnergyDiff          2 \
	alphaTstart          1 \
	alphaTmin            1e-10 \
	updateTestStepSize   yes \
	alphaTreduceFactor   0.1 \
	alphaTincreaseFactor 3 \
	nAlphaAdjustMax      3 \
	wolfeEnergy          0.0001 \
	wolfeGradient        0.9 \
	fdTest               no
lcao-params -1 1e-06 1e-05
pcm-variant GLSSA13
spintype z-spin
subspace-rotation-factor 1 yes
symmetries automatic
symmetry-threshold 0.0001



---------- Setting up symmetries ----------

Found 24 point-group symmetries of the bravais lattice
Found 24 space-group symmetries with basis
Applied RMS atom displacement 0 bohrs to make symmetries exact.

---------- Initializing the Grid ----------
R = 
[      9.45497     -4.72749            0  ]
[            0      8.18825            0  ]
[            0            0           40  ]
unit cell volume = 3096.79
G =
[   0.664538   0.383671         -0  ]
[          0   0.767342         -0  ]
[         -0         -0    0.15708  ]
Minimum fftbox size, Smin = [  40  40  164  ]
Chosen fftbox size, S = [  40  40  168  ]

---------- Exchange Correlation functional ----------
Initalized PBE GGA exchange.
Initalized PBE GGA correlation.

---------- Setting up pseudopotentials ----------
Width of ionic core gaussian charges (only for fluid interactions / plotting) set to 0

Reading pseudopotential file '/home/gridsan/aligho/DFT/build-Nov24/pseudopotentials/SG15/Li_ONCV_PBE.upf':
  'Li' pseudopotential, 'PBE' functional
  Generated using ONCVPSP code by D. R. Hamann
  Author: Martin Schlipf and Francois Gygi  Date: 150915.
  3 valence electrons, 2 orbitals, 4 projectors, 1328 radial grid points, with lMax = 1
  Transforming local potential to a uniform radial grid of dG=0.02 with 1489 points.
  Transforming nonlocal projectors to a uniform radial grid of dG=0.02 with 432 points.
    1S    l: 0   occupation:  2.0   eigenvalue: -1.905623
    2S    l: 0   occupation:  1.0   eigenvalue: -0.105624
  Transforming atomic orbitals to a uniform radial grid of dG=0.02 with 432 points.
  WARNING: large normalization error in atomic orbital 1s (integral: 0.000000).
  Core radius for overlap checks: 1.63 bohrs.
  Reading pulay file /home/gridsan/aligho/DFT/build-Nov24/pseudopotentials/SG15/Li_ONCV_PBE.pulay ... using dE_dnG = -1.230239e-02 computed for Ecut = 20.

Initialized 1 species with 1 total atoms.

Folded 1 k-points by 12x12x1 to 144 k-points.

---------- Setting up k-points, bands, fillings ----------
Reduced to 19 k-points under symmetry. 
Computing the number of bands and number of electrons
Calculating initial fillings.
nElectrons:   3.000000   nBands: 3   nStates: 38

----- Setting up reduced wavefunction bases (one per k-point) -----
average nbasis = 13230.521 , ideal nbasis = 13229.709

---------- Setting up coulomb interaction ----------
Initialized slab truncation along lattice direction 001

---------- Setting up 2D ewald sum ----------
Optimum gaussian width for ewald sums = 5.249020 bohr.
Real space sums over 289 unit cells with max indices [  8  8  0  ]
Reciprocal space sums over 81 terms with max indices [  4  4  0  ]

---------- Allocating electronic variables ----------
Initializing wave functions:  linear combination of atomic orbitals
Note: number of bands (3) exceeds available atomic orbitals (2)
Li pseudo-atom occupations:   s ( 2 1 )
	FillingsUpdate:  mu: +0.334671015  nElectrons: 3.000000  magneticMoment: [ Abs: 0.60000  Tot: -0.60000 ]
LCAOMinimize: Iter:   0  F: -1.1803739340866835  |grad|_K:  6.913e-05  alpha:  1.000e+00
	FillingsUpdate:  mu: +0.334670283  nElectrons: 3.000000  magneticMoment: [ Abs: 0.60000  Tot: -0.60000 ]
LCAOMinimize: Iter:   1  F: -1.1803747897071355  |grad|_K:  1.727e-06  alpha:  1.047e+00  linmin: -1.989e-03  cgtest:  2.590e-02  t[s]:      3.99
LCAOMinimize: Encountered beta<0, resetting CG.
	FillingsUpdate:  mu: +0.334670283  nElectrons: 3.000000  magneticMoment: [ Abs: 0.60000  Tot: -0.60000 ]
LCAOMinimize: Iter:   2  F: -1.1803747902299646  |grad|_K:  6.485e-08  alpha:  1.023e+00  linmin: -5.879e-04  cgtest:  1.449e-02  t[s]:      5.03
LCAOMinimize: Converged (|Delta F|<1.000000e-06 for 2 iters).


---- Citations for features of the code used in this run ----

   Software package:
      R. Sundararaman, K. Letchworth-Weaver, K.A. Schwarz, D. Gunceler, Y. Ozhabes and T.A. Arias, 'JDFTx: software for joint density-functional theory', SoftwareX 6, 278 (2017)

   gga-PBE exchange-correlation functional:
      J.P. Perdew, K. Burke and M. Ernzerhof, Phys. Rev. Lett. 77, 3865 (1996)

   Pseudopotentials:
      M Schlipf and F Gygi, Comput. Phys. Commun. 196, 36 (2015)

   Truncated Coulomb potentials:
      R. Sundararaman and T.A. Arias, Phys. Rev. B 87, 165122 (2013)

This list may not be complete. Please suggest additional citations or
report any other bugs at https://github.com/shankar1729/jdftx/issues

Initialization completed successfully at t[s]:      5.10


-------- Electronic minimization -----------
Will mix electronic density at each iteration.
	FillingsUpdate:  mu: +0.334670283  nElectrons: 3.000000  magneticMoment: [ Abs: 0.60000  Tot: -0.60000 ]
	FillingsUpdate:  mu: -0.971190305  nElectrons: 3.000000  magneticMoment: [ Abs: 0.60000  Tot: -0.60000 ]
SCF: Cycle:  0   F: -6.839372014065806   dF: -5.659e+00   |Residual|: 1.174e+00   |deigs|: 4.172e+00  t[s]:      6.86
	FillingsUpdate:  mu: -0.851776287  nElectrons: 3.000000  magneticMoment: [ Abs: 0.91311  Tot: -0.60000 ]
SCF: Cycle:  1   F: -6.935569848502530   dF: -9.620e-02   |Residual|: 7.755e-01   |deigs|: 2.372e-01  t[s]:      8.18
	FillingsUpdate:  mu: -0.652057416  nElectrons: 3.000000  magneticMoment: [ Abs: 1.18724  Tot: -0.60000 ]
SCF: Cycle:  2   F: -7.046996363479784   dF: -1.114e-01   |Residual|: 4.201e-01   |deigs|: 7.724e-01  t[s]:      9.55
	FillingsUpdate:  mu: -0.665091390  nElectrons: 3.000000  magneticMoment: [ Abs: 0.98815  Tot: -0.60000 ]
SCF: Cycle:  3   F: -7.054429103547563   dF: -7.433e-03   |Residual|: 1.994e-01   |deigs|: 1.257e-01  t[s]:     10.94
	FillingsUpdate:  mu: -0.616185949  nElectrons: 3.000000  magneticMoment: [ Abs: 0.76542  Tot: -0.60000 ]
SCF: Cycle:  4   F: -7.053912638709976   dF: +5.165e-04   |Residual|: 3.961e-02   |deigs|: 3.907e-02  t[s]:     12.36
	FillingsUpdate:  mu: -0.594685254  nElectrons: 3.000000  magneticMoment: [ Abs: 0.74204  Tot: -0.60000 ]
SCF: Cycle:  5   F: -7.054101768899594   dF: -1.891e-04   |Residual|: 8.545e-02   |deigs|: 1.713e-02  t[s]:     13.78
	FillingsUpdate:  mu: -0.467208570  nElectrons: 3.000000  magneticMoment: [ Abs: 0.83472  Tot: -0.60000 ]
SCF: Cycle:  6   F: -7.058046055310045   dF: -3.944e-03   |Residual|: 9.518e-02   |deigs|: 1.479e-01  t[s]:     15.23
	FillingsUpdate:  mu: -0.441708368  nElectrons: 3.000000  magneticMoment: [ Abs: 0.78032  Tot: -0.60000 ]
SCF: Cycle:  7   F: -7.058878708220966   dF: -8.327e-04   |Residual|: 5.307e-02   |deigs|: 5.935e-02  t[s]:     16.79
	FillingsUpdate:  mu: -0.405400193  nElectrons: 3.000000  magneticMoment: [ Abs: 0.74217  Tot: -0.60000 ]
SCF: Cycle:  8   F: -7.060582979256425   dF: -1.704e-03   |Residual|: 6.718e-02   |deigs|: 3.681e-02  t[s]:     18.28
	FillingsUpdate:  mu: -0.359698494  nElectrons: 3.000000  magneticMoment: [ Abs: 0.71822  Tot: -0.60000 ]
SCF: Cycle:  9   F: -7.062609509768459   dF: -2.027e-03   |Residual|: 2.149e-02   |deigs|: 3.639e-02  t[s]:     19.87
	FillingsUpdate:  mu: -0.325235300  nElectrons: 3.000000  magneticMoment: [ Abs: 0.71923  Tot: -0.60000 ]
SCF: Cycle: 10   F: -7.063473078202654   dF: -8.636e-04   |Residual|: 2.489e-02   |deigs|: 3.031e-02  t[s]:     21.41
	FillingsUpdate:  mu: -0.280865202  nElectrons: 3.000000  magneticMoment: [ Abs: 0.76353  Tot: -0.60000 ]
SCF: Cycle: 11   F: -7.063983267358596   dF: -5.102e-04   |Residual|: 1.855e-02   |deigs|: 4.737e-02  t[s]:     23.12
	FillingsUpdate:  mu: -0.239666564  nElectrons: 3.000000  magneticMoment: [ Abs: 0.76891  Tot: -0.60000 ]
SCF: Cycle: 12   F: -7.064298941546935   dF: -3.157e-04   |Residual|: 1.276e-02   |deigs|: 4.398e-02  t[s]:     24.71
	FillingsUpdate:  mu: -0.198833436  nElectrons: 3.000000  magneticMoment: [ Abs: 0.74437  Tot: -0.60000 ]
SCF: Cycle: 13   F: -7.064609938250408   dF: -3.110e-04   |Residual|: 1.179e-02   |deigs|: 4.135e-02  t[s]:     26.40
	FillingsUpdate:  mu: -0.167489680  nElectrons: 3.000000  magneticMoment: [ Abs: 0.70631  Tot: -0.60000 ]
SCF: Cycle: 14   F: -7.064722487373132   dF: -1.125e-04   |Residual|: 9.201e-03   |deigs|: 3.064e-02  t[s]:     27.92
	FillingsUpdate:  mu: -0.140554708  nElectrons: 3.000000  magneticMoment: [ Abs: 0.67571  Tot: -0.60000 ]
SCF: Cycle: 15   F: -7.064679594785036   dF: +4.289e-05   |Residual|: 7.317e-03   |deigs|: 2.712e-02  t[s]:     29.45
	FillingsUpdate:  mu: -0.120770467  nElectrons: 3.000000  magneticMoment: [ Abs: 0.66450  Tot: -0.60000 ]
SCF: Cycle: 16   F: -7.064919657614261   dF: -2.401e-04   |Residual|: 5.266e-03   |deigs|: 2.093e-02  t[s]:     31.02
	FillingsUpdate:  mu: -0.116755584  nElectrons: 3.000000  magneticMoment: [ Abs: 0.63963  Tot: -0.60000 ]
SCF: Cycle: 17   F: -7.065036014729670   dF: -1.164e-04   |Residual|: 3.263e-03   |deigs|: 4.305e-03  t[s]:     32.65
	FillingsUpdate:  mu: -0.114922571  nElectrons: 3.000000  magneticMoment: [ Abs: 0.62492  Tot: -0.60000 ]
SCF: Cycle: 18   F: -7.065098725084756   dF: -6.271e-05   |Residual|: 2.290e-03   |deigs|: 1.844e-03  t[s]:     34.26
	FillingsUpdate:  mu: -0.114132134  nElectrons: 3.000000  magneticMoment: [ Abs: 0.61707  Tot: -0.60000 ]
SCF: Cycle: 19   F: -7.065127977946478   dF: -2.925e-05   |Residual|: 1.571e-03   |deigs|: 1.264e-03  t[s]:     35.78
	FillingsUpdate:  mu: -0.113193732  nElectrons: 3.000000  magneticMoment: [ Abs: 0.61312  Tot: -0.60000 ]
SCF: Cycle: 20   F: -7.065146390281399   dF: -1.841e-05   |Residual|: 9.729e-04   |deigs|: 9.257e-04  t[s]:     37.38
	FillingsUpdate:  mu: -0.111738307  nElectrons: 3.000000  magneticMoment: [ Abs: 0.61070  Tot: -0.60000 ]
SCF: Cycle: 21   F: -7.065151413816850   dF: -5.024e-06   |Residual|: 6.015e-04   |deigs|: 1.469e-03  t[s]:     38.95
	FillingsUpdate:  mu: -0.111006126  nElectrons: 3.000000  magneticMoment: [ Abs: 0.60960  Tot: -0.60000 ]
SCF: Cycle: 22   F: -7.065153765218509   dF: -2.351e-06   |Residual|: 4.986e-04   |deigs|: 7.705e-04  t[s]:     40.55
	FillingsUpdate:  mu: -0.110020676  nElectrons: 3.000000  magneticMoment: [ Abs: 0.60801  Tot: -0.60000 ]
SCF: Cycle: 23   F: -7.065154484295553   dF: -7.191e-07   |Residual|: 3.864e-04   |deigs|: 1.092e-03  t[s]:     42.17
	FillingsUpdate:  mu: -0.109268488  nElectrons: 3.000000  magneticMoment: [ Abs: 0.60574  Tot: -0.60000 ]
SCF: Cycle: 24   F: -7.065155241131677   dF: -7.568e-07   |Residual|: 2.845e-04   |deigs|: 8.570e-04  t[s]:     43.73
	FillingsUpdate:  mu: -0.109213233  nElectrons: 3.000000  magneticMoment: [ Abs: 0.60448  Tot: -0.60000 ]
SCF: Cycle: 25   F: -7.065155501134425   dF: -2.600e-07   |Residual|: 2.268e-04   |deigs|: 7.408e-05  t[s]:     45.34
	FillingsUpdate:  mu: -0.109545421  nElectrons: 3.000000  magneticMoment: [ Abs: 0.60236  Tot: -0.60000 ]
SCF: Cycle: 26   F: -7.065156238907834   dF: -7.378e-07   |Residual|: 1.628e-04   |deigs|: 3.693e-04  t[s]:     46.93
	FillingsUpdate:  mu: -0.109975020  nElectrons: 3.000000  magneticMoment: [ Abs: 0.60106  Tot: -0.60000 ]
SCF: Cycle: 27   F: -7.065156634013614   dF: -3.951e-07   |Residual|: 8.352e-05   |deigs|: 4.687e-04  t[s]:     48.52
	FillingsUpdate:  mu: -0.110125177  nElectrons: 3.000000  magneticMoment: [ Abs: 0.60029  Tot: -0.60000 ]
SCF: Cycle: 28   F: -7.065156682818715   dF: -4.881e-08   |Residual|: 4.825e-05   |deigs|: 1.586e-04  t[s]:     50.10
	FillingsUpdate:  mu: -0.110238070  nElectrons: 3.000000  magneticMoment: [ Abs: 0.60006  Tot: -0.60000 ]
SCF: Cycle: 29   F: -7.065156707764642   dF: -2.495e-08   |Residual|: 3.117e-05   |deigs|: 1.212e-04  t[s]:     51.66
	FillingsUpdate:  mu: -0.110325569  nElectrons: 3.000000  magneticMoment: [ Abs: 0.60004  Tot: -0.60000 ]
SCF: Cycle: 30   F: -7.065156716444295   dF: -8.680e-09   |Residual|: 2.070e-05   |deigs|: 9.240e-05  t[s]:     53.20
	FillingsUpdate:  mu: -0.110354570  nElectrons: 3.000000  magneticMoment: [ Abs: 0.60000  Tot: -0.60000 ]
SCF: Cycle: 31   F: -7.065156724364258   dF: -7.920e-09   |Residual|: 1.272e-05   |deigs|: 4.403e-05  t[s]:     54.73
SCF: Converged (|Delta E|<1.000000e-08 for 2 iters).


# Ionic positions in lattice coordinates:
ion Li   0.000000000000000   0.000000000000000   0.000000000000000 0

# Forces in Lattice coordinates:
force Li  -0.000000000000000  -0.000000000000000   0.000000000000000 0

# Energy components:
   Eewald =       -2.0053362333702967
       EH =        1.5359386153680774
     Eloc =       -6.1978466142800652
      Enl =       -3.5900883623512456
   Epulay =        0.0000032255226020
      Exc =       -1.5411522959425716
       KE =        4.7333259148576081
-------------------------------------
     Etot =       -7.0651557501958910
       TS =        0.0000009741683673
-------------------------------------
        F =       -7.0651567243642583

IonicMinimize: Iter:   0  F: -7.065156724364258  |grad|_K:  0.000e+00  t[s]:     54.80
IonicMinimize: Converged (|grad|_K<1.000000e-04).

#--- Lowdin population analysis ---
# oxidation-state Li +2.207
# magnetic-moments Li -0.417

End date and time: Sat Feb  5 22:46:52 2022  (Duration: 0-0:00:54.82)
Done!
