
*************** JDFTx 1.6.0 (git hash 42ebbcc2) ***************

Start date and time: Sat Feb  5 23:06:02 2022
Executable jdftx with command-line: -i Alkali.in
Running on hosts (process indices):  d-6-8-2 (0-18)
Divided in process groups (process indices):  0 (0)  1 (1)  2 (2)  3 (3)  4 (4)  5 (5)  6 (6)  7 (7)  8 (8)  9 (9)  10 (10)  11 (11)  12 (12)  13 (13)  14 (14)  15 (15)  16 (16)  17 (17)  18 (18)
Resource initialization completed at t[s]:      0.00
Run totals: 19 processes, 48 threads, 0 GPUs


Input parsed successfully to the following command list (including defaults):

basis kpoint-dependent
coords-type Lattice
core-overlap-check vector
coulomb-interaction Slab 001
davidson-band-ratio 1.1
dump End None
dump-name $INPUT.$VAR
elec-cutoff 20
elec-eigen-algo Davidson
elec-ex-corr gga-PBE
elec-initial-magnetization 0.420000 yes
elec-smearing Fermi 1e-05
electronic-minimize  \
	dirUpdateScheme      FletcherReeves \
	linminMethod         DirUpdateRecommended \
	nIterations          100 \
	history              15 \
	knormThreshold       0 \
	energyDiffThreshold  1e-08 \
	nEnergyDiff          2 \
	alphaTstart          1 \
	alphaTmin            1e-10 \
	updateTestStepSize   yes \
	alphaTreduceFactor   0.1 \
	alphaTincreaseFactor 3 \
	nAlphaAdjustMax      3 \
	wolfeEnergy          0.0001 \
	wolfeGradient        0.9 \
	fdTest               no
electronic-scf  \
	nIterations	10000 \
	energyDiffThreshold	1e-08 \
	residualThreshold	1e-07 \
	mixFraction	0.5 \
	qMetric	0.8 \
	history	10 \
	nEigSteps	2 \
	eigDiffThreshold	1e-08 \
	mixedVariable	Density \
	qKerker	0.8 \
	qKappa	-1 \
	verbose	no \
	mixFractionMag	1.5
exchange-regularization WignerSeitzTruncated
fluid None
fluid-ex-corr (null) lda-PZ
fluid-gummel-loop 10 1.000000e-05
fluid-minimize  \
	dirUpdateScheme      PolakRibiere \
	linminMethod         DirUpdateRecommended \
	nIterations          100 \
	history              15 \
	knormThreshold       0 \
	energyDiffThreshold  0 \
	nEnergyDiff          2 \
	alphaTstart          1 \
	alphaTmin            1e-10 \
	updateTestStepSize   yes \
	alphaTreduceFactor   0.1 \
	alphaTincreaseFactor 3 \
	nAlphaAdjustMax      3 \
	wolfeEnergy          0.0001 \
	wolfeGradient        0.9 \
	fdTest               no
fluid-solvent H2O 55.338 ScalarEOS \
	epsBulk 78.4 \
	pMol 0.92466 \
	epsInf 1.77 \
	Pvap 1.06736e-10 \
	sigmaBulk 4.62e-05 \
	Rvdw 2.61727 \
	Res 1.42 \
	tauNuc 343133 \
	poleEl 15 7 1
forces-output-coords Positions
ion Li   0.000000000000000   0.000000000000000   0.000000000000000 0
ion-species SG15/$ID_ONCV_PBE.upf
ion-width 0
ionic-minimize  \
	dirUpdateScheme      L-BFGS \
	linminMethod         DirUpdateRecommended \
	nIterations          0 \
	history              15 \
	knormThreshold       0.0001 \
	energyDiffThreshold  1e-06 \
	nEnergyDiff          2 \
	alphaTstart          1 \
	alphaTmin            1e-10 \
	updateTestStepSize   yes \
	alphaTreduceFactor   0.1 \
	alphaTincreaseFactor 3 \
	nAlphaAdjustMax      3 \
	wolfeEnergy          0.0001 \
	wolfeGradient        0.9 \
	fdTest               no
kpoint   0.000000000000   0.000000000000   0.000000000000  1.00000000000000
kpoint-folding 12 12 1 
latt-move-scale 1 1 1
latt-scale 2 2 1 
lattice  \
	   4.727486978767153   -2.363743489383575    0.000000000000000  \
	  -0.000000000000000    4.094123819672498    0.000000000000000  \
	   0.000000000000000    0.000000000000000   40.000000000000000 
lattice-minimize  \
	dirUpdateScheme      L-BFGS \
	linminMethod         DirUpdateRecommended \
	nIterations          0 \
	history              15 \
	knormThreshold       0 \
	energyDiffThreshold  1e-06 \
	nEnergyDiff          2 \
	alphaTstart          1 \
	alphaTmin            1e-10 \
	updateTestStepSize   yes \
	alphaTreduceFactor   0.1 \
	alphaTincreaseFactor 3 \
	nAlphaAdjustMax      3 \
	wolfeEnergy          0.0001 \
	wolfeGradient        0.9 \
	fdTest               no
lcao-params -1 1e-06 1e-05
pcm-variant GLSSA13
spintype z-spin
subspace-rotation-factor 1 yes
symmetries automatic
symmetry-threshold 0.0001



---------- Setting up symmetries ----------

Found 24 point-group symmetries of the bravais lattice
Found 24 space-group symmetries with basis
Applied RMS atom displacement 0 bohrs to make symmetries exact.

---------- Initializing the Grid ----------
R = 
[      9.45497     -4.72749            0  ]
[            0      8.18825            0  ]
[            0            0           40  ]
unit cell volume = 3096.79
G =
[   0.664538   0.383671         -0  ]
[          0   0.767342         -0  ]
[         -0         -0    0.15708  ]
Minimum fftbox size, Smin = [  40  40  164  ]
Chosen fftbox size, S = [  40  40  168  ]

---------- Exchange Correlation functional ----------
Initalized PBE GGA exchange.
Initalized PBE GGA correlation.

---------- Setting up pseudopotentials ----------
Width of ionic core gaussian charges (only for fluid interactions / plotting) set to 0

Reading pseudopotential file '/home/gridsan/aligho/DFT/build-Nov24/pseudopotentials/SG15/Li_ONCV_PBE.upf':
  'Li' pseudopotential, 'PBE' functional
  Generated using ONCVPSP code by D. R. Hamann
  Author: Martin Schlipf and Francois Gygi  Date: 150915.
  3 valence electrons, 2 orbitals, 4 projectors, 1328 radial grid points, with lMax = 1
  Transforming local potential to a uniform radial grid of dG=0.02 with 1489 points.
  Transforming nonlocal projectors to a uniform radial grid of dG=0.02 with 432 points.
    1S    l: 0   occupation:  2.0   eigenvalue: -1.905623
    2S    l: 0   occupation:  1.0   eigenvalue: -0.105624
  Transforming atomic orbitals to a uniform radial grid of dG=0.02 with 432 points.
  WARNING: large normalization error in atomic orbital 1s (integral: 0.000000).
  Core radius for overlap checks: 1.63 bohrs.
  Reading pulay file /home/gridsan/aligho/DFT/build-Nov24/pseudopotentials/SG15/Li_ONCV_PBE.pulay ... using dE_dnG = -1.230239e-02 computed for Ecut = 20.

Initialized 1 species with 1 total atoms.

Folded 1 k-points by 12x12x1 to 144 k-points.

---------- Setting up k-points, bands, fillings ----------
Reduced to 19 k-points under symmetry. 
Computing the number of bands and number of electrons
Calculating initial fillings.
nElectrons:   3.000000   nBands: 3   nStates: 38

----- Setting up reduced wavefunction bases (one per k-point) -----
average nbasis = 13230.521 , ideal nbasis = 13229.709

---------- Setting up coulomb interaction ----------
Initialized slab truncation along lattice direction 001

---------- Setting up 2D ewald sum ----------
Optimum gaussian width for ewald sums = 5.249020 bohr.
Real space sums over 289 unit cells with max indices [  8  8  0  ]
Reciprocal space sums over 81 terms with max indices [  4  4  0  ]

---------- Allocating electronic variables ----------
Initializing wave functions:  linear combination of atomic orbitals
Note: number of bands (3) exceeds available atomic orbitals (2)
Li pseudo-atom occupations:   s ( 2 1 )
	FillingsUpdate:  mu: +0.322197479  nElectrons: 3.000000  magneticMoment: [ Abs: 0.42000  Tot: +0.42000 ]
LCAOMinimize: Iter:   0  F: -1.1712650506743678  |grad|_K:  6.814e-05  alpha:  1.000e+00
	FillingsUpdate:  mu: +0.322194874  nElectrons: 3.000000  magneticMoment: [ Abs: 0.42000  Tot: +0.42000 ]
LCAOMinimize: Iter:   1  F: -1.1712658800290163  |grad|_K:  1.616e-06  alpha:  1.044e+00  linmin: -1.838e-03  cgtest:  2.778e-02  t[s]:      3.82
LCAOMinimize: Encountered beta<0, resetting CG.
	FillingsUpdate:  mu: +0.322194879  nElectrons: 3.000000  magneticMoment: [ Abs: 0.42000  Tot: +0.42000 ]
LCAOMinimize: Iter:   2  F: -1.1712658804826952  |grad|_K:  4.126e-08  alpha:  1.011e+00  linmin: -4.227e-03  cgtest:  1.126e-01  t[s]:      4.82
LCAOMinimize: Encountered beta<0, resetting CG.
LCAOMinimize: Converged (|Delta F|<1.000000e-06 for 2 iters).


---- Citations for features of the code used in this run ----

   Software package:
      R. Sundararaman, K. Letchworth-Weaver, K.A. Schwarz, D. Gunceler, Y. Ozhabes and T.A. Arias, 'JDFTx: software for joint density-functional theory', SoftwareX 6, 278 (2017)

   gga-PBE exchange-correlation functional:
      J.P. Perdew, K. Burke and M. Ernzerhof, Phys. Rev. Lett. 77, 3865 (1996)

   Pseudopotentials:
      M Schlipf and F Gygi, Comput. Phys. Commun. 196, 36 (2015)

   Truncated Coulomb potentials:
      R. Sundararaman and T.A. Arias, Phys. Rev. B 87, 165122 (2013)

This list may not be complete. Please suggest additional citations or
report any other bugs at https://github.com/shankar1729/jdftx/issues

Initialization completed successfully at t[s]:      4.89


-------- Electronic minimization -----------
Will mix electronic density at each iteration.
	FillingsUpdate:  mu: +0.322194879  nElectrons: 3.000000  magneticMoment: [ Abs: 0.42000  Tot: +0.42000 ]
	FillingsUpdate:  mu: -0.983826795  nElectrons: 3.000000  magneticMoment: [ Abs: 0.42000  Tot: +0.42000 ]
SCF: Cycle:  0   F: -6.828105095327515   dF: -5.657e+00   |Residual|: 1.172e+00   |deigs|: 4.170e+00  t[s]:      6.57
	FillingsUpdate:  mu: -0.865479588  nElectrons: 3.000000  magneticMoment: [ Abs: 0.68061  Tot: +0.42000 ]
SCF: Cycle:  1   F: -6.936178236734652   dF: -1.081e-01   |Residual|: 7.743e-01   |deigs|: 2.353e-01  t[s]:      7.83
	FillingsUpdate:  mu: -0.648456628  nElectrons: 3.000000  magneticMoment: [ Abs: 0.87731  Tot: +0.42000 ]
SCF: Cycle:  2   F: -7.047779946896005   dF: -1.116e-01   |Residual|: 4.204e-01   |deigs|: 7.768e-01  t[s]:      9.12
	FillingsUpdate:  mu: -0.669359485  nElectrons: 3.000000  magneticMoment: [ Abs: 0.74961  Tot: +0.42000 ]
SCF: Cycle:  3   F: -7.056198306765929   dF: -8.418e-03   |Residual|: 2.054e-01   |deigs|: 1.234e-01  t[s]:     10.41
	FillingsUpdate:  mu: -0.624219411  nElectrons: 3.000000  magneticMoment: [ Abs: 0.56537  Tot: +0.42000 ]
SCF: Cycle:  4   F: -7.054670765599956   dF: +1.528e-03   |Residual|: 4.262e-02   |deigs|: 3.819e-02  t[s]:     11.72
	FillingsUpdate:  mu: -0.598638283  nElectrons: 3.000000  magneticMoment: [ Abs: 0.56146  Tot: +0.42000 ]
SCF: Cycle:  5   F: -7.054553800600763   dF: +1.170e-04   |Residual|: 1.192e-01   |deigs|: 1.987e-02  t[s]:     13.06
	FillingsUpdate:  mu: -0.473655785  nElectrons: 3.000000  magneticMoment: [ Abs: 0.60754  Tot: +0.42000 ]
SCF: Cycle:  6   F: -7.058807042224508   dF: -4.253e-03   |Residual|: 1.419e-01   |deigs|: 1.426e-01  t[s]:     14.42
	FillingsUpdate:  mu: -0.433647922  nElectrons: 3.000000  magneticMoment: [ Abs: 0.55827  Tot: +0.42000 ]
SCF: Cycle:  7   F: -7.060723896511348   dF: -1.917e-03   |Residual|: 5.374e-02   |deigs|: 8.809e-02  t[s]:     15.84
	FillingsUpdate:  mu: -0.389399369  nElectrons: 3.000000  magneticMoment: [ Abs: 0.54057  Tot: +0.42000 ]
SCF: Cycle:  8   F: -7.062497042206121   dF: -1.773e-03   |Residual|: 8.546e-02   |deigs|: 4.815e-02  t[s]:     17.28
	FillingsUpdate:  mu: -0.362417501  nElectrons: 3.000000  magneticMoment: [ Abs: 0.51257  Tot: +0.42000 ]
SCF: Cycle:  9   F: -7.064381318218995   dF: -1.884e-03   |Residual|: 3.569e-02   |deigs|: 4.140e-02  t[s]:     18.78
	FillingsUpdate:  mu: -0.329996278  nElectrons: 3.000000  magneticMoment: [ Abs: 0.53741  Tot: +0.42000 ]
SCF: Cycle: 10   F: -7.064623660922074   dF: -2.423e-04   |Residual|: 7.332e-02   |deigs|: 2.556e-02  t[s]:     20.25
	FillingsUpdate:  mu: -0.271757159  nElectrons: 3.000000  magneticMoment: [ Abs: 0.56497  Tot: +0.42000 ]
SCF: Cycle: 11   F: -7.065551239662036   dF: -9.276e-04   |Residual|: 2.215e-02   |deigs|: 7.328e-02  t[s]:     21.77
	FillingsUpdate:  mu: -0.232396571  nElectrons: 3.000000  magneticMoment: [ Abs: 0.56718  Tot: +0.42000 ]
SCF: Cycle: 12   F: -7.065814328755613   dF: -2.631e-04   |Residual|: 1.432e-02   |deigs|: 4.573e-02  t[s]:     23.25
	FillingsUpdate:  mu: -0.192213479  nElectrons: 3.000000  magneticMoment: [ Abs: 0.54411  Tot: +0.42000 ]
SCF: Cycle: 13   F: -7.066217320576430   dF: -4.030e-04   |Residual|: 1.143e-02   |deigs|: 3.946e-02  t[s]:     24.83
	FillingsUpdate:  mu: -0.153913035  nElectrons: 3.000000  magneticMoment: [ Abs: 0.50401  Tot: +0.42000 ]
SCF: Cycle: 14   F: -7.066206097754018   dF: +1.122e-05   |Residual|: 9.202e-03   |deigs|: 4.104e-02  t[s]:     26.32
	FillingsUpdate:  mu: -0.130689944  nElectrons: 3.000000  magneticMoment: [ Abs: 0.49495  Tot: +0.42000 ]
SCF: Cycle: 15   F: -7.066294200883389   dF: -8.810e-05   |Residual|: 7.141e-03   |deigs|: 2.476e-02  t[s]:     27.80
	FillingsUpdate:  mu: -0.116250650  nElectrons: 3.000000  magneticMoment: [ Abs: 0.48399  Tot: +0.42000 ]
SCF: Cycle: 16   F: -7.066486203065080   dF: -1.920e-04   |Residual|: 5.230e-03   |deigs|: 1.430e-02  t[s]:     29.30
	FillingsUpdate:  mu: -0.113336210  nElectrons: 3.000000  magneticMoment: [ Abs: 0.45883  Tot: +0.42000 ]
SCF: Cycle: 17   F: -7.066575915655935   dF: -8.971e-05   |Residual|: 3.682e-03   |deigs|: 3.293e-03  t[s]:     30.78
	FillingsUpdate:  mu: -0.111391230  nElectrons: 3.000000  magneticMoment: [ Abs: 0.44704  Tot: +0.42000 ]
SCF: Cycle: 18   F: -7.066621178615088   dF: -4.526e-05   |Residual|: 1.750e-03   |deigs|: 2.224e-03  t[s]:     32.29
	FillingsUpdate:  mu: -0.111536633  nElectrons: 3.000000  magneticMoment: [ Abs: 0.43925  Tot: +0.42000 ]
SCF: Cycle: 19   F: -7.066638807346936   dF: -1.763e-05   |Residual|: 1.214e-03   |deigs|: 2.855e-04  t[s]:     33.76
	FillingsUpdate:  mu: -0.111861670  nElectrons: 3.000000  magneticMoment: [ Abs: 0.43416  Tot: +0.42000 ]
SCF: Cycle: 20   F: -7.066649085125328   dF: -1.028e-05   |Residual|: 8.009e-04   |deigs|: 4.226e-04  t[s]:     35.21
	FillingsUpdate:  mu: -0.111725536  nElectrons: 3.000000  magneticMoment: [ Abs: 0.43093  Tot: +0.42000 ]
SCF: Cycle: 21   F: -7.066651487387703   dF: -2.402e-06   |Residual|: 5.505e-04   |deigs|: 4.356e-04  t[s]:     36.78
	FillingsUpdate:  mu: -0.111720689  nElectrons: 3.000000  magneticMoment: [ Abs: 0.42788  Tot: +0.42000 ]
SCF: Cycle: 22   F: -7.066653355940333   dF: -1.869e-06   |Residual|: 4.416e-04   |deigs|: 2.519e-04  t[s]:     38.25
	FillingsUpdate:  mu: -0.111500388  nElectrons: 3.000000  magneticMoment: [ Abs: 0.42541  Tot: +0.42000 ]
SCF: Cycle: 23   F: -7.066654976333774   dF: -1.620e-06   |Residual|: 3.748e-04   |deigs|: 2.860e-04  t[s]:     39.83
	FillingsUpdate:  mu: -0.111302137  nElectrons: 3.000000  magneticMoment: [ Abs: 0.42207  Tot: +0.42000 ]
SCF: Cycle: 24   F: -7.066654892132639   dF: +8.420e-08   |Residual|: 2.996e-04   |deigs|: 1.968e-04  t[s]:     41.29
	FillingsUpdate:  mu: -0.111081200  nElectrons: 3.000000  magneticMoment: [ Abs: 0.42106  Tot: +0.42000 ]
SCF: Cycle: 25   F: -7.066655238986157   dF: -3.469e-07   |Residual|: 2.140e-04   |deigs|: 2.019e-04  t[s]:     42.76
	FillingsUpdate:  mu: -0.110779648  nElectrons: 3.000000  magneticMoment: [ Abs: 0.42048  Tot: +0.42000 ]
SCF: Cycle: 26   F: -7.066655730969670   dF: -4.920e-07   |Residual|: 1.347e-04   |deigs|: 2.963e-04  t[s]:     44.22
	FillingsUpdate:  mu: -0.110592991  nElectrons: 3.000000  magneticMoment: [ Abs: 0.42032  Tot: +0.42000 ]
SCF: Cycle: 27   F: -7.066655955791919   dF: -2.248e-07   |Residual|: 7.258e-05   |deigs|: 1.971e-04  t[s]:     45.70
	FillingsUpdate:  mu: -0.110491561  nElectrons: 3.000000  magneticMoment: [ Abs: 0.42016  Tot: +0.42000 ]
SCF: Cycle: 28   F: -7.066655982155960   dF: -2.636e-08   |Residual|: 5.211e-05   |deigs|: 1.062e-04  t[s]:     47.15
	FillingsUpdate:  mu: -0.110410713  nElectrons: 3.000000  magneticMoment: [ Abs: 0.42011  Tot: +0.42000 ]
SCF: Cycle: 29   F: -7.066656004640132   dF: -2.248e-08   |Residual|: 3.370e-05   |deigs|: 8.712e-05  t[s]:     48.61
	FillingsUpdate:  mu: -0.110387603  nElectrons: 3.000000  magneticMoment: [ Abs: 0.42005  Tot: +0.42000 ]
SCF: Cycle: 30   F: -7.066656014406052   dF: -9.766e-09   |Residual|: 2.398e-05   |deigs|: 4.047e-05  t[s]:     50.08
	FillingsUpdate:  mu: -0.110369205  nElectrons: 3.000000  magneticMoment: [ Abs: 0.42000  Tot: +0.42000 ]
SCF: Cycle: 31   F: -7.066656022681960   dF: -8.276e-09   |Residual|: 1.568e-05   |deigs|: 4.674e-05  t[s]:     51.59
SCF: Converged (|Delta E|<1.000000e-08 for 2 iters).


# Ionic positions in lattice coordinates:
ion Li   0.000000000000000   0.000000000000000   0.000000000000000 0

# Forces in Lattice coordinates:
force Li  -0.000000000000000   0.000000000000000   0.000000000000000 0

# Energy components:
   Eewald =       -2.0053362333702967
       EH =        1.5317422964693350
     Eloc =       -6.1930106399932150
      Enl =       -3.5903076922943993
   Epulay =        0.0000032255226020
      Exc =       -1.5389864181358941
       KE =        4.7292402223338090
-------------------------------------
     Etot =       -7.0666552394680568
       TS =        0.0000007832139037
-------------------------------------
        F =       -7.0666560226819604

IonicMinimize: Iter:   0  F: -7.066656022681960  |grad|_K:  0.000e+00  t[s]:     51.66
IonicMinimize: Converged (|grad|_K<1.000000e-04).

#--- Lowdin population analysis ---
# oxidation-state Li +2.184
# magnetic-moments Li +0.291

End date and time: Sat Feb  5 23:06:54 2022  (Duration: 0-0:00:51.67)
Done!
