
*************** JDFTx 1.6.0 (git hash 42ebbcc2) ***************

Start date and time: Sat Feb  5 22:45:58 2022
Executable jdftx with command-line: -i Alkali.in
Running on hosts (process indices):  d-3-7-1 (0-18)
Divided in process groups (process indices):  0 (0)  1 (1)  2 (2)  3 (3)  4 (4)  5 (5)  6 (6)  7 (7)  8 (8)  9 (9)  10 (10)  11 (11)  12 (12)  13 (13)  14 (14)  15 (15)  16 (16)  17 (17)  18 (18)
Resource initialization completed at t[s]:      0.00
Run totals: 19 processes, 48 threads, 0 GPUs


Input parsed successfully to the following command list (including defaults):

basis kpoint-dependent
coords-type Lattice
core-overlap-check vector
coulomb-interaction Slab 001
davidson-band-ratio 1.1
dump End None
dump-name $INPUT.$VAR
elec-cutoff 20
elec-eigen-algo Davidson
elec-ex-corr gga-PBE
elec-initial-magnetization -1.000000 yes
elec-smearing Fermi 1e-05
electronic-minimize  \
	dirUpdateScheme      FletcherReeves \
	linminMethod         DirUpdateRecommended \
	nIterations          100 \
	history              15 \
	knormThreshold       0 \
	energyDiffThreshold  1e-08 \
	nEnergyDiff          2 \
	alphaTstart          1 \
	alphaTmin            1e-10 \
	updateTestStepSize   yes \
	alphaTreduceFactor   0.1 \
	alphaTincreaseFactor 3 \
	nAlphaAdjustMax      3 \
	wolfeEnergy          0.0001 \
	wolfeGradient        0.9 \
	fdTest               no
electronic-scf  \
	nIterations	10000 \
	energyDiffThreshold	1e-08 \
	residualThreshold	1e-07 \
	mixFraction	0.5 \
	qMetric	0.8 \
	history	10 \
	nEigSteps	2 \
	eigDiffThreshold	1e-08 \
	mixedVariable	Density \
	qKerker	0.8 \
	qKappa	-1 \
	verbose	no \
	mixFractionMag	1.5
exchange-regularization WignerSeitzTruncated
fluid None
fluid-ex-corr (null) lda-PZ
fluid-gummel-loop 10 1.000000e-05
fluid-minimize  \
	dirUpdateScheme      PolakRibiere \
	linminMethod         DirUpdateRecommended \
	nIterations          100 \
	history              15 \
	knormThreshold       0 \
	energyDiffThreshold  0 \
	nEnergyDiff          2 \
	alphaTstart          1 \
	alphaTmin            1e-10 \
	updateTestStepSize   yes \
	alphaTreduceFactor   0.1 \
	alphaTincreaseFactor 3 \
	nAlphaAdjustMax      3 \
	wolfeEnergy          0.0001 \
	wolfeGradient        0.9 \
	fdTest               no
fluid-solvent H2O 55.338 ScalarEOS \
	epsBulk 78.4 \
	pMol 0.92466 \
	epsInf 1.77 \
	Pvap 1.06736e-10 \
	sigmaBulk 4.62e-05 \
	Rvdw 2.61727 \
	Res 1.42 \
	tauNuc 343133 \
	poleEl 15 7 1
forces-output-coords Positions
ion Li   0.000000000000000   0.000000000000000   0.000000000000000 0
ion-species SG15/$ID_ONCV_PBE.upf
ion-width 0
ionic-minimize  \
	dirUpdateScheme      L-BFGS \
	linminMethod         DirUpdateRecommended \
	nIterations          0 \
	history              15 \
	knormThreshold       0.0001 \
	energyDiffThreshold  1e-06 \
	nEnergyDiff          2 \
	alphaTstart          1 \
	alphaTmin            1e-10 \
	updateTestStepSize   yes \
	alphaTreduceFactor   0.1 \
	alphaTincreaseFactor 3 \
	nAlphaAdjustMax      3 \
	wolfeEnergy          0.0001 \
	wolfeGradient        0.9 \
	fdTest               no
kpoint   0.000000000000   0.000000000000   0.000000000000  1.00000000000000
kpoint-folding 12 12 1 
latt-move-scale 1 1 1
latt-scale 2 2 1 
lattice  \
	   4.727486978767153   -2.363743489383575    0.000000000000000  \
	  -0.000000000000000    4.094123819672498    0.000000000000000  \
	   0.000000000000000    0.000000000000000   40.000000000000000 
lattice-minimize  \
	dirUpdateScheme      L-BFGS \
	linminMethod         DirUpdateRecommended \
	nIterations          0 \
	history              15 \
	knormThreshold       0 \
	energyDiffThreshold  1e-06 \
	nEnergyDiff          2 \
	alphaTstart          1 \
	alphaTmin            1e-10 \
	updateTestStepSize   yes \
	alphaTreduceFactor   0.1 \
	alphaTincreaseFactor 3 \
	nAlphaAdjustMax      3 \
	wolfeEnergy          0.0001 \
	wolfeGradient        0.9 \
	fdTest               no
lcao-params -1 1e-06 1e-05
pcm-variant GLSSA13
spintype z-spin
subspace-rotation-factor 1 yes
symmetries automatic
symmetry-threshold 0.0001



---------- Setting up symmetries ----------

Found 24 point-group symmetries of the bravais lattice
Found 24 space-group symmetries with basis
Applied RMS atom displacement 0 bohrs to make symmetries exact.

---------- Initializing the Grid ----------
R = 
[      9.45497     -4.72749            0  ]
[            0      8.18825            0  ]
[            0            0           40  ]
unit cell volume = 3096.79
G =
[   0.664538   0.383671         -0  ]
[          0   0.767342         -0  ]
[         -0         -0    0.15708  ]
Minimum fftbox size, Smin = [  40  40  164  ]
Chosen fftbox size, S = [  40  40  168  ]

---------- Exchange Correlation functional ----------
Initalized PBE GGA exchange.
Initalized PBE GGA correlation.

---------- Setting up pseudopotentials ----------
Width of ionic core gaussian charges (only for fluid interactions / plotting) set to 0

Reading pseudopotential file '/home/gridsan/aligho/DFT/build-Nov24/pseudopotentials/SG15/Li_ONCV_PBE.upf':
  'Li' pseudopotential, 'PBE' functional
  Generated using ONCVPSP code by D. R. Hamann
  Author: Martin Schlipf and Francois Gygi  Date: 150915.
  3 valence electrons, 2 orbitals, 4 projectors, 1328 radial grid points, with lMax = 1
  Transforming local potential to a uniform radial grid of dG=0.02 with 1489 points.
  Transforming nonlocal projectors to a uniform radial grid of dG=0.02 with 432 points.
    1S    l: 0   occupation:  2.0   eigenvalue: -1.905623
    2S    l: 0   occupation:  1.0   eigenvalue: -0.105624
  Transforming atomic orbitals to a uniform radial grid of dG=0.02 with 432 points.
  WARNING: large normalization error in atomic orbital 1s (integral: 0.000000).
  Core radius for overlap checks: 1.63 bohrs.
  Reading pulay file /home/gridsan/aligho/DFT/build-Nov24/pseudopotentials/SG15/Li_ONCV_PBE.pulay ... using dE_dnG = -1.230239e-02 computed for Ecut = 20.

Initialized 1 species with 1 total atoms.

Folded 1 k-points by 12x12x1 to 144 k-points.

---------- Setting up k-points, bands, fillings ----------
Reduced to 19 k-points under symmetry. 
Computing the number of bands and number of electrons
Calculating initial fillings.
nElectrons:   3.000000   nBands: 3   nStates: 38

----- Setting up reduced wavefunction bases (one per k-point) -----
average nbasis = 13230.521 , ideal nbasis = 13229.709

---------- Setting up coulomb interaction ----------
Initialized slab truncation along lattice direction 001

---------- Setting up 2D ewald sum ----------
Optimum gaussian width for ewald sums = 5.249020 bohr.
Real space sums over 289 unit cells with max indices [  8  8  0  ]
Reciprocal space sums over 81 terms with max indices [  4  4  0  ]

---------- Allocating electronic variables ----------
Initializing wave functions:  linear combination of atomic orbitals
Note: number of bands (3) exceeds available atomic orbitals (2)
Li pseudo-atom occupations:   s ( 2 1 )
	FillingsUpdate:  mu: -0.100000000  nElectrons: 3.000000  magneticMoment: [ Abs: 1.00000  Tot: -1.00000 ]
LCAOMinimize: Iter:   0  F: -1.1707031933803824  |grad|_K:       -nan  alpha:  1.000e+00
LCAOMinimize: |grad|_K=-nan. Stopping ...


---- Citations for features of the code used in this run ----

   Software package:
      R. Sundararaman, K. Letchworth-Weaver, K.A. Schwarz, D. Gunceler, Y. Ozhabes and T.A. Arias, 'JDFTx: software for joint density-functional theory', SoftwareX 6, 278 (2017)

   gga-PBE exchange-correlation functional:
      J.P. Perdew, K. Burke and M. Ernzerhof, Phys. Rev. Lett. 77, 3865 (1996)

   Pseudopotentials:
      M Schlipf and F Gygi, Comput. Phys. Commun. 196, 36 (2015)

   Truncated Coulomb potentials:
      R. Sundararaman and T.A. Arias, Phys. Rev. B 87, 165122 (2013)

This list may not be complete. Please suggest additional citations or
report any other bugs at https://github.com/shankar1729/jdftx/issues

Initialization completed successfully at t[s]:      3.02


-------- Electronic minimization -----------
Will mix electronic density at each iteration.
	FillingsUpdate:  mu: -0.100000000  nElectrons: 3.000000  magneticMoment: [ Abs: 1.00000  Tot: -1.00000 ]
	FillingsUpdate:  mu: -0.980887194  nElectrons: 3.000000  magneticMoment: [ Abs: 1.00000  Tot: -1.00000 ]
SCF: Cycle:  0   F: -6.848508396912676   dF: -5.678e+00   |Residual|: 1.177e+00   |deigs|: 4.170e+00  t[s]:      4.80
	FillingsUpdate:  mu: -1.600000000  nElectrons: 3.000000  magneticMoment: [ Abs: 1.52988  Tot: -1.00000 ]
SCF: Cycle:  1   F: -6.925390145256024   dF: -7.688e-02   |Residual|: 7.788e-01   |deigs|: 2.381e-01  t[s]:      6.12
	FillingsUpdate:  mu: -0.763407389  nElectrons: 3.000000  magneticMoment: [ Abs: 1.94066  Tot: -1.00000 ]
SCF: Cycle:  2   F: -7.040681919699015   dF: -1.153e-01   |Residual|: 4.135e-01   |deigs|: 7.684e-01  t[s]:      7.45
	FillingsUpdate:  mu: -0.800000000  nElectrons: 3.000000  magneticMoment: [ Abs: 1.56636  Tot: -1.00000 ]
SCF: Cycle:  3   F: -7.046784743236735   dF: -6.103e-03   |Residual|: 1.612e-01   |deigs|: 1.413e-01  t[s]:      8.86
	FillingsUpdate:  mu: -0.800000000  nElectrons: 3.000000  magneticMoment: [ Abs: 1.27543  Tot: -1.00000 ]
SCF: Cycle:  4   F: -7.048135848283887   dF: -1.351e-03   |Residual|: 4.341e-02   |deigs|: 4.387e-02  t[s]:     10.25
	FillingsUpdate:  mu: -0.800000000  nElectrons: 3.000000  magneticMoment: [ Abs: 1.22852  Tot: -1.00000 ]
SCF: Cycle:  5   F: -7.048990870777467   dF: -8.550e-04   |Residual|: 5.427e-02   |deigs|: 2.497e-02  t[s]:     11.62
	FillingsUpdate:  mu: -0.800000000  nElectrons: 3.000000  magneticMoment: [ Abs: 1.27889  Tot: -1.00000 ]
SCF: Cycle:  6   F: -7.052306265035504   dF: -3.315e-03   |Residual|: 8.566e-02   |deigs|: 1.106e-01  t[s]:     13.04
	FillingsUpdate:  mu: -0.549355034  nElectrons: 3.000000  magneticMoment: [ Abs: 1.29039  Tot: -1.00000 ]
SCF: Cycle:  7   F: -7.054935537535075   dF: -2.629e-03   |Residual|: 3.513e-02   |deigs|: 7.183e-02  t[s]:     14.51
	FillingsUpdate:  mu: -0.502278646  nElectrons: 3.000000  magneticMoment: [ Abs: 1.23578  Tot: -1.00000 ]
SCF: Cycle:  8   F: -7.056670279730531   dF: -1.735e-03   |Residual|: 4.063e-02   |deigs|: 4.179e-02  t[s]:     15.96
	FillingsUpdate:  mu: -0.400000000  nElectrons: 3.000000  magneticMoment: [ Abs: 1.16339  Tot: -1.00000 ]
SCF: Cycle:  9   F: -7.057827478080637   dF: -1.157e-03   |Residual|: 2.023e-02   |deigs|: 2.724e-02  t[s]:     17.48
	FillingsUpdate:  mu: -0.339491526  nElectrons: 3.000000  magneticMoment: [ Abs: 1.14676  Tot: -1.00000 ]
SCF: Cycle: 10   F: -7.058431453440365   dF: -6.040e-04   |Residual|: 2.376e-02   |deigs|: 3.183e-02  t[s]:     19.03
	FillingsUpdate:  mu: -0.302240078  nElectrons: 3.000000  magneticMoment: [ Abs: 1.19555  Tot: -1.00000 ]
SCF: Cycle: 11   F: -7.058755636726348   dF: -3.242e-04   |Residual|: 1.424e-02   |deigs|: 4.281e-02  t[s]:     20.54
	FillingsUpdate:  mu: -0.265674845  nElectrons: 3.000000  magneticMoment: [ Abs: 1.21883  Tot: -1.00000 ]
SCF: Cycle: 12   F: -7.059011881418774   dF: -2.562e-04   |Residual|: 1.318e-02   |deigs|: 3.592e-02  t[s]:     22.05
	FillingsUpdate:  mu: -0.279159005  nElectrons: 3.000000  magneticMoment: [ Abs: 1.19584  Tot: -1.00000 ]
SCF: Cycle: 13   F: -7.059097050697446   dF: -8.517e-05   |Residual|: 1.220e-02   |deigs|: 3.840e-02  t[s]:     23.62
	FillingsUpdate:  mu: -0.178744729  nElectrons: 3.000000  magneticMoment: [ Abs: 1.12669  Tot: -1.00000 ]
SCF: Cycle: 14   F: -7.059206749610714   dF: -1.097e-04   |Residual|: 1.033e-02   |deigs|: 4.942e-02  t[s]:     25.12
	FillingsUpdate:  mu: -0.132715352  nElectrons: 3.000000  magneticMoment: [ Abs: 1.09297  Tot: -1.00000 ]
SCF: Cycle: 15   F: -7.059558792266244   dF: -3.520e-04   |Residual|: 8.151e-03   |deigs|: 4.372e-02  t[s]:     26.67
	FillingsUpdate:  mu: -0.200000000  nElectrons: 3.000000  magneticMoment: [ Abs: 1.07328  Tot: -1.00000 ]
SCF: Cycle: 16   F: -7.059881781394589   dF: -3.230e-04   |Residual|: 6.325e-03   |deigs|: 1.755e-02  t[s]:     28.28
	FillingsUpdate:  mu: -0.200000000  nElectrons: 3.000000  magneticMoment: [ Abs: 1.05172  Tot: -1.00000 ]
SCF: Cycle: 17   F: -7.059996874710528   dF: -1.151e-04   |Residual|: 4.231e-03   |deigs|: 1.085e-02  t[s]:     29.88
	FillingsUpdate:  mu: -0.098255676  nElectrons: 3.000000  magneticMoment: [ Abs: 1.02959  Tot: -1.00000 ]
SCF: Cycle: 18   F: -7.060031872290068   dF: -3.500e-05   |Residual|: 2.386e-03   |deigs|: 7.382e-03  t[s]:     31.41
	FillingsUpdate:  mu: -0.097510270  nElectrons: 3.000000  magneticMoment: [ Abs: 1.01919  Tot: -1.00000 ]
SCF: Cycle: 19   F: -7.060042971124467   dF: -1.110e-05   |Residual|: 1.599e-03   |deigs|: 1.212e-03  t[s]:     32.93
	FillingsUpdate:  mu: -0.096399273  nElectrons: 3.000000  magneticMoment: [ Abs: 1.01400  Tot: -1.00000 ]
SCF: Cycle: 20   F: -7.060046293622452   dF: -3.322e-06   |Residual|: 1.236e-03   |deigs|: 1.218e-03  t[s]:     34.46
	FillingsUpdate:  mu: -0.095931564  nElectrons: 3.000000  magneticMoment: [ Abs: 1.01008  Tot: -1.00000 ]
SCF: Cycle: 21   F: -7.060050637566596   dF: -4.344e-06   |Residual|: 8.380e-04   |deigs|: 1.016e-03  t[s]:     36.00
	FillingsUpdate:  mu: -0.096516927  nElectrons: 3.000000  magneticMoment: [ Abs: 1.00930  Tot: -1.00000 ]
SCF: Cycle: 22   F: -7.060052631319550   dF: -1.994e-06   |Residual|: 6.535e-04   |deigs|: 1.221e-03  t[s]:     37.64
	FillingsUpdate:  mu: -0.096038802  nElectrons: 3.000000  magneticMoment: [ Abs: 1.00617  Tot: -1.00000 ]
SCF: Cycle: 23   F: -7.060053291073399   dF: -6.598e-07   |Residual|: 5.308e-04   |deigs|: 7.999e-04  t[s]:     39.19
	FillingsUpdate:  mu: -0.100000000  nElectrons: 3.000000  magneticMoment: [ Abs: 1.00332  Tot: -1.00000 ]
SCF: Cycle: 24   F: -7.060053877026055   dF: -5.860e-07   |Residual|: 3.916e-04   |deigs|: 8.548e-04  t[s]:     40.83
	FillingsUpdate:  mu: -0.100000000  nElectrons: 3.000000  magneticMoment: [ Abs: 1.00208  Tot: -1.00000 ]
SCF: Cycle: 25   F: -7.060054019441663   dF: -1.424e-07   |Residual|: 2.775e-04   |deigs|: 2.715e-03  t[s]:     42.38
	FillingsUpdate:  mu: -0.088941542  nElectrons: 3.000000  magneticMoment: [ Abs: 1.00143  Tot: -1.00000 ]
SCF: Cycle: 26   F: -7.060054197546892   dF: -1.781e-07   |Residual|: 1.445e-04   |deigs|: 3.610e-03  t[s]:     43.93
	FillingsUpdate:  mu: -0.087102004  nElectrons: 3.000000  magneticMoment: [ Abs: 1.00103  Tot: -1.00000 ]
SCF: Cycle: 27   F: -7.060054273443798   dF: -7.590e-08   |Residual|: 8.606e-05   |deigs|: 2.318e-03  t[s]:     45.47
	FillingsUpdate:  mu: -0.100000000  nElectrons: 3.000000  magneticMoment: [ Abs: 1.00037  Tot: -1.00000 ]
SCF: Cycle: 28   F: -7.060054313237401   dF: -3.979e-08   |Residual|: 5.565e-05   |deigs|: 2.098e-03  t[s]:     47.05
	FillingsUpdate:  mu: -0.100000000  nElectrons: 3.000000  magneticMoment: [ Abs: 1.00014  Tot: -1.00000 ]
SCF: Cycle: 29   F: -7.060054349793941   dF: -3.656e-08   |Residual|: 3.795e-05   |deigs|: 1.488e-03  t[s]:     48.58
	FillingsUpdate:  mu: -0.082734435  nElectrons: 3.000000  magneticMoment: [ Abs: 1.00018  Tot: -1.00000 ]
SCF: Cycle: 30   F: -7.060054377680506   dF: -2.789e-08   |Residual|: 3.035e-05   |deigs|: 3.589e-03  t[s]:     50.09
	FillingsUpdate:  mu: -0.100000000  nElectrons: 3.000000  magneticMoment: [ Abs: 1.00010  Tot: -1.00000 ]
SCF: Cycle: 31   F: -7.060054390455205   dF: -1.277e-08   |Residual|: 2.527e-05   |deigs|: 1.425e-03  t[s]:     51.59
	FillingsUpdate:  mu: -0.091666667  nElectrons: 3.000000  magneticMoment: [ Abs: 1.00006  Tot: -1.00000 ]
SCF: Cycle: 32   F: -7.060054387433672   dF: +3.022e-09   |Residual|: 2.253e-05   |deigs|: 4.900e-03  t[s]:     53.24
	FillingsUpdate:  mu: -0.085836474  nElectrons: 3.000000  magneticMoment: [ Abs: 1.00002  Tot: -1.00000 ]
SCF: Cycle: 33   F: -7.060054393953240   dF: -6.520e-09   |Residual|: 1.549e-05   |deigs|: 1.016e-03  t[s]:     54.78
	FillingsUpdate:  mu: -0.100000000  nElectrons: 3.000000  magneticMoment: [ Abs: 1.00000  Tot: -1.00000 ]
SCF: Cycle: 34   F: -7.060054397216033   dF: -3.263e-09   |Residual|: 9.675e-06   |deigs|: 2.107e-03  t[s]:     56.31
SCF: Converged (|Delta E|<1.000000e-08 for 2 iters).


# Ionic positions in lattice coordinates:
ion Li   0.000000000000000   0.000000000000000   0.000000000000000 0

# Forces in Lattice coordinates:
force Li  -0.000000000000000  -0.000000000000000   0.000000000000000 0

# Energy components:
   Eewald =       -2.0053362333702967
       EH =        1.5545054457673892
     Eloc =       -6.2209836086687522
      Enl =       -3.5915113003894179
   Epulay =        0.0000032255226020
      Exc =       -1.5499857167923983
       KE =        4.7532539784486767
-------------------------------------
     Etot =       -7.0600542094821952
       TS =        0.0000001877338370
-------------------------------------
        F =       -7.0600543972160326

IonicMinimize: Iter:   0  F: -7.060054397216033  |grad|_K:  0.000e+00  t[s]:     56.38
IonicMinimize: Converged (|grad|_K<1.000000e-04).

#--- Lowdin population analysis ---
# oxidation-state Li +2.259
# magnetic-moments Li -0.728

End date and time: Sat Feb  5 22:46:54 2022  (Duration: 0-0:00:56.40)
Done!
