
*************** JDFTx 1.6.0 (git hash 42ebbcc2) ***************

Start date and time: Sat Feb  5 22:53:19 2022
Executable jdftx with command-line: -i Alkali.in
Running on hosts (process indices):  d-4-6-3 (0-18)
Divided in process groups (process indices):  0 (0)  1 (1)  2 (2)  3 (3)  4 (4)  5 (5)  6 (6)  7 (7)  8 (8)  9 (9)  10 (10)  11 (11)  12 (12)  13 (13)  14 (14)  15 (15)  16 (16)  17 (17)  18 (18)
Resource initialization completed at t[s]:      0.00
Run totals: 19 processes, 48 threads, 0 GPUs


Input parsed successfully to the following command list (including defaults):

basis kpoint-dependent
coords-type Lattice
core-overlap-check vector
coulomb-interaction Slab 001
davidson-band-ratio 1.1
dump End None
dump-name $INPUT.$VAR
elec-cutoff 20
elec-eigen-algo Davidson
elec-ex-corr gga-PBE
elec-initial-magnetization -0.300000 yes
elec-smearing Fermi 1e-05
electronic-minimize  \
	dirUpdateScheme      FletcherReeves \
	linminMethod         DirUpdateRecommended \
	nIterations          100 \
	history              15 \
	knormThreshold       0 \
	energyDiffThreshold  1e-08 \
	nEnergyDiff          2 \
	alphaTstart          1 \
	alphaTmin            1e-10 \
	updateTestStepSize   yes \
	alphaTreduceFactor   0.1 \
	alphaTincreaseFactor 3 \
	nAlphaAdjustMax      3 \
	wolfeEnergy          0.0001 \
	wolfeGradient        0.9 \
	fdTest               no
electronic-scf  \
	nIterations	10000 \
	energyDiffThreshold	1e-08 \
	residualThreshold	1e-07 \
	mixFraction	0.5 \
	qMetric	0.8 \
	history	10 \
	nEigSteps	2 \
	eigDiffThreshold	1e-08 \
	mixedVariable	Density \
	qKerker	0.8 \
	qKappa	-1 \
	verbose	no \
	mixFractionMag	1.5
exchange-regularization WignerSeitzTruncated
fluid None
fluid-ex-corr (null) lda-PZ
fluid-gummel-loop 10 1.000000e-05
fluid-minimize  \
	dirUpdateScheme      PolakRibiere \
	linminMethod         DirUpdateRecommended \
	nIterations          100 \
	history              15 \
	knormThreshold       0 \
	energyDiffThreshold  0 \
	nEnergyDiff          2 \
	alphaTstart          1 \
	alphaTmin            1e-10 \
	updateTestStepSize   yes \
	alphaTreduceFactor   0.1 \
	alphaTincreaseFactor 3 \
	nAlphaAdjustMax      3 \
	wolfeEnergy          0.0001 \
	wolfeGradient        0.9 \
	fdTest               no
fluid-solvent H2O 55.338 ScalarEOS \
	epsBulk 78.4 \
	pMol 0.92466 \
	epsInf 1.77 \
	Pvap 1.06736e-10 \
	sigmaBulk 4.62e-05 \
	Rvdw 2.61727 \
	Res 1.42 \
	tauNuc 343133 \
	poleEl 15 7 1
forces-output-coords Positions
ion Li   0.000000000000000   0.000000000000000   0.000000000000000 0
ion-species SG15/$ID_ONCV_PBE.upf
ion-width 0
ionic-minimize  \
	dirUpdateScheme      L-BFGS \
	linminMethod         DirUpdateRecommended \
	nIterations          0 \
	history              15 \
	knormThreshold       0.0001 \
	energyDiffThreshold  1e-06 \
	nEnergyDiff          2 \
	alphaTstart          1 \
	alphaTmin            1e-10 \
	updateTestStepSize   yes \
	alphaTreduceFactor   0.1 \
	alphaTincreaseFactor 3 \
	nAlphaAdjustMax      3 \
	wolfeEnergy          0.0001 \
	wolfeGradient        0.9 \
	fdTest               no
kpoint   0.000000000000   0.000000000000   0.000000000000  1.00000000000000
kpoint-folding 12 12 1 
latt-move-scale 1 1 1
latt-scale 2 2 1 
lattice  \
	   4.727486978767153   -2.363743489383575    0.000000000000000  \
	  -0.000000000000000    4.094123819672498    0.000000000000000  \
	   0.000000000000000    0.000000000000000   40.000000000000000 
lattice-minimize  \
	dirUpdateScheme      L-BFGS \
	linminMethod         DirUpdateRecommended \
	nIterations          0 \
	history              15 \
	knormThreshold       0 \
	energyDiffThreshold  1e-06 \
	nEnergyDiff          2 \
	alphaTstart          1 \
	alphaTmin            1e-10 \
	updateTestStepSize   yes \
	alphaTreduceFactor   0.1 \
	alphaTincreaseFactor 3 \
	nAlphaAdjustMax      3 \
	wolfeEnergy          0.0001 \
	wolfeGradient        0.9 \
	fdTest               no
lcao-params -1 1e-06 1e-05
pcm-variant GLSSA13
spintype z-spin
subspace-rotation-factor 1 yes
symmetries automatic
symmetry-threshold 0.0001



---------- Setting up symmetries ----------

Found 24 point-group symmetries of the bravais lattice
Found 24 space-group symmetries with basis
Applied RMS atom displacement 0 bohrs to make symmetries exact.

---------- Initializing the Grid ----------
R = 
[      9.45497     -4.72749            0  ]
[            0      8.18825            0  ]
[            0            0           40  ]
unit cell volume = 3096.79
G =
[   0.664538   0.383671         -0  ]
[          0   0.767342         -0  ]
[         -0         -0    0.15708  ]
Minimum fftbox size, Smin = [  40  40  164  ]
Chosen fftbox size, S = [  40  40  168  ]

---------- Exchange Correlation functional ----------
Initalized PBE GGA exchange.
Initalized PBE GGA correlation.

---------- Setting up pseudopotentials ----------
Width of ionic core gaussian charges (only for fluid interactions / plotting) set to 0

Reading pseudopotential file '/home/gridsan/aligho/DFT/build-Nov24/pseudopotentials/SG15/Li_ONCV_PBE.upf':
  'Li' pseudopotential, 'PBE' functional
  Generated using ONCVPSP code by D. R. Hamann
  Author: Martin Schlipf and Francois Gygi  Date: 150915.
  3 valence electrons, 2 orbitals, 4 projectors, 1328 radial grid points, with lMax = 1
  Transforming local potential to a uniform radial grid of dG=0.02 with 1489 points.
  Transforming nonlocal projectors to a uniform radial grid of dG=0.02 with 432 points.
    1S    l: 0   occupation:  2.0   eigenvalue: -1.905623
    2S    l: 0   occupation:  1.0   eigenvalue: -0.105624
  Transforming atomic orbitals to a uniform radial grid of dG=0.02 with 432 points.
  WARNING: large normalization error in atomic orbital 1s (integral: 0.000000).
  Core radius for overlap checks: 1.63 bohrs.
  Reading pulay file /home/gridsan/aligho/DFT/build-Nov24/pseudopotentials/SG15/Li_ONCV_PBE.pulay ... using dE_dnG = -1.230239e-02 computed for Ecut = 20.

Initialized 1 species with 1 total atoms.

Folded 1 k-points by 12x12x1 to 144 k-points.

---------- Setting up k-points, bands, fillings ----------
Reduced to 19 k-points under symmetry. 
Computing the number of bands and number of electrons
Calculating initial fillings.
nElectrons:   3.000000   nBands: 3   nStates: 38

----- Setting up reduced wavefunction bases (one per k-point) -----
average nbasis = 13230.521 , ideal nbasis = 13229.709

---------- Setting up coulomb interaction ----------
Initialized slab truncation along lattice direction 001

---------- Setting up 2D ewald sum ----------
Optimum gaussian width for ewald sums = 5.249020 bohr.
Real space sums over 289 unit cells with max indices [  8  8  0  ]
Reciprocal space sums over 81 terms with max indices [  4  4  0  ]

---------- Allocating electronic variables ----------
Initializing wave functions:  linear combination of atomic orbitals
Note: number of bands (3) exceeds available atomic orbitals (2)
Li pseudo-atom occupations:   s ( 2 1 )
	FillingsUpdate:  mu: +0.325390550  nElectrons: 3.000000  magneticMoment: [ Abs: 0.30079  Tot: -0.30000 ]
LCAOMinimize: Iter:   0  F: -1.1818244839374270  |grad|_K:  7.390e-05  alpha:  1.000e+00
	FillingsUpdate:  mu: +0.325389099  nElectrons: 3.000000  magneticMoment: [ Abs: 0.30079  Tot: -0.30000 ]
LCAOMinimize: Iter:   1  F: -1.1818254584342016  |grad|_K:  1.857e-06  alpha:  1.043e+00  linmin: -1.838e-03  cgtest:  2.782e-02  t[s]:      3.88
LCAOMinimize: Encountered beta<0, resetting CG.
	FillingsUpdate:  mu: +0.325389104  nElectrons: 3.000000  magneticMoment: [ Abs: 0.30079  Tot: -0.30000 ]
LCAOMinimize: Iter:   2  F: -1.1818254590347435  |grad|_K:  5.724e-08  alpha:  1.019e+00  linmin:  1.107e-03  cgtest: -2.845e-02  t[s]:      4.92
LCAOMinimize: Converged (|Delta F|<1.000000e-06 for 2 iters).


---- Citations for features of the code used in this run ----

   Software package:
      R. Sundararaman, K. Letchworth-Weaver, K.A. Schwarz, D. Gunceler, Y. Ozhabes and T.A. Arias, 'JDFTx: software for joint density-functional theory', SoftwareX 6, 278 (2017)

   gga-PBE exchange-correlation functional:
      J.P. Perdew, K. Burke and M. Ernzerhof, Phys. Rev. Lett. 77, 3865 (1996)

   Pseudopotentials:
      M Schlipf and F Gygi, Comput. Phys. Commun. 196, 36 (2015)

   Truncated Coulomb potentials:
      R. Sundararaman and T.A. Arias, Phys. Rev. B 87, 165122 (2013)

This list may not be complete. Please suggest additional citations or
report any other bugs at https://github.com/shankar1729/jdftx/issues

Initialization completed successfully at t[s]:      4.98


-------- Electronic minimization -----------
Will mix electronic density at each iteration.
	FillingsUpdate:  mu: +0.325389104  nElectrons: 3.000000  magneticMoment: [ Abs: 0.30079  Tot: -0.30000 ]
	FillingsUpdate:  mu: -0.971301268  nElectrons: 3.000000  magneticMoment: [ Abs: 0.30079  Tot: -0.30000 ]
SCF: Cycle:  0   F: -6.832127126569423   dF: -5.650e+00   |Residual|: 1.172e+00   |deigs|: 4.171e+00  t[s]:      6.73
	FillingsUpdate:  mu: -0.855057610  nElectrons: 3.000000  magneticMoment: [ Abs: 0.45624  Tot: -0.30000 ]
SCF: Cycle:  1   F: -6.937793484029990   dF: -1.057e-01   |Residual|: 7.737e-01   |deigs|: 2.351e-01  t[s]:      8.04
	FillingsUpdate:  mu: -0.629918160  nElectrons: 3.000000  magneticMoment: [ Abs: 0.59358  Tot: -0.30000 ]
SCF: Cycle:  2   F: -7.050309493237382   dF: -1.125e-01   |Residual|: 4.221e-01   |deigs|: 7.792e-01  t[s]:      9.41
	FillingsUpdate:  mu: -0.654502637  nElectrons: 3.000000  magneticMoment: [ Abs: 0.50443  Tot: -0.30000 ]
SCF: Cycle:  3   F: -7.057712097143654   dF: -7.403e-03   |Residual|: 2.104e-01   |deigs|: 1.235e-01  t[s]:     10.75
	FillingsUpdate:  mu: -0.620297867  nElectrons: 3.000000  magneticMoment: [ Abs: 0.39124  Tot: -0.30000 ]
SCF: Cycle:  4   F: -7.056373121629536   dF: +1.339e-03   |Residual|: 3.884e-02   |deigs|: 3.445e-02  t[s]:     12.23
	FillingsUpdate:  mu: -0.588391032  nElectrons: 3.000000  magneticMoment: [ Abs: 0.37888  Tot: -0.30000 ]
SCF: Cycle:  5   F: -7.055337888181379   dF: +1.035e-03   |Residual|: 1.452e-01   |deigs|: 2.637e-02  t[s]:     13.61
	FillingsUpdate:  mu: -0.468854633  nElectrons: 3.000000  magneticMoment: [ Abs: 0.44894  Tot: -0.30000 ]
SCF: Cycle:  6   F: -7.060047310602537   dF: -4.709e-03   |Residual|: 1.038e-01   |deigs|: 1.497e-01  t[s]:     15.09
	FillingsUpdate:  mu: -0.416001564  nElectrons: 3.000000  magneticMoment: [ Abs: 0.38862  Tot: -0.30000 ]
SCF: Cycle:  7   F: -7.061033256970060   dF: -9.859e-04   |Residual|: 1.614e-01   |deigs|: 1.232e-01  t[s]:     16.56
	FillingsUpdate:  mu: -0.385307804  nElectrons: 3.000000  magneticMoment: [ Abs: 0.36792  Tot: -0.30000 ]
SCF: Cycle:  8   F: -7.063240495755066   dF: -2.207e-03   |Residual|: 6.214e-02   |deigs|: 3.179e-02  t[s]:     18.03
	FillingsUpdate:  mu: -0.330127943  nElectrons: 3.000000  magneticMoment: [ Abs: 0.40343  Tot: -0.30000 ]
SCF: Cycle:  9   F: -7.064310956968377   dF: -1.070e-03   |Residual|: 1.844e-01   |deigs|: 7.790e-02  t[s]:     19.56
	FillingsUpdate:  mu: -0.307782044  nElectrons: 3.000000  magneticMoment: [ Abs: 0.39972  Tot: -0.30000 ]
SCF: Cycle: 10   F: -7.064474050558020   dF: -1.631e-04   |Residual|: 1.822e-01   |deigs|: 2.213e-02  t[s]:     21.09
	FillingsUpdate:  mu: -0.245120775  nElectrons: 3.000000  magneticMoment: [ Abs: 0.39841  Tot: -0.30000 ]
SCF: Cycle: 11   F: -7.066632774281281   dF: -2.159e-03   |Residual|: 1.527e-02   |deigs|: 1.179e-01  t[s]:     22.69
	FillingsUpdate:  mu: -0.217030181  nElectrons: 3.000000  magneticMoment: [ Abs: 0.39941  Tot: -0.30000 ]
SCF: Cycle: 12   F: -7.066858429023784   dF: -2.257e-04   |Residual|: 1.422e-02   |deigs|: 2.689e-02  t[s]:     24.21
	FillingsUpdate:  mu: -0.183173610  nElectrons: 3.000000  magneticMoment: [ Abs: 0.38495  Tot: -0.30000 ]
SCF: Cycle: 13   F: -7.067118202480510   dF: -2.598e-04   |Residual|: 1.217e-02   |deigs|: 3.572e-02  t[s]:     25.74
	FillingsUpdate:  mu: -0.140652163  nElectrons: 3.000000  magneticMoment: [ Abs: 0.36159  Tot: -0.30000 ]
SCF: Cycle: 14   F: -7.067105759954908   dF: +1.244e-05   |Residual|: 9.078e-03   |deigs|: 4.534e-02  t[s]:     27.30
	FillingsUpdate:  mu: -0.132502003  nElectrons: 3.000000  magneticMoment: [ Abs: 0.34787  Tot: -0.30000 ]
SCF: Cycle: 15   F: -7.067182011599508   dF: -7.625e-05   |Residual|: 6.821e-03   |deigs|: 6.516e-03  t[s]:     28.80
	FillingsUpdate:  mu: -0.122906067  nElectrons: 3.000000  magneticMoment: [ Abs: 0.33396  Tot: -0.30000 ]
SCF: Cycle: 16   F: -7.067306976583611   dF: -1.250e-04   |Residual|: 4.383e-03   |deigs|: 8.717e-03  t[s]:     30.41
	FillingsUpdate:  mu: -0.117437029  nElectrons: 3.000000  magneticMoment: [ Abs: 0.32089  Tot: -0.30000 ]
SCF: Cycle: 17   F: -7.067384672400036   dF: -7.770e-05   |Residual|: 3.057e-03   |deigs|: 5.616e-03  t[s]:     31.96
	FillingsUpdate:  mu: -0.113908990  nElectrons: 3.000000  magneticMoment: [ Abs: 0.31676  Tot: -0.30000 ]
SCF: Cycle: 18   F: -7.067432683801684   dF: -4.801e-05   |Residual|: 1.796e-03   |deigs|: 4.132e-03  t[s]:     33.47
	FillingsUpdate:  mu: -0.113194768  nElectrons: 3.000000  magneticMoment: [ Abs: 0.31336  Tot: -0.30000 ]
SCF: Cycle: 19   F: -7.067446890275434   dF: -1.421e-05   |Residual|: 1.182e-03   |deigs|: 1.003e-03  t[s]:     35.02
	FillingsUpdate:  mu: -0.112182236  nElectrons: 3.000000  magneticMoment: [ Abs: 0.31067  Tot: -0.30000 ]
SCF: Cycle: 20   F: -7.067460632344652   dF: -1.374e-05   |Residual|: 6.407e-04   |deigs|: 1.007e-03  t[s]:     36.59
	FillingsUpdate:  mu: -0.111738971  nElectrons: 3.000000  magneticMoment: [ Abs: 0.30880  Tot: -0.30000 ]
SCF: Cycle: 21   F: -7.067464075639866   dF: -3.443e-06   |Residual|: 4.175e-04   |deigs|: 4.054e-04  t[s]:     38.11
	FillingsUpdate:  mu: -0.111160053  nElectrons: 3.000000  magneticMoment: [ Abs: 0.30752  Tot: -0.30000 ]
SCF: Cycle: 22   F: -7.067464762288646   dF: -6.866e-07   |Residual|: 2.852e-04   |deigs|: 5.741e-04  t[s]:     39.71
	FillingsUpdate:  mu: -0.110697086  nElectrons: 3.000000  magneticMoment: [ Abs: 0.30625  Tot: -0.30000 ]
SCF: Cycle: 23   F: -7.067465972560405   dF: -1.210e-06   |Residual|: 2.336e-04   |deigs|: 4.883e-04  t[s]:     41.36
	FillingsUpdate:  mu: -0.110360696  nElectrons: 3.000000  magneticMoment: [ Abs: 0.30453  Tot: -0.30000 ]
SCF: Cycle: 24   F: -7.067466184045978   dF: -2.115e-07   |Residual|: 1.970e-04   |deigs|: 3.906e-04  t[s]:     42.90
	FillingsUpdate:  mu: -0.110058885  nElectrons: 3.000000  magneticMoment: [ Abs: 0.30260  Tot: -0.30000 ]
SCF: Cycle: 25   F: -7.067466394550402   dF: -2.105e-07   |Residual|: 1.677e-04   |deigs|: 3.268e-04  t[s]:     44.42
	FillingsUpdate:  mu: -0.110090018  nElectrons: 3.000000  magneticMoment: [ Abs: 0.30165  Tot: -0.30000 ]
SCF: Cycle: 26   F: -7.067466668065657   dF: -2.735e-07   |Residual|: 1.333e-04   |deigs|: 4.062e-05  t[s]:     45.99
	FillingsUpdate:  mu: -0.110184516  nElectrons: 3.000000  magneticMoment: [ Abs: 0.30088  Tot: -0.30000 ]
SCF: Cycle: 27   F: -7.067466707901993   dF: -3.984e-08   |Residual|: 1.019e-04   |deigs|: 1.135e-04  t[s]:     47.49
	FillingsUpdate:  mu: -0.110304937  nElectrons: 3.000000  magneticMoment: [ Abs: 0.30049  Tot: -0.30000 ]
SCF: Cycle: 28   F: -7.067466751512395   dF: -4.361e-08   |Residual|: 7.799e-05   |deigs|: 1.416e-04  t[s]:     48.99
	FillingsUpdate:  mu: -0.110460108  nElectrons: 3.000000  magneticMoment: [ Abs: 0.30025  Tot: -0.30000 ]
SCF: Cycle: 29   F: -7.067466780691443   dF: -2.918e-08   |Residual|: 6.684e-05   |deigs|: 1.736e-04  t[s]:     50.52
	FillingsUpdate:  mu: -0.110734810  nElectrons: 3.000000  magneticMoment: [ Abs: 0.30009  Tot: -0.30000 ]
SCF: Cycle: 30   F: -7.067466809854922   dF: -2.916e-08   |Residual|: 5.400e-05   |deigs|: 2.931e-04  t[s]:     52.02
	FillingsUpdate:  mu: -0.110932058  nElectrons: 3.000000  magneticMoment: [ Abs: 0.30004  Tot: -0.30000 ]
SCF: Cycle: 31   F: -7.067466892322469   dF: -8.247e-08   |Residual|: 4.005e-05   |deigs|: 2.062e-04  t[s]:     53.51
	FillingsUpdate:  mu: -0.110991635  nElectrons: 3.000000  magneticMoment: [ Abs: 0.30001  Tot: -0.30000 ]
SCF: Cycle: 32   F: -7.067466908571051   dF: -1.625e-08   |Residual|: 2.872e-05   |deigs|: 7.664e-05  t[s]:     54.98
	FillingsUpdate:  mu: -0.111020283  nElectrons: 3.000000  magneticMoment: [ Abs: 0.30000  Tot: -0.30000 ]
SCF: Cycle: 33   F: -7.067466913057615   dF: -4.487e-09   |Residual|: 2.019e-05   |deigs|: 6.365e-05  t[s]:     56.49
	FillingsUpdate:  mu: -0.111041582  nElectrons: 3.000000  magneticMoment: [ Abs: 0.30000  Tot: -0.30000 ]
SCF: Cycle: 34   F: -7.067466914094754   dF: -1.037e-09   |Residual|: 1.398e-05   |deigs|: 6.354e-05  t[s]:     58.01
SCF: Converged (|Delta E|<1.000000e-08 for 2 iters).


# Ionic positions in lattice coordinates:
ion Li   0.000000000000000   0.000000000000000   0.000000000000000 0

# Forces in Lattice coordinates:
force Li   0.000000000000000   0.000000000000000   0.000000000000000 0

# Energy components:
   Eewald =       -2.0053362333702967
       EH =        1.5296141985285610
     Eloc =       -6.1905459606491764
      Enl =       -3.5904086362685770
   Epulay =        0.0000032255226020
      Exc =       -1.5379660322969990
       KE =        4.7271733642627014
-------------------------------------
     Etot =       -7.0674660742711852
       TS =        0.0000008398235688
-------------------------------------
        F =       -7.0674669140947541

IonicMinimize: Iter:   0  F: -7.067466914094754  |grad|_K:  0.000e+00  t[s]:     58.08
IonicMinimize: Converged (|grad|_K<1.000000e-04).

#--- Lowdin population analysis ---
# oxidation-state Li +2.172
# magnetic-moments Li -0.208

End date and time: Sat Feb  5 22:54:17 2022  (Duration: 0-0:00:58.10)
Done!
