
*************** JDFTx 1.6.0 (git hash 42ebbcc2) ***************

Start date and time: Sat Feb  5 22:45:58 2022
Executable jdftx with command-line: -i Alkali.in
Running on hosts (process indices):  d-6-13-4 (0-18)
Divided in process groups (process indices):  0 (0)  1 (1)  2 (2)  3 (3)  4 (4)  5 (5)  6 (6)  7 (7)  8 (8)  9 (9)  10 (10)  11 (11)  12 (12)  13 (13)  14 (14)  15 (15)  16 (16)  17 (17)  18 (18)
Resource initialization completed at t[s]:      0.00
Run totals: 19 processes, 48 threads, 0 GPUs


Input parsed successfully to the following command list (including defaults):

basis kpoint-dependent
coords-type Lattice
core-overlap-check vector
coulomb-interaction Slab 001
davidson-band-ratio 1.1
dump End None
dump-name $INPUT.$VAR
elec-cutoff 20
elec-eigen-algo Davidson
elec-ex-corr gga-PBE
elec-initial-magnetization -0.680000 yes
elec-smearing Fermi 1e-05
electronic-minimize  \
	dirUpdateScheme      FletcherReeves \
	linminMethod         DirUpdateRecommended \
	nIterations          100 \
	history              15 \
	knormThreshold       0 \
	energyDiffThreshold  1e-08 \
	nEnergyDiff          2 \
	alphaTstart          1 \
	alphaTmin            1e-10 \
	updateTestStepSize   yes \
	alphaTreduceFactor   0.1 \
	alphaTincreaseFactor 3 \
	nAlphaAdjustMax      3 \
	wolfeEnergy          0.0001 \
	wolfeGradient        0.9 \
	fdTest               no
electronic-scf  \
	nIterations	10000 \
	energyDiffThreshold	1e-08 \
	residualThreshold	1e-07 \
	mixFraction	0.5 \
	qMetric	0.8 \
	history	10 \
	nEigSteps	2 \
	eigDiffThreshold	1e-08 \
	mixedVariable	Density \
	qKerker	0.8 \
	qKappa	-1 \
	verbose	no \
	mixFractionMag	1.5
exchange-regularization WignerSeitzTruncated
fluid None
fluid-ex-corr (null) lda-PZ
fluid-gummel-loop 10 1.000000e-05
fluid-minimize  \
	dirUpdateScheme      PolakRibiere \
	linminMethod         DirUpdateRecommended \
	nIterations          100 \
	history              15 \
	knormThreshold       0 \
	energyDiffThreshold  0 \
	nEnergyDiff          2 \
	alphaTstart          1 \
	alphaTmin            1e-10 \
	updateTestStepSize   yes \
	alphaTreduceFactor   0.1 \
	alphaTincreaseFactor 3 \
	nAlphaAdjustMax      3 \
	wolfeEnergy          0.0001 \
	wolfeGradient        0.9 \
	fdTest               no
fluid-solvent H2O 55.338 ScalarEOS \
	epsBulk 78.4 \
	pMol 0.92466 \
	epsInf 1.77 \
	Pvap 1.06736e-10 \
	sigmaBulk 4.62e-05 \
	Rvdw 2.61727 \
	Res 1.42 \
	tauNuc 343133 \
	poleEl 15 7 1
forces-output-coords Positions
ion Li   0.000000000000000   0.000000000000000   0.000000000000000 0
ion-species SG15/$ID_ONCV_PBE.upf
ion-width 0
ionic-minimize  \
	dirUpdateScheme      L-BFGS \
	linminMethod         DirUpdateRecommended \
	nIterations          0 \
	history              15 \
	knormThreshold       0.0001 \
	energyDiffThreshold  1e-06 \
	nEnergyDiff          2 \
	alphaTstart          1 \
	alphaTmin            1e-10 \
	updateTestStepSize   yes \
	alphaTreduceFactor   0.1 \
	alphaTincreaseFactor 3 \
	nAlphaAdjustMax      3 \
	wolfeEnergy          0.0001 \
	wolfeGradient        0.9 \
	fdTest               no
kpoint   0.000000000000   0.000000000000   0.000000000000  1.00000000000000
kpoint-folding 12 12 1 
latt-move-scale 1 1 1
latt-scale 2 2 1 
lattice  \
	   4.727486978767153   -2.363743489383575    0.000000000000000  \
	  -0.000000000000000    4.094123819672498    0.000000000000000  \
	   0.000000000000000    0.000000000000000   40.000000000000000 
lattice-minimize  \
	dirUpdateScheme      L-BFGS \
	linminMethod         DirUpdateRecommended \
	nIterations          0 \
	history              15 \
	knormThreshold       0 \
	energyDiffThreshold  1e-06 \
	nEnergyDiff          2 \
	alphaTstart          1 \
	alphaTmin            1e-10 \
	updateTestStepSize   yes \
	alphaTreduceFactor   0.1 \
	alphaTincreaseFactor 3 \
	nAlphaAdjustMax      3 \
	wolfeEnergy          0.0001 \
	wolfeGradient        0.9 \
	fdTest               no
lcao-params -1 1e-06 1e-05
pcm-variant GLSSA13
spintype z-spin
subspace-rotation-factor 1 yes
symmetries automatic
symmetry-threshold 0.0001



---------- Setting up symmetries ----------

Found 24 point-group symmetries of the bravais lattice
Found 24 space-group symmetries with basis
Applied RMS atom displacement 0 bohrs to make symmetries exact.

---------- Initializing the Grid ----------
R = 
[      9.45497     -4.72749            0  ]
[            0      8.18825            0  ]
[            0            0           40  ]
unit cell volume = 3096.79
G =
[   0.664538   0.383671         -0  ]
[          0   0.767342         -0  ]
[         -0         -0    0.15708  ]
Minimum fftbox size, Smin = [  40  40  164  ]
Chosen fftbox size, S = [  40  40  168  ]

---------- Exchange Correlation functional ----------
Initalized PBE GGA exchange.
Initalized PBE GGA correlation.

---------- Setting up pseudopotentials ----------
Width of ionic core gaussian charges (only for fluid interactions / plotting) set to 0

Reading pseudopotential file '/home/gridsan/aligho/DFT/build-Nov24/pseudopotentials/SG15/Li_ONCV_PBE.upf':
  'Li' pseudopotential, 'PBE' functional
  Generated using ONCVPSP code by D. R. Hamann
  Author: Martin Schlipf and Francois Gygi  Date: 150915.
  3 valence electrons, 2 orbitals, 4 projectors, 1328 radial grid points, with lMax = 1
  Transforming local potential to a uniform radial grid of dG=0.02 with 1489 points.
  Transforming nonlocal projectors to a uniform radial grid of dG=0.02 with 432 points.
    1S    l: 0   occupation:  2.0   eigenvalue: -1.905623
    2S    l: 0   occupation:  1.0   eigenvalue: -0.105624
  Transforming atomic orbitals to a uniform radial grid of dG=0.02 with 432 points.
  WARNING: large normalization error in atomic orbital 1s (integral: 0.000000).
  Core radius for overlap checks: 1.63 bohrs.
  Reading pulay file /home/gridsan/aligho/DFT/build-Nov24/pseudopotentials/SG15/Li_ONCV_PBE.pulay ... using dE_dnG = -1.230239e-02 computed for Ecut = 20.

Initialized 1 species with 1 total atoms.

Folded 1 k-points by 12x12x1 to 144 k-points.

---------- Setting up k-points, bands, fillings ----------
Reduced to 19 k-points under symmetry. 
Computing the number of bands and number of electrons
Calculating initial fillings.
nElectrons:   3.000000   nBands: 3   nStates: 38

----- Setting up reduced wavefunction bases (one per k-point) -----
average nbasis = 13230.521 , ideal nbasis = 13229.709

---------- Setting up coulomb interaction ----------
Initialized slab truncation along lattice direction 001

---------- Setting up 2D ewald sum ----------
Optimum gaussian width for ewald sums = 5.249020 bohr.
Real space sums over 289 unit cells with max indices [  8  8  0  ]
Reciprocal space sums over 81 terms with max indices [  4  4  0  ]

---------- Allocating electronic variables ----------
Initializing wave functions:  linear combination of atomic orbitals
Note: number of bands (3) exceeds available atomic orbitals (2)
Li pseudo-atom occupations:   s ( 2 1 )
	FillingsUpdate:  mu: +0.331584485  nElectrons: 3.000000  magneticMoment: [ Abs: 0.68000  Tot: -0.68000 ]
LCAOMinimize: Iter:   0  F: -1.1794601006116052  |grad|_K:  6.527e-05  alpha:  1.000e+00
	FillingsUpdate:  mu: +0.331583527  nElectrons: 3.000000  magneticMoment: [ Abs: 0.68000  Tot: -0.68000 ]
LCAOMinimize: Iter:   1  F: -1.1794608646384683  |grad|_K:  1.592e-06  alpha:  1.049e+00  linmin: -1.970e-03  cgtest:  2.435e-02  t[s]:      3.89
	FillingsUpdate:  mu: +0.331583534  nElectrons: 3.000000  magneticMoment: [ Abs: 0.68000  Tot: -0.68000 ]
LCAOMinimize: Iter:   2  F: -1.1794608650828873  |grad|_K:  6.291e-08  alpha:  1.028e+00  linmin:  2.946e-03  cgtest: -7.507e-02  t[s]:      4.91
LCAOMinimize: Converged (|Delta F|<1.000000e-06 for 2 iters).


---- Citations for features of the code used in this run ----

   Software package:
      R. Sundararaman, K. Letchworth-Weaver, K.A. Schwarz, D. Gunceler, Y. Ozhabes and T.A. Arias, 'JDFTx: software for joint density-functional theory', SoftwareX 6, 278 (2017)

   gga-PBE exchange-correlation functional:
      J.P. Perdew, K. Burke and M. Ernzerhof, Phys. Rev. Lett. 77, 3865 (1996)

   Pseudopotentials:
      M Schlipf and F Gygi, Comput. Phys. Commun. 196, 36 (2015)

   Truncated Coulomb potentials:
      R. Sundararaman and T.A. Arias, Phys. Rev. B 87, 165122 (2013)

This list may not be complete. Please suggest additional citations or
report any other bugs at https://github.com/shankar1729/jdftx/issues

Initialization completed successfully at t[s]:      4.97


-------- Electronic minimization -----------
Will mix electronic density at each iteration.
	FillingsUpdate:  mu: +0.331583534  nElectrons: 3.000000  magneticMoment: [ Abs: 0.68000  Tot: -0.68000 ]
	FillingsUpdate:  mu: -0.971954010  nElectrons: 3.000000  magneticMoment: [ Abs: 0.68000  Tot: -0.68000 ]
SCF: Cycle:  0   F: -6.841262164303586   dF: -5.662e+00   |Residual|: 1.174e+00   |deigs|: 4.172e+00  t[s]:      6.63
	FillingsUpdate:  mu: -0.852655998  nElectrons: 3.000000  magneticMoment: [ Abs: 1.03642  Tot: -0.68000 ]
SCF: Cycle:  1   F: -6.933843345466837   dF: -9.258e-02   |Residual|: 7.761e-01   |deigs|: 2.373e-01  t[s]:      8.02
	FillingsUpdate:  mu: -0.656824586  nElectrons: 3.000000  magneticMoment: [ Abs: 1.34098  Tot: -0.68000 ]
SCF: Cycle:  2   F: -7.045752862700858   dF: -1.119e-01   |Residual|: 4.190e-01   |deigs|: 7.719e-01  t[s]:      9.33
	FillingsUpdate:  mu: -0.668708222  nElectrons: 3.000000  magneticMoment: [ Abs: 1.10942  Tot: -0.68000 ]
SCF: Cycle:  3   F: -7.053168205695278   dF: -7.415e-03   |Residual|: 1.932e-01   |deigs|: 1.288e-01  t[s]:     10.74
	FillingsUpdate:  mu: -0.618703352  nElectrons: 3.000000  magneticMoment: [ Abs: 0.86675  Tot: -0.68000 ]
SCF: Cycle:  4   F: -7.053060223169301   dF: +1.080e-04   |Residual|: 4.048e-02   |deigs|: 3.866e-02  t[s]:     12.12
	FillingsUpdate:  mu: -0.597698061  nElectrons: 3.000000  magneticMoment: [ Abs: 0.83586  Tot: -0.68000 ]
SCF: Cycle:  5   F: -7.053461676045919   dF: -4.015e-04   |Residual|: 7.445e-02   |deigs|: 1.767e-02  t[s]:     13.53
	FillingsUpdate:  mu: -0.463589476  nElectrons: 3.000000  magneticMoment: [ Abs: 0.95662  Tot: -0.68000 ]
SCF: Cycle:  6   F: -7.057392839533567   dF: -3.931e-03   |Residual|: 9.761e-02   |deigs|: 1.500e-01  t[s]:     14.95
	FillingsUpdate:  mu: -0.444878241  nElectrons: 3.000000  magneticMoment: [ Abs: 0.88346  Tot: -0.68000 ]
SCF: Cycle:  7   F: -7.058008862417961   dF: -6.160e-04   |Residual|: 3.983e-02   |deigs|: 4.749e-02  t[s]:     16.40
	FillingsUpdate:  mu: -0.405743126  nElectrons: 3.000000  magneticMoment: [ Abs: 0.84575  Tot: -0.68000 ]
SCF: Cycle:  8   F: -7.059946444249067   dF: -1.938e-03   |Residual|: 5.448e-02   |deigs|: 4.117e-02  t[s]:     17.86
	FillingsUpdate:  mu: -0.363787610  nElectrons: 3.000000  magneticMoment: [ Abs: 0.80899  Tot: -0.68000 ]
SCF: Cycle:  9   F: -7.061808118189004   dF: -1.862e-03   |Residual|: 2.228e-02   |deigs|: 3.364e-02  t[s]:     19.33
	FillingsUpdate:  mu: -0.331519115  nElectrons: 3.000000  magneticMoment: [ Abs: 0.79959  Tot: -0.68000 ]
SCF: Cycle: 10   F: -7.062693244640627   dF: -8.851e-04   |Residual|: 2.637e-02   |deigs|: 2.704e-02  t[s]:     20.86
	FillingsUpdate:  mu: -0.288407160  nElectrons: 3.000000  magneticMoment: [ Abs: 0.85211  Tot: -0.68000 ]
SCF: Cycle: 11   F: -7.063143586110304   dF: -4.503e-04   |Residual|: 1.858e-02   |deigs|: 4.657e-02  t[s]:     22.39
	FillingsUpdate:  mu: -0.246791935  nElectrons: 3.000000  magneticMoment: [ Abs: 0.86309  Tot: -0.68000 ]
SCF: Cycle: 12   F: -7.063443623280674   dF: -3.000e-04   |Residual|: 1.291e-02   |deigs|: 4.386e-02  t[s]:     23.92
	FillingsUpdate:  mu: -0.206261558  nElectrons: 3.000000  magneticMoment: [ Abs: 0.83860  Tot: -0.68000 ]
SCF: Cycle: 13   F: -7.063781973642890   dF: -3.384e-04   |Residual|: 1.194e-02   |deigs|: 4.119e-02  t[s]:     25.42
	FillingsUpdate:  mu: -0.171065030  nElectrons: 3.000000  magneticMoment: [ Abs: 0.79332  Tot: -0.68000 ]
SCF: Cycle: 14   F: -7.063868828598023   dF: -8.685e-05   |Residual|: 9.479e-03   |deigs|: 3.589e-02  t[s]:     26.93
	FillingsUpdate:  mu: -0.138126756  nElectrons: 3.000000  magneticMoment: [ Abs: 0.76324  Tot: -0.68000 ]
SCF: Cycle: 15   F: -7.063839524350571   dF: +2.930e-05   |Residual|: 7.100e-03   |deigs|: 3.247e-02  t[s]:     28.45
	FillingsUpdate:  mu: -0.122471320  nElectrons: 3.000000  magneticMoment: [ Abs: 0.74850  Tot: -0.68000 ]
SCF: Cycle: 16   F: -7.064069426837274   dF: -2.299e-04   |Residual|: 5.458e-03   |deigs|: 1.619e-02  t[s]:     30.00
	FillingsUpdate:  mu: -0.116433242  nElectrons: 3.000000  magneticMoment: [ Abs: 0.72384  Tot: -0.68000 ]
SCF: Cycle: 17   F: -7.064254824014174   dF: -1.854e-04   |Residual|: 3.433e-03   |deigs|: 6.798e-03  t[s]:     31.51
	FillingsUpdate:  mu: -0.113451181  nElectrons: 3.000000  magneticMoment: [ Abs: 0.70642  Tot: -0.68000 ]
SCF: Cycle: 18   F: -7.064335125340960   dF: -8.030e-05   |Residual|: 2.287e-03   |deigs|: 3.135e-03  t[s]:     33.02
	FillingsUpdate:  mu: -0.113057452  nElectrons: 3.000000  magneticMoment: [ Abs: 0.69622  Tot: -0.68000 ]
SCF: Cycle: 19   F: -7.064362126314909   dF: -2.700e-05   |Residual|: 1.502e-03   |deigs|: 8.101e-04  t[s]:     34.51
	FillingsUpdate:  mu: -0.112687545  nElectrons: 3.000000  magneticMoment: [ Abs: 0.69144  Tot: -0.68000 ]
SCF: Cycle: 20   F: -7.064371044077817   dF: -8.918e-06   |Residual|: 9.611e-04   |deigs|: 4.390e-04  t[s]:     36.02
	FillingsUpdate:  mu: -0.111468331  nElectrons: 3.000000  magneticMoment: [ Abs: 0.68850  Tot: -0.68000 ]
SCF: Cycle: 21   F: -7.064376683734786   dF: -5.640e-06   |Residual|: 6.836e-04   |deigs|: 1.324e-03  t[s]:     37.56
	FillingsUpdate:  mu: -0.110501605  nElectrons: 3.000000  magneticMoment: [ Abs: 0.68718  Tot: -0.68000 ]
SCF: Cycle: 22   F: -7.064377970331280   dF: -1.287e-06   |Residual|: 5.588e-04   |deigs|: 1.133e-03  t[s]:     39.08
	FillingsUpdate:  mu: -0.109562715  nElectrons: 3.000000  magneticMoment: [ Abs: 0.68591  Tot: -0.68000 ]
SCF: Cycle: 23   F: -7.064378538953126   dF: -5.686e-07   |Residual|: 4.239e-04   |deigs|: 1.067e-03  t[s]:     40.58
	FillingsUpdate:  mu: -0.108843639  nElectrons: 3.000000  magneticMoment: [ Abs: 0.68433  Tot: -0.68000 ]
SCF: Cycle: 24   F: -7.064380108387665   dF: -1.569e-06   |Residual|: 3.165e-04   |deigs|: 7.356e-04  t[s]:     42.12
	FillingsUpdate:  mu: -0.108537880  nElectrons: 3.000000  magneticMoment: [ Abs: 0.68325  Tot: -0.68000 ]
SCF: Cycle: 25   F: -7.064380340771883   dF: -2.324e-07   |Residual|: 2.048e-04   |deigs|: 2.863e-04  t[s]:     43.62
	FillingsUpdate:  mu: -0.108502223  nElectrons: 3.000000  magneticMoment: [ Abs: 0.68201  Tot: -0.68000 ]
SCF: Cycle: 26   F: -7.064381103012567   dF: -7.622e-07   |Residual|: 1.284e-04   |deigs|: 7.260e-05  t[s]:     45.13
	FillingsUpdate:  mu: -0.108699724  nElectrons: 3.000000  magneticMoment: [ Abs: 0.68123  Tot: -0.68000 ]
SCF: Cycle: 27   F: -7.064381253072275   dF: -1.501e-07   |Residual|: 8.041e-05   |deigs|: 2.229e-04  t[s]:     46.65
	FillingsUpdate:  mu: -0.108908274  nElectrons: 3.000000  magneticMoment: [ Abs: 0.68064  Tot: -0.68000 ]
SCF: Cycle: 28   F: -7.064381313168185   dF: -6.010e-08   |Residual|: 5.915e-05   |deigs|: 2.056e-04  t[s]:     48.18
	FillingsUpdate:  mu: -0.109053671  nElectrons: 3.000000  magneticMoment: [ Abs: 0.68028  Tot: -0.68000 ]
SCF: Cycle: 29   F: -7.064381315767100   dF: -2.599e-09   |Residual|: 5.474e-05   |deigs|: 1.432e-04  t[s]:     49.69
	FillingsUpdate:  mu: -0.109184168  nElectrons: 3.000000  magneticMoment: [ Abs: 0.68013  Tot: -0.68000 ]
SCF: Cycle: 30   F: -7.064381350810440   dF: -3.504e-08   |Residual|: 4.242e-05   |deigs|: 1.309e-04  t[s]:     51.20
	FillingsUpdate:  mu: -0.109284017  nElectrons: 3.000000  magneticMoment: [ Abs: 0.68002  Tot: -0.68000 ]
SCF: Cycle: 31   F: -7.064381385918831   dF: -3.511e-08   |Residual|: 2.844e-05   |deigs|: 1.081e-04  t[s]:     52.71
	FillingsUpdate:  mu: -0.109347141  nElectrons: 3.000000  magneticMoment: [ Abs: 0.68002  Tot: -0.68000 ]
SCF: Cycle: 32   F: -7.064381411071547   dF: -2.515e-08   |Residual|: 1.588e-05   |deigs|: 6.922e-05  t[s]:     54.21
	FillingsUpdate:  mu: -0.109372861  nElectrons: 3.000000  magneticMoment: [ Abs: 0.68000  Tot: -0.68000 ]
SCF: Cycle: 33   F: -7.064381415659144   dF: -4.588e-09   |Residual|: 1.187e-05   |deigs|: 3.874e-05  t[s]:     55.79
	FillingsUpdate:  mu: -0.109383469  nElectrons: 3.000000  magneticMoment: [ Abs: 0.68000  Tot: -0.68000 ]
SCF: Cycle: 34   F: -7.064381416272743   dF: -6.136e-10   |Residual|: 9.670e-06   |deigs|: 3.245e-05  t[s]:     57.31
SCF: Converged (|Delta E|<1.000000e-08 for 2 iters).


# Ionic positions in lattice coordinates:
ion Li   0.000000000000000   0.000000000000000   0.000000000000000 0

# Forces in Lattice coordinates:
force Li  -0.000000000000000   0.000000000000000   0.000000000000000 0

# Energy components:
   Eewald =       -2.0053362333702967
       EH =        1.5382912944391556
     Eloc =       -6.2005471869310895
      Enl =       -3.5899718916818610
   Epulay =        0.0000032255226020
      Exc =       -1.5423775234630845
       KE =        4.7355574501618971
-------------------------------------
     Etot =       -7.0643808653226756
       TS =        0.0000005509500668
-------------------------------------
        F =       -7.0643814162727425

IonicMinimize: Iter:   0  F: -7.064381416272743  |grad|_K:  0.000e+00  t[s]:     57.38
IonicMinimize: Converged (|grad|_K<1.000000e-04).

#--- Lowdin population analysis ---
# oxidation-state Li +2.220
# magnetic-moments Li -0.474

End date and time: Sat Feb  5 22:46:55 2022  (Duration: 0-0:00:57.39)
Done!
