
*************** JDFTx 1.6.0 (git hash 42ebbcc2) ***************

Start date and time: Sat Feb  5 22:59:55 2022
Executable jdftx with command-line: -i Alkali.in
Running on hosts (process indices):  d-4-6-1 (0-18)
Divided in process groups (process indices):  0 (0)  1 (1)  2 (2)  3 (3)  4 (4)  5 (5)  6 (6)  7 (7)  8 (8)  9 (9)  10 (10)  11 (11)  12 (12)  13 (13)  14 (14)  15 (15)  16 (16)  17 (17)  18 (18)
Resource initialization completed at t[s]:      0.00
Run totals: 19 processes, 48 threads, 0 GPUs


Input parsed successfully to the following command list (including defaults):

basis kpoint-dependent
coords-type Lattice
core-overlap-check vector
coulomb-interaction Slab 001
davidson-band-ratio 1.1
dump End None
dump-name $INPUT.$VAR
elec-cutoff 20
elec-eigen-algo Davidson
elec-ex-corr gga-PBE
elec-initial-magnetization 0.080000 yes
elec-smearing Fermi 1e-05
electronic-minimize  \
	dirUpdateScheme      FletcherReeves \
	linminMethod         DirUpdateRecommended \
	nIterations          100 \
	history              15 \
	knormThreshold       0 \
	energyDiffThreshold  1e-08 \
	nEnergyDiff          2 \
	alphaTstart          1 \
	alphaTmin            1e-10 \
	updateTestStepSize   yes \
	alphaTreduceFactor   0.1 \
	alphaTincreaseFactor 3 \
	nAlphaAdjustMax      3 \
	wolfeEnergy          0.0001 \
	wolfeGradient        0.9 \
	fdTest               no
electronic-scf  \
	nIterations	10000 \
	energyDiffThreshold	1e-08 \
	residualThreshold	1e-07 \
	mixFraction	0.5 \
	qMetric	0.8 \
	history	10 \
	nEigSteps	2 \
	eigDiffThreshold	1e-08 \
	mixedVariable	Density \
	qKerker	0.8 \
	qKappa	-1 \
	verbose	no \
	mixFractionMag	1.5
exchange-regularization WignerSeitzTruncated
fluid None
fluid-ex-corr (null) lda-PZ
fluid-gummel-loop 10 1.000000e-05
fluid-minimize  \
	dirUpdateScheme      PolakRibiere \
	linminMethod         DirUpdateRecommended \
	nIterations          100 \
	history              15 \
	knormThreshold       0 \
	energyDiffThreshold  0 \
	nEnergyDiff          2 \
	alphaTstart          1 \
	alphaTmin            1e-10 \
	updateTestStepSize   yes \
	alphaTreduceFactor   0.1 \
	alphaTincreaseFactor 3 \
	nAlphaAdjustMax      3 \
	wolfeEnergy          0.0001 \
	wolfeGradient        0.9 \
	fdTest               no
fluid-solvent H2O 55.338 ScalarEOS \
	epsBulk 78.4 \
	pMol 0.92466 \
	epsInf 1.77 \
	Pvap 1.06736e-10 \
	sigmaBulk 4.62e-05 \
	Rvdw 2.61727 \
	Res 1.42 \
	tauNuc 343133 \
	poleEl 15 7 1
forces-output-coords Positions
ion Li   0.000000000000000   0.000000000000000   0.000000000000000 0
ion-species SG15/$ID_ONCV_PBE.upf
ion-width 0
ionic-minimize  \
	dirUpdateScheme      L-BFGS \
	linminMethod         DirUpdateRecommended \
	nIterations          0 \
	history              15 \
	knormThreshold       0.0001 \
	energyDiffThreshold  1e-06 \
	nEnergyDiff          2 \
	alphaTstart          1 \
	alphaTmin            1e-10 \
	updateTestStepSize   yes \
	alphaTreduceFactor   0.1 \
	alphaTincreaseFactor 3 \
	nAlphaAdjustMax      3 \
	wolfeEnergy          0.0001 \
	wolfeGradient        0.9 \
	fdTest               no
kpoint   0.000000000000   0.000000000000   0.000000000000  1.00000000000000
kpoint-folding 12 12 1 
latt-move-scale 1 1 1
latt-scale 2 2 1 
lattice  \
	   4.727486978767153   -2.363743489383575    0.000000000000000  \
	  -0.000000000000000    4.094123819672498    0.000000000000000  \
	   0.000000000000000    0.000000000000000   40.000000000000000 
lattice-minimize  \
	dirUpdateScheme      L-BFGS \
	linminMethod         DirUpdateRecommended \
	nIterations          0 \
	history              15 \
	knormThreshold       0 \
	energyDiffThreshold  1e-06 \
	nEnergyDiff          2 \
	alphaTstart          1 \
	alphaTmin            1e-10 \
	updateTestStepSize   yes \
	alphaTreduceFactor   0.1 \
	alphaTincreaseFactor 3 \
	nAlphaAdjustMax      3 \
	wolfeEnergy          0.0001 \
	wolfeGradient        0.9 \
	fdTest               no
lcao-params -1 1e-06 1e-05
pcm-variant GLSSA13
spintype z-spin
subspace-rotation-factor 1 yes
symmetries automatic
symmetry-threshold 0.0001



---------- Setting up symmetries ----------

Found 24 point-group symmetries of the bravais lattice
Found 24 space-group symmetries with basis
Applied RMS atom displacement 0 bohrs to make symmetries exact.

---------- Initializing the Grid ----------
R = 
[      9.45497     -4.72749            0  ]
[            0      8.18825            0  ]
[            0            0           40  ]
unit cell volume = 3096.79
G =
[   0.664538   0.383671         -0  ]
[          0   0.767342         -0  ]
[         -0         -0    0.15708  ]
Minimum fftbox size, Smin = [  40  40  164  ]
Chosen fftbox size, S = [  40  40  168  ]

---------- Exchange Correlation functional ----------
Initalized PBE GGA exchange.
Initalized PBE GGA correlation.

---------- Setting up pseudopotentials ----------
Width of ionic core gaussian charges (only for fluid interactions / plotting) set to 0

Reading pseudopotential file '/home/gridsan/aligho/DFT/build-Nov24/pseudopotentials/SG15/Li_ONCV_PBE.upf':
  'Li' pseudopotential, 'PBE' functional
  Generated using ONCVPSP code by D. R. Hamann
  Author: Martin Schlipf and Francois Gygi  Date: 150915.
  3 valence electrons, 2 orbitals, 4 projectors, 1328 radial grid points, with lMax = 1
  Transforming local potential to a uniform radial grid of dG=0.02 with 1489 points.
  Transforming nonlocal projectors to a uniform radial grid of dG=0.02 with 432 points.
    1S    l: 0   occupation:  2.0   eigenvalue: -1.905623
    2S    l: 0   occupation:  1.0   eigenvalue: -0.105624
  Transforming atomic orbitals to a uniform radial grid of dG=0.02 with 432 points.
  WARNING: large normalization error in atomic orbital 1s (integral: 0.000000).
  Core radius for overlap checks: 1.63 bohrs.
  Reading pulay file /home/gridsan/aligho/DFT/build-Nov24/pseudopotentials/SG15/Li_ONCV_PBE.pulay ... using dE_dnG = -1.230239e-02 computed for Ecut = 20.

Initialized 1 species with 1 total atoms.

Folded 1 k-points by 12x12x1 to 144 k-points.

---------- Setting up k-points, bands, fillings ----------
Reduced to 19 k-points under symmetry. 
Computing the number of bands and number of electrons
Calculating initial fillings.
nElectrons:   3.000000   nBands: 3   nStates: 38

----- Setting up reduced wavefunction bases (one per k-point) -----
average nbasis = 13230.521 , ideal nbasis = 13229.709

---------- Setting up coulomb interaction ----------
Initialized slab truncation along lattice direction 001

---------- Setting up 2D ewald sum ----------
Optimum gaussian width for ewald sums = 5.249020 bohr.
Real space sums over 289 unit cells with max indices [  8  8  0  ]
Reciprocal space sums over 81 terms with max indices [  4  4  0  ]

---------- Allocating electronic variables ----------
Initializing wave functions:  linear combination of atomic orbitals
Note: number of bands (3) exceeds available atomic orbitals (2)
Li pseudo-atom occupations:   s ( 2 1 )
	FillingsUpdate:  mu: +0.329232666  nElectrons: 3.000000  magneticMoment: [ Abs: 0.09939  Tot: +0.08000 ]
LCAOMinimize: Iter:   0  F: -1.1791926725095647  |grad|_K:  7.084e-05  alpha:  1.000e+00
	FillingsUpdate:  mu: +0.329230876  nElectrons: 3.000000  magneticMoment: [ Abs: 0.09940  Tot: +0.08000 ]
LCAOMinimize: Iter:   1  F: -1.1791935686876365  |grad|_K:  1.675e-06  alpha:  1.044e+00  linmin: -1.870e-03  cgtest:  2.773e-02  t[s]:      3.95
LCAOMinimize: Encountered beta<0, resetting CG.
	FillingsUpdate:  mu: +0.329230885  nElectrons: 3.000000  magneticMoment: [ Abs: 0.09940  Tot: +0.08000 ]
LCAOMinimize: Iter:   2  F: -1.1791935691729702  |grad|_K:  4.107e-08  alpha:  1.012e+00  linmin: -2.955e-03  cgtest:  7.758e-02  t[s]:      4.99
LCAOMinimize: Encountered beta<0, resetting CG.
LCAOMinimize: Converged (|Delta F|<1.000000e-06 for 2 iters).


---- Citations for features of the code used in this run ----

   Software package:
      R. Sundararaman, K. Letchworth-Weaver, K.A. Schwarz, D. Gunceler, Y. Ozhabes and T.A. Arias, 'JDFTx: software for joint density-functional theory', SoftwareX 6, 278 (2017)

   gga-PBE exchange-correlation functional:
      J.P. Perdew, K. Burke and M. Ernzerhof, Phys. Rev. Lett. 77, 3865 (1996)

   Pseudopotentials:
      M Schlipf and F Gygi, Comput. Phys. Commun. 196, 36 (2015)

   Truncated Coulomb potentials:
      R. Sundararaman and T.A. Arias, Phys. Rev. B 87, 165122 (2013)

This list may not be complete. Please suggest additional citations or
report any other bugs at https://github.com/shankar1729/jdftx/issues

Initialization completed successfully at t[s]:      5.05


-------- Electronic minimization -----------
Will mix electronic density at each iteration.
	FillingsUpdate:  mu: +0.329230885  nElectrons: 3.000000  magneticMoment: [ Abs: 0.09940  Tot: +0.08000 ]
	FillingsUpdate:  mu: -0.979017970  nElectrons: 3.000000  magneticMoment: [ Abs: 0.09940  Tot: +0.08000 ]
SCF: Cycle:  0   F: -6.827005543898855   dF: -5.648e+00   |Residual|: 1.171e+00   |deigs|: 4.170e+00  t[s]:      6.76
	FillingsUpdate:  mu: -0.865844796  nElectrons: 3.000000  magneticMoment: [ Abs: 0.14714  Tot: +0.08000 ]
SCF: Cycle:  1   F: -6.935724337633343   dF: -1.087e-01   |Residual|: 7.730e-01   |deigs|: 2.329e-01  t[s]:      8.11
	FillingsUpdate:  mu: -0.612963691  nElectrons: 3.000000  magneticMoment: [ Abs: 0.19427  Tot: +0.08000 ]
SCF: Cycle:  2   F: -7.050485391323600   dF: -1.148e-01   |Residual|: 4.195e-01   |deigs|: 7.860e-01  t[s]:      9.46
	FillingsUpdate:  mu: -0.653565990  nElectrons: 3.000000  magneticMoment: [ Abs: 0.17554  Tot: +0.08000 ]
SCF: Cycle:  3   F: -7.057733485557175   dF: -7.248e-03   |Residual|: 2.110e-01   |deigs|: 1.282e-01  t[s]:     10.92
	FillingsUpdate:  mu: -0.618821733  nElectrons: 3.000000  magneticMoment: [ Abs: 0.25459  Tot: +0.08000 ]
SCF: Cycle:  4   F: -7.055696961422146   dF: +2.037e-03   |Residual|: 6.681e-02   |deigs|: 4.044e-02  t[s]:     12.29
	FillingsUpdate:  mu: -0.586969258  nElectrons: 3.000000  magneticMoment: [ Abs: 0.20363  Tot: +0.08000 ]
SCF: Cycle:  5   F: -7.055514838563622   dF: +1.821e-04   |Residual|: 1.514e-01   |deigs|: 2.551e-02  t[s]:     13.76
	FillingsUpdate:  mu: -0.489541322  nElectrons: 3.000000  magneticMoment: [ Abs: 0.24354  Tot: +0.08000 ]
SCF: Cycle:  6   F: -7.060285202122901   dF: -4.770e-03   |Residual|: 7.101e-02   |deigs|: 1.312e-01  t[s]:     15.21
	FillingsUpdate:  mu: -0.429097820  nElectrons: 3.000000  magneticMoment: [ Abs: 0.21701  Tot: +0.08000 ]
SCF: Cycle:  7   F: -7.061509017954485   dF: -1.224e-03   |Residual|: 1.680e-01   |deigs|: 1.288e-01  t[s]:     16.65
	FillingsUpdate:  mu: -0.365811259  nElectrons: 3.000000  magneticMoment: [ Abs: 0.15805  Tot: +0.08000 ]
SCF: Cycle:  8   F: -7.065058938522648   dF: -3.550e-03   |Residual|: 4.872e-02   |deigs|: 5.063e-02  t[s]:     18.12
	FillingsUpdate:  mu: -0.315293980  nElectrons: 3.000000  magneticMoment: [ Abs: 0.38868  Tot: +0.08000 ]
SCF: Cycle:  9   F: -7.065175609557947   dF: -1.167e-04   |Residual|: 1.210e-01   |deigs|: 5.549e-02  t[s]:     19.62
	FillingsUpdate:  mu: -0.285931613  nElectrons: 3.000000  magneticMoment: [ Abs: 0.26335  Tot: +0.08000 ]
SCF: Cycle: 10   F: -7.065589711262869   dF: -4.141e-04   |Residual|: 1.425e-01   |deigs|: 2.315e-02  t[s]:     21.14
	FillingsUpdate:  mu: -0.233936848  nElectrons: 3.000000  magneticMoment: [ Abs: 0.30358  Tot: +0.08000 ]
SCF: Cycle: 11   F: -7.066977504849505   dF: -1.388e-03   |Residual|: 4.294e-02   |deigs|: 1.138e-01  t[s]:     22.73
	FillingsUpdate:  mu: -0.210626030  nElectrons: 3.000000  magneticMoment: [ Abs: 0.13039  Tot: +0.08000 ]
SCF: Cycle: 12   F: -7.067664803672598   dF: -6.873e-04   |Residual|: 1.393e-02   |deigs|: 1.822e-02  t[s]:     24.25
	FillingsUpdate:  mu: -0.170104447  nElectrons: 3.000000  magneticMoment: [ Abs: 0.12520  Tot: +0.08000 ]
SCF: Cycle: 13   F: -7.067877969898301   dF: -2.132e-04   |Residual|: 1.025e-02   |deigs|: 4.221e-02  t[s]:     25.81
	FillingsUpdate:  mu: -0.142793325  nElectrons: 3.000000  magneticMoment: [ Abs: 0.10849  Tot: +0.08000 ]
SCF: Cycle: 14   F: -7.067899527673610   dF: -2.156e-05   |Residual|: 8.321e-03   |deigs|: 2.832e-02  t[s]:     27.37
	FillingsUpdate:  mu: -0.130217642  nElectrons: 3.000000  magneticMoment: [ Abs: 0.10587  Tot: +0.08000 ]
SCF: Cycle: 15   F: -7.067949202496156   dF: -4.967e-05   |Residual|: 6.394e-03   |deigs|: 1.212e-02  t[s]:     28.95
	FillingsUpdate:  mu: -0.115548374  nElectrons: 3.000000  magneticMoment: [ Abs: 0.09722  Tot: +0.08000 ]
SCF: Cycle: 16   F: -7.068065830890214   dF: -1.166e-04   |Residual|: 3.795e-03   |deigs|: 1.437e-02  t[s]:     30.45
	FillingsUpdate:  mu: -0.114690524  nElectrons: 3.000000  magneticMoment: [ Abs: 0.09135  Tot: +0.08000 ]
SCF: Cycle: 17   F: -7.068134059183956   dF: -6.823e-05   |Residual|: 2.392e-03   |deigs|: 7.888e-04  t[s]:     31.99
	FillingsUpdate:  mu: -0.114470947  nElectrons: 3.000000  magneticMoment: [ Abs: 0.08748  Tot: +0.08000 ]
SCF: Cycle: 18   F: -7.068162309969890   dF: -2.825e-05   |Residual|: 1.572e-03   |deigs|: 5.023e-04  t[s]:     33.54
	FillingsUpdate:  mu: -0.114952407  nElectrons: 3.000000  magneticMoment: [ Abs: 0.08501  Tot: +0.08000 ]
SCF: Cycle: 19   F: -7.068174016708540   dF: -1.171e-05   |Residual|: 8.430e-04   |deigs|: 6.344e-04  t[s]:     35.04
	FillingsUpdate:  mu: -0.113696409  nElectrons: 3.000000  magneticMoment: [ Abs: 0.08449  Tot: +0.08000 ]
SCF: Cycle: 20   F: -7.068179705675308   dF: -5.689e-06   |Residual|: 4.491e-04   |deigs|: 1.147e-03  t[s]:     36.60
	FillingsUpdate:  mu: -0.112461838  nElectrons: 3.000000  magneticMoment: [ Abs: 0.08380  Tot: +0.08000 ]
SCF: Cycle: 21   F: -7.068180821582108   dF: -1.116e-06   |Residual|: 2.883e-04   |deigs|: 1.305e-03  t[s]:     38.12
	FillingsUpdate:  mu: -0.111995783  nElectrons: 3.000000  magneticMoment: [ Abs: 0.08335  Tot: +0.08000 ]
SCF: Cycle: 22   F: -7.068181036941167   dF: -2.154e-07   |Residual|: 1.789e-04   |deigs|: 5.681e-04  t[s]:     39.62
	FillingsUpdate:  mu: -0.111695785  nElectrons: 3.000000  magneticMoment: [ Abs: 0.08295  Tot: +0.08000 ]
SCF: Cycle: 23   F: -7.068181139542541   dF: -1.026e-07   |Residual|: 1.171e-04   |deigs|: 5.127e-04  t[s]:     41.19
	FillingsUpdate:  mu: -0.111644591  nElectrons: 3.000000  magneticMoment: [ Abs: 0.08253  Tot: +0.08000 ]
SCF: Cycle: 24   F: -7.068181187133871   dF: -4.759e-08   |Residual|: 7.812e-05   |deigs|: 1.103e-04  t[s]:     42.71
	FillingsUpdate:  mu: -0.111670142  nElectrons: 3.000000  magneticMoment: [ Abs: 0.08206  Tot: +0.08000 ]
SCF: Cycle: 25   F: -7.068181181470456   dF: +5.663e-09   |Residual|: 7.082e-05   |deigs|: 5.678e-05  t[s]:     44.30
	FillingsUpdate:  mu: -0.111686053  nElectrons: 3.000000  magneticMoment: [ Abs: 0.08148  Tot: +0.08000 ]
SCF: Cycle: 26   F: -7.068181190721085   dF: -9.251e-09   |Residual|: 6.385e-05   |deigs|: 6.089e-05  t[s]:     45.85
	FillingsUpdate:  mu: -0.111704767  nElectrons: 3.000000  magneticMoment: [ Abs: 0.08074  Tot: +0.08000 ]
SCF: Cycle: 27   F: -7.068181208305600   dF: -1.758e-08   |Residual|: 5.595e-05   |deigs|: 3.992e-05  t[s]:     47.36
	FillingsUpdate:  mu: -0.111741723  nElectrons: 3.000000  magneticMoment: [ Abs: 0.08030  Tot: +0.08000 ]
SCF: Cycle: 28   F: -7.068181218099745   dF: -9.794e-09   |Residual|: 4.376e-05   |deigs|: 5.031e-05  t[s]:     48.90
	FillingsUpdate:  mu: -0.111769800  nElectrons: 3.000000  magneticMoment: [ Abs: 0.08012  Tot: +0.08000 ]
SCF: Cycle: 29   F: -7.068181224869051   dF: -6.769e-09   |Residual|: 3.011e-05   |deigs|: 4.491e-05  t[s]:     50.41
SCF: Converged (|Delta E|<1.000000e-08 for 2 iters).


# Ionic positions in lattice coordinates:
ion Li   0.000000000000000   0.000000000000000   0.000000000000000 0

# Forces in Lattice coordinates:
force Li  -0.000000000000000  -0.000000000000000   0.000000000000000 0

# Energy components:
   Eewald =       -2.0053362333702967
       EH =        1.5275912061457244
     Eloc =       -6.1882198544227931
      Enl =       -3.5905091407366334
   Epulay =        0.0000032255226020
      Exc =       -1.5369968161053804
       KE =        4.7252875187146550
-------------------------------------
     Etot =       -7.0681800942521225
       TS =        0.0000011306169286
-------------------------------------
        F =       -7.0681812248690514

IonicMinimize: Iter:   0  F: -7.068181224869051  |grad|_K:  0.000e+00  t[s]:     50.49
IonicMinimize: Converged (|grad|_K<1.000000e-04).

#--- Lowdin population analysis ---
# oxidation-state Li +2.161
# magnetic-moments Li +0.055

End date and time: Sat Feb  5 23:00:45 2022  (Duration: 0-0:00:50.51)
Done!
