
*************** JDFTx 1.6.0 (git hash 42ebbcc2) ***************

Start date and time: Sat Feb  5 22:53:19 2022
Executable jdftx with command-line: -i Alkali.in
Running on hosts (process indices):  d-6-13-4 (0-18)
Divided in process groups (process indices):  0 (0)  1 (1)  2 (2)  3 (3)  4 (4)  5 (5)  6 (6)  7 (7)  8 (8)  9 (9)  10 (10)  11 (11)  12 (12)  13 (13)  14 (14)  15 (15)  16 (16)  17 (17)  18 (18)
Resource initialization completed at t[s]:      0.00
Run totals: 19 processes, 48 threads, 0 GPUs


Input parsed successfully to the following command list (including defaults):

basis kpoint-dependent
coords-type Lattice
core-overlap-check vector
coulomb-interaction Slab 001
davidson-band-ratio 1.1
dump End None
dump-name $INPUT.$VAR
elec-cutoff 20
elec-eigen-algo Davidson
elec-ex-corr gga-PBE
elec-initial-magnetization -0.220000 yes
elec-smearing Fermi 1e-05
electronic-minimize  \
	dirUpdateScheme      FletcherReeves \
	linminMethod         DirUpdateRecommended \
	nIterations          100 \
	history              15 \
	knormThreshold       0 \
	energyDiffThreshold  1e-08 \
	nEnergyDiff          2 \
	alphaTstart          1 \
	alphaTmin            1e-10 \
	updateTestStepSize   yes \
	alphaTreduceFactor   0.1 \
	alphaTincreaseFactor 3 \
	nAlphaAdjustMax      3 \
	wolfeEnergy          0.0001 \
	wolfeGradient        0.9 \
	fdTest               no
electronic-scf  \
	nIterations	10000 \
	energyDiffThreshold	1e-08 \
	residualThreshold	1e-07 \
	mixFraction	0.5 \
	qMetric	0.8 \
	history	10 \
	nEigSteps	2 \
	eigDiffThreshold	1e-08 \
	mixedVariable	Density \
	qKerker	0.8 \
	qKappa	-1 \
	verbose	no \
	mixFractionMag	1.5
exchange-regularization WignerSeitzTruncated
fluid None
fluid-ex-corr (null) lda-PZ
fluid-gummel-loop 10 1.000000e-05
fluid-minimize  \
	dirUpdateScheme      PolakRibiere \
	linminMethod         DirUpdateRecommended \
	nIterations          100 \
	history              15 \
	knormThreshold       0 \
	energyDiffThreshold  0 \
	nEnergyDiff          2 \
	alphaTstart          1 \
	alphaTmin            1e-10 \
	updateTestStepSize   yes \
	alphaTreduceFactor   0.1 \
	alphaTincreaseFactor 3 \
	nAlphaAdjustMax      3 \
	wolfeEnergy          0.0001 \
	wolfeGradient        0.9 \
	fdTest               no
fluid-solvent H2O 55.338 ScalarEOS \
	epsBulk 78.4 \
	pMol 0.92466 \
	epsInf 1.77 \
	Pvap 1.06736e-10 \
	sigmaBulk 4.62e-05 \
	Rvdw 2.61727 \
	Res 1.42 \
	tauNuc 343133 \
	poleEl 15 7 1
forces-output-coords Positions
ion Li   0.000000000000000   0.000000000000000   0.000000000000000 0
ion-species SG15/$ID_ONCV_PBE.upf
ion-width 0
ionic-minimize  \
	dirUpdateScheme      L-BFGS \
	linminMethod         DirUpdateRecommended \
	nIterations          0 \
	history              15 \
	knormThreshold       0.0001 \
	energyDiffThreshold  1e-06 \
	nEnergyDiff          2 \
	alphaTstart          1 \
	alphaTmin            1e-10 \
	updateTestStepSize   yes \
	alphaTreduceFactor   0.1 \
	alphaTincreaseFactor 3 \
	nAlphaAdjustMax      3 \
	wolfeEnergy          0.0001 \
	wolfeGradient        0.9 \
	fdTest               no
kpoint   0.000000000000   0.000000000000   0.000000000000  1.00000000000000
kpoint-folding 12 12 1 
latt-move-scale 1 1 1
latt-scale 2 2 1 
lattice  \
	   4.727486978767153   -2.363743489383575    0.000000000000000  \
	  -0.000000000000000    4.094123819672498    0.000000000000000  \
	   0.000000000000000    0.000000000000000   40.000000000000000 
lattice-minimize  \
	dirUpdateScheme      L-BFGS \
	linminMethod         DirUpdateRecommended \
	nIterations          0 \
	history              15 \
	knormThreshold       0 \
	energyDiffThreshold  1e-06 \
	nEnergyDiff          2 \
	alphaTstart          1 \
	alphaTmin            1e-10 \
	updateTestStepSize   yes \
	alphaTreduceFactor   0.1 \
	alphaTincreaseFactor 3 \
	nAlphaAdjustMax      3 \
	wolfeEnergy          0.0001 \
	wolfeGradient        0.9 \
	fdTest               no
lcao-params -1 1e-06 1e-05
pcm-variant GLSSA13
spintype z-spin
subspace-rotation-factor 1 yes
symmetries automatic
symmetry-threshold 0.0001



---------- Setting up symmetries ----------

Found 24 point-group symmetries of the bravais lattice
Found 24 space-group symmetries with basis
Applied RMS atom displacement 0 bohrs to make symmetries exact.

---------- Initializing the Grid ----------
R = 
[      9.45497     -4.72749            0  ]
[            0      8.18825            0  ]
[            0            0           40  ]
unit cell volume = 3096.79
G =
[   0.664538   0.383671         -0  ]
[          0   0.767342         -0  ]
[         -0         -0    0.15708  ]
Minimum fftbox size, Smin = [  40  40  164  ]
Chosen fftbox size, S = [  40  40  168  ]

---------- Exchange Correlation functional ----------
Initalized PBE GGA exchange.
Initalized PBE GGA correlation.

---------- Setting up pseudopotentials ----------
Width of ionic core gaussian charges (only for fluid interactions / plotting) set to 0

Reading pseudopotential file '/home/gridsan/aligho/DFT/build-Nov24/pseudopotentials/SG15/Li_ONCV_PBE.upf':
  'Li' pseudopotential, 'PBE' functional
  Generated using ONCVPSP code by D. R. Hamann
  Author: Martin Schlipf and Francois Gygi  Date: 150915.
  3 valence electrons, 2 orbitals, 4 projectors, 1328 radial grid points, with lMax = 1
  Transforming local potential to a uniform radial grid of dG=0.02 with 1489 points.
  Transforming nonlocal projectors to a uniform radial grid of dG=0.02 with 432 points.
    1S    l: 0   occupation:  2.0   eigenvalue: -1.905623
    2S    l: 0   occupation:  1.0   eigenvalue: -0.105624
  Transforming atomic orbitals to a uniform radial grid of dG=0.02 with 432 points.
  WARNING: large normalization error in atomic orbital 1s (integral: 0.000000).
  Core radius for overlap checks: 1.63 bohrs.
  Reading pulay file /home/gridsan/aligho/DFT/build-Nov24/pseudopotentials/SG15/Li_ONCV_PBE.pulay ... using dE_dnG = -1.230239e-02 computed for Ecut = 20.

Initialized 1 species with 1 total atoms.

Folded 1 k-points by 12x12x1 to 144 k-points.

---------- Setting up k-points, bands, fillings ----------
Reduced to 19 k-points under symmetry. 
Computing the number of bands and number of electrons
Calculating initial fillings.
nElectrons:   3.000000   nBands: 3   nStates: 38

----- Setting up reduced wavefunction bases (one per k-point) -----
average nbasis = 13230.521 , ideal nbasis = 13229.709

---------- Setting up coulomb interaction ----------
Initialized slab truncation along lattice direction 001

---------- Setting up 2D ewald sum ----------
Optimum gaussian width for ewald sums = 5.249020 bohr.
Real space sums over 289 unit cells with max indices [  8  8  0  ]
Reciprocal space sums over 81 terms with max indices [  4  4  0  ]

---------- Allocating electronic variables ----------
Initializing wave functions:  linear combination of atomic orbitals
Note: number of bands (3) exceeds available atomic orbitals (2)
Li pseudo-atom occupations:   s ( 2 1 )
	FillingsUpdate:  mu: +0.321446346  nElectrons: 3.000000  magneticMoment: [ Abs: 0.22374  Tot: -0.22000 ]
LCAOMinimize: Iter:   0  F: -1.1817378138813408  |grad|_K:  7.593e-05  alpha:  1.000e+00
	FillingsUpdate:  mu: +0.321443586  nElectrons: 3.000000  magneticMoment: [ Abs: 0.22374  Tot: -0.22000 ]
LCAOMinimize: Iter:   1  F: -1.1817388420402881  |grad|_K:  1.899e-06  alpha:  1.043e+00  linmin: -1.900e-03  cgtest:  2.964e-02  t[s]:      3.95
LCAOMinimize: Encountered beta<0, resetting CG.
	FillingsUpdate:  mu: +0.321443589  nElectrons: 3.000000  magneticMoment: [ Abs: 0.22374  Tot: -0.22000 ]
LCAOMinimize: Iter:   2  F: -1.1817388426678801  |grad|_K:  5.545e-08  alpha:  1.020e+00  linmin:  3.217e-03  cgtest: -8.619e-02  t[s]:      4.97
	FillingsUpdate:  mu: +0.321443585  nElectrons: 3.000000  magneticMoment: [ Abs: 0.22374  Tot: -0.22000 ]
LCAOMinimize: Iter:   3  F: -1.1817388426678987  |grad|_K:  6.864e-08  alpha:  2.363e+00  linmin:  6.546e-02  cgtest: -9.870e-01  t[s]:      6.01
LCAOMinimize: Converged (|Delta F|<1.000000e-06 for 2 iters).


---- Citations for features of the code used in this run ----

   Software package:
      R. Sundararaman, K. Letchworth-Weaver, K.A. Schwarz, D. Gunceler, Y. Ozhabes and T.A. Arias, 'JDFTx: software for joint density-functional theory', SoftwareX 6, 278 (2017)

   gga-PBE exchange-correlation functional:
      J.P. Perdew, K. Burke and M. Ernzerhof, Phys. Rev. Lett. 77, 3865 (1996)

   Pseudopotentials:
      M Schlipf and F Gygi, Comput. Phys. Commun. 196, 36 (2015)

   Truncated Coulomb potentials:
      R. Sundararaman and T.A. Arias, Phys. Rev. B 87, 165122 (2013)

This list may not be complete. Please suggest additional citations or
report any other bugs at https://github.com/shankar1729/jdftx/issues

Initialization completed successfully at t[s]:      6.08


-------- Electronic minimization -----------
Will mix electronic density at each iteration.
	FillingsUpdate:  mu: +0.321443585  nElectrons: 3.000000  magneticMoment: [ Abs: 0.22374  Tot: -0.22000 ]
	FillingsUpdate:  mu: -0.971713658  nElectrons: 3.000000  magneticMoment: [ Abs: 0.22374  Tot: -0.22000 ]
SCF: Cycle:  0   F: -6.831201400137272   dF: -5.649e+00   |Residual|: 1.172e+00   |deigs|: 4.171e+00  t[s]:      7.93
	FillingsUpdate:  mu: -0.857116307  nElectrons: 3.000000  magneticMoment: [ Abs: 0.33406  Tot: -0.22000 ]
SCF: Cycle:  1   F: -6.937409293299361   dF: -1.062e-01   |Residual|: 7.733e-01   |deigs|: 2.344e-01  t[s]:      9.33
	FillingsUpdate:  mu: -0.621359611  nElectrons: 3.000000  magneticMoment: [ Abs: 0.43088  Tot: -0.22000 ]
SCF: Cycle:  2   F: -7.050863567590567   dF: -1.135e-01   |Residual|: 4.208e-01   |deigs|: 7.818e-01  t[s]:     10.68
	FillingsUpdate:  mu: -0.650761867  nElectrons: 3.000000  magneticMoment: [ Abs: 0.36710  Tot: -0.22000 ]
SCF: Cycle:  3   F: -7.057914877025222   dF: -7.051e-03   |Residual|: 2.107e-01   |deigs|: 1.251e-01  t[s]:     12.08
	FillingsUpdate:  mu: -0.617299909  nElectrons: 3.000000  magneticMoment: [ Abs: 0.36135  Tot: -0.22000 ]
SCF: Cycle:  4   F: -7.056803156601046   dF: +1.112e-03   |Residual|: 4.463e-02   |deigs|: 3.529e-02  t[s]:     13.50
	FillingsUpdate:  mu: -0.582408263  nElectrons: 3.000000  magneticMoment: [ Abs: 0.28988  Tot: -0.22000 ]
SCF: Cycle:  5   F: -7.055344653551432   dF: +1.459e-03   |Residual|: 1.653e-01   |deigs|: 2.863e-02  t[s]:     14.91
	FillingsUpdate:  mu: -0.496792141  nElectrons: 3.000000  magneticMoment: [ Abs: 0.35790  Tot: -0.22000 ]
SCF: Cycle:  6   F: -7.060109897804765   dF: -4.765e-03   |Residual|: 5.200e-02   |deigs|: 1.276e-01  t[s]:     16.42
	FillingsUpdate:  mu: -0.414541652  nElectrons: 3.000000  magneticMoment: [ Abs: 0.41211  Tot: -0.22000 ]
SCF: Cycle:  7   F: -7.061376614421945   dF: -1.267e-03   |Residual|: 1.662e-01   |deigs|: 1.418e-01  t[s]:     17.88
	FillingsUpdate:  mu: -0.379926783  nElectrons: 3.000000  magneticMoment: [ Abs: 0.33297  Tot: -0.22000 ]
SCF: Cycle:  8   F: -7.064217145185471   dF: -2.841e-03   |Residual|: 4.805e-02   |deigs|: 3.772e-02  t[s]:     19.45
	FillingsUpdate:  mu: -0.333236399  nElectrons: 3.000000  magneticMoment: [ Abs: 0.76002  Tot: -0.22000 ]
SCF: Cycle:  9   F: -7.062486871656874   dF: +1.730e-03   |Residual|: 1.807e-01   |deigs|: 6.831e-02  t[s]:     21.00
	FillingsUpdate:  mu: -0.301138721  nElectrons: 3.000000  magneticMoment: [ Abs: 0.43520  Tot: -0.22000 ]
SCF: Cycle: 10   F: -7.064012224409566   dF: -1.525e-03   |Residual|: 1.818e-01   |deigs|: 2.885e-02  t[s]:     22.56
	FillingsUpdate:  mu: -0.258197270  nElectrons: 3.000000  magneticMoment: [ Abs: 0.29934  Tot: -0.22000 ]
SCF: Cycle: 11   F: -7.066974655920053   dF: -2.962e-03   |Residual|: 1.670e-02   |deigs|: 1.033e-01  t[s]:     24.18
	FillingsUpdate:  mu: -0.214136791  nElectrons: 3.000000  magneticMoment: [ Abs: 0.30916  Tot: -0.22000 ]
SCF: Cycle: 12   F: -7.067352058032506   dF: -3.774e-04   |Residual|: 1.931e-02   |deigs|: 4.375e-02  t[s]:     25.70
	FillingsUpdate:  mu: -0.184515322  nElectrons: 3.000000  magneticMoment: [ Abs: 0.28127  Tot: -0.22000 ]
SCF: Cycle: 13   F: -7.067535050273434   dF: -1.830e-04   |Residual|: 1.156e-02   |deigs|: 2.884e-02  t[s]:     27.28
	FillingsUpdate:  mu: -0.149575208  nElectrons: 3.000000  magneticMoment: [ Abs: 0.26721  Tot: -0.22000 ]
SCF: Cycle: 14   F: -7.067730796597647   dF: -1.957e-04   |Residual|: 9.192e-03   |deigs|: 3.698e-02  t[s]:     28.83
	FillingsUpdate:  mu: -0.131533769  nElectrons: 3.000000  magneticMoment: [ Abs: 0.26162  Tot: -0.22000 ]
SCF: Cycle: 15   F: -7.067752128913992   dF: -2.133e-05   |Residual|: 6.613e-03   |deigs|: 1.768e-02  t[s]:     30.46
	FillingsUpdate:  mu: -0.117244493  nElectrons: 3.000000  magneticMoment: [ Abs: 0.24668  Tot: -0.22000 ]
SCF: Cycle: 16   F: -7.067810877250091   dF: -5.875e-05   |Residual|: 4.331e-03   |deigs|: 1.288e-02  t[s]:     32.00
	FillingsUpdate:  mu: -0.114886098  nElectrons: 3.000000  magneticMoment: [ Abs: 0.23980  Tot: -0.22000 ]
SCF: Cycle: 17   F: -7.067882224363375   dF: -7.135e-05   |Residual|: 2.993e-03   |deigs|: 1.803e-03  t[s]:     33.61
	FillingsUpdate:  mu: -0.113241330  nElectrons: 3.000000  magneticMoment: [ Abs: 0.23282  Tot: -0.22000 ]
SCF: Cycle: 18   F: -7.067949597142557   dF: -6.737e-05   |Residual|: 1.579e-03   |deigs|: 1.999e-03  t[s]:     35.22
	FillingsUpdate:  mu: -0.112367595  nElectrons: 3.000000  magneticMoment: [ Abs: 0.22973  Tot: -0.22000 ]
SCF: Cycle: 19   F: -7.067969436316399   dF: -1.984e-05   |Residual|: 9.265e-04   |deigs|: 1.342e-03  t[s]:     36.76
	FillingsUpdate:  mu: -0.110893133  nElectrons: 3.000000  magneticMoment: [ Abs: 0.22843  Tot: -0.22000 ]
SCF: Cycle: 20   F: -7.067976098326374   dF: -6.662e-06   |Residual|: 4.985e-04   |deigs|: 1.567e-03  t[s]:     38.34
	FillingsUpdate:  mu: -0.110258630  nElectrons: 3.000000  magneticMoment: [ Abs: 0.22732  Tot: -0.22000 ]
SCF: Cycle: 21   F: -7.067977249089731   dF: -1.151e-06   |Residual|: 2.738e-04   |deigs|: 6.550e-04  t[s]:     39.88
	FillingsUpdate:  mu: -0.109973249  nElectrons: 3.000000  magneticMoment: [ Abs: 0.22645  Tot: -0.22000 ]
SCF: Cycle: 22   F: -7.067977519836995   dF: -2.707e-07   |Residual|: 1.936e-04   |deigs|: 2.946e-04  t[s]:     41.42
	FillingsUpdate:  mu: -0.109952787  nElectrons: 3.000000  magneticMoment: [ Abs: 0.22511  Tot: -0.22000 ]
SCF: Cycle: 23   F: -7.067978462230593   dF: -9.424e-07   |Residual|: 1.601e-04   |deigs|: 7.849e-05  t[s]:     43.01
	FillingsUpdate:  mu: -0.109992964  nElectrons: 3.000000  magneticMoment: [ Abs: 0.22302  Tot: -0.22000 ]
SCF: Cycle: 24   F: -7.067978463809727   dF: -1.579e-09   |Residual|: 1.568e-04   |deigs|: 4.858e-05  t[s]:     44.57
	FillingsUpdate:  mu: -0.110106055  nElectrons: 3.000000  magneticMoment: [ Abs: 0.22184  Tot: -0.22000 ]
SCF: Cycle: 25   F: -7.067978701914596   dF: -2.381e-07   |Residual|: 1.373e-04   |deigs|: 1.197e-04  t[s]:     46.10
	FillingsUpdate:  mu: -0.110286626  nElectrons: 3.000000  magneticMoment: [ Abs: 0.22074  Tot: -0.22000 ]
SCF: Cycle: 26   F: -7.067978698833533   dF: +3.081e-09   |Residual|: 9.933e-05   |deigs|: 1.913e-04  t[s]:     47.73
	FillingsUpdate:  mu: -0.110436555  nElectrons: 3.000000  magneticMoment: [ Abs: 0.22021  Tot: -0.22000 ]
SCF: Cycle: 27   F: -7.067978902557100   dF: -2.037e-07   |Residual|: 5.603e-05   |deigs|: 1.690e-04  t[s]:     49.27
	FillingsUpdate:  mu: -0.110469464  nElectrons: 3.000000  magneticMoment: [ Abs: 0.22011  Tot: -0.22000 ]
SCF: Cycle: 28   F: -7.067978915791456   dF: -1.323e-08   |Residual|: 3.841e-05   |deigs|: 6.200e-05  t[s]:     50.76
	FillingsUpdate:  mu: -0.110506590  nElectrons: 3.000000  magneticMoment: [ Abs: 0.22005  Tot: -0.22000 ]
SCF: Cycle: 29   F: -7.067978923772963   dF: -7.982e-09   |Residual|: 2.087e-05   |deigs|: 6.550e-05  t[s]:     52.36
	FillingsUpdate:  mu: -0.110517961  nElectrons: 3.000000  magneticMoment: [ Abs: 0.22000  Tot: -0.22000 ]
SCF: Cycle: 30   F: -7.067978926885795   dF: -3.113e-09   |Residual|: 1.736e-05   |deigs|: 5.405e-05  t[s]:     53.89
SCF: Converged (|Delta E|<1.000000e-08 for 2 iters).


# Ionic positions in lattice coordinates:
ion Li   0.000000000000000   0.000000000000000   0.000000000000000 0

# Forces in Lattice coordinates:
force Li  -0.000000000000000  -0.000000000000000   0.000000000000000 0

# Energy components:
   Eewald =       -2.0053362333702967
       EH =        1.5284878965274493
     Eloc =       -6.1892426917778449
      Enl =       -3.5904745889222109
   Epulay =        0.0000032255226020
      Exc =       -1.5374709417066863
       KE =        4.7260548996514755
-------------------------------------
     Etot =       -7.0679784340755125
       TS =        0.0000004928102820
-------------------------------------
        F =       -7.0679789268857949

IonicMinimize: Iter:   0  F: -7.067978926885795  |grad|_K:  0.000e+00  t[s]:     53.96
IonicMinimize: Converged (|grad|_K<1.000000e-04).

#--- Lowdin population analysis ---
# oxidation-state Li +2.166
# magnetic-moments Li -0.152

End date and time: Sat Feb  5 22:54:13 2022  (Duration: 0-0:00:53.97)
Done!
