
*************** JDFTx 1.6.0 (git hash 42ebbcc2) ***************

Start date and time: Sat Feb  5 23:13:02 2022
Executable jdftx with command-line: -i Alkali.in
Running on hosts (process indices):  d-3-7-1 (0-18)
Divided in process groups (process indices):  0 (0)  1 (1)  2 (2)  3 (3)  4 (4)  5 (5)  6 (6)  7 (7)  8 (8)  9 (9)  10 (10)  11 (11)  12 (12)  13 (13)  14 (14)  15 (15)  16 (16)  17 (17)  18 (18)
Resource initialization completed at t[s]:      0.00
Run totals: 19 processes, 48 threads, 0 GPUs


Input parsed successfully to the following command list (including defaults):

basis kpoint-dependent
coords-type Lattice
core-overlap-check vector
coulomb-interaction Slab 001
davidson-band-ratio 1.1
dump End None
dump-name $INPUT.$VAR
elec-cutoff 20
elec-eigen-algo Davidson
elec-ex-corr gga-PBE
elec-initial-magnetization 0.860000 yes
elec-smearing Fermi 1e-05
electronic-minimize  \
	dirUpdateScheme      FletcherReeves \
	linminMethod         DirUpdateRecommended \
	nIterations          100 \
	history              15 \
	knormThreshold       0 \
	energyDiffThreshold  1e-08 \
	nEnergyDiff          2 \
	alphaTstart          1 \
	alphaTmin            1e-10 \
	updateTestStepSize   yes \
	alphaTreduceFactor   0.1 \
	alphaTincreaseFactor 3 \
	nAlphaAdjustMax      3 \
	wolfeEnergy          0.0001 \
	wolfeGradient        0.9 \
	fdTest               no
electronic-scf  \
	nIterations	10000 \
	energyDiffThreshold	1e-08 \
	residualThreshold	1e-07 \
	mixFraction	0.5 \
	qMetric	0.8 \
	history	10 \
	nEigSteps	2 \
	eigDiffThreshold	1e-08 \
	mixedVariable	Density \
	qKerker	0.8 \
	qKappa	-1 \
	verbose	no \
	mixFractionMag	1.5
exchange-regularization WignerSeitzTruncated
fluid None
fluid-ex-corr (null) lda-PZ
fluid-gummel-loop 10 1.000000e-05
fluid-minimize  \
	dirUpdateScheme      PolakRibiere \
	linminMethod         DirUpdateRecommended \
	nIterations          100 \
	history              15 \
	knormThreshold       0 \
	energyDiffThreshold  0 \
	nEnergyDiff          2 \
	alphaTstart          1 \
	alphaTmin            1e-10 \
	updateTestStepSize   yes \
	alphaTreduceFactor   0.1 \
	alphaTincreaseFactor 3 \
	nAlphaAdjustMax      3 \
	wolfeEnergy          0.0001 \
	wolfeGradient        0.9 \
	fdTest               no
fluid-solvent H2O 55.338 ScalarEOS \
	epsBulk 78.4 \
	pMol 0.92466 \
	epsInf 1.77 \
	Pvap 1.06736e-10 \
	sigmaBulk 4.62e-05 \
	Rvdw 2.61727 \
	Res 1.42 \
	tauNuc 343133 \
	poleEl 15 7 1
forces-output-coords Positions
ion Li   0.000000000000000   0.000000000000000   0.000000000000000 0
ion-species SG15/$ID_ONCV_PBE.upf
ion-width 0
ionic-minimize  \
	dirUpdateScheme      L-BFGS \
	linminMethod         DirUpdateRecommended \
	nIterations          0 \
	history              15 \
	knormThreshold       0.0001 \
	energyDiffThreshold  1e-06 \
	nEnergyDiff          2 \
	alphaTstart          1 \
	alphaTmin            1e-10 \
	updateTestStepSize   yes \
	alphaTreduceFactor   0.1 \
	alphaTincreaseFactor 3 \
	nAlphaAdjustMax      3 \
	wolfeEnergy          0.0001 \
	wolfeGradient        0.9 \
	fdTest               no
kpoint   0.000000000000   0.000000000000   0.000000000000  1.00000000000000
kpoint-folding 12 12 1 
latt-move-scale 1 1 1
latt-scale 2 2 1 
lattice  \
	   4.727486978767153   -2.363743489383575    0.000000000000000  \
	  -0.000000000000000    4.094123819672498    0.000000000000000  \
	   0.000000000000000    0.000000000000000   40.000000000000000 
lattice-minimize  \
	dirUpdateScheme      L-BFGS \
	linminMethod         DirUpdateRecommended \
	nIterations          0 \
	history              15 \
	knormThreshold       0 \
	energyDiffThreshold  1e-06 \
	nEnergyDiff          2 \
	alphaTstart          1 \
	alphaTmin            1e-10 \
	updateTestStepSize   yes \
	alphaTreduceFactor   0.1 \
	alphaTincreaseFactor 3 \
	nAlphaAdjustMax      3 \
	wolfeEnergy          0.0001 \
	wolfeGradient        0.9 \
	fdTest               no
lcao-params -1 1e-06 1e-05
pcm-variant GLSSA13
spintype z-spin
subspace-rotation-factor 1 yes
symmetries automatic
symmetry-threshold 0.0001



---------- Setting up symmetries ----------

Found 24 point-group symmetries of the bravais lattice
Found 24 space-group symmetries with basis
Applied RMS atom displacement 0 bohrs to make symmetries exact.

---------- Initializing the Grid ----------
R = 
[      9.45497     -4.72749            0  ]
[            0      8.18825            0  ]
[            0            0           40  ]
unit cell volume = 3096.79
G =
[   0.664538   0.383671         -0  ]
[          0   0.767342         -0  ]
[         -0         -0    0.15708  ]
Minimum fftbox size, Smin = [  40  40  164  ]
Chosen fftbox size, S = [  40  40  168  ]

---------- Exchange Correlation functional ----------
Initalized PBE GGA exchange.
Initalized PBE GGA correlation.

---------- Setting up pseudopotentials ----------
Width of ionic core gaussian charges (only for fluid interactions / plotting) set to 0

Reading pseudopotential file '/home/gridsan/aligho/DFT/build-Nov24/pseudopotentials/SG15/Li_ONCV_PBE.upf':
  'Li' pseudopotential, 'PBE' functional
  Generated using ONCVPSP code by D. R. Hamann
  Author: Martin Schlipf and Francois Gygi  Date: 150915.
  3 valence electrons, 2 orbitals, 4 projectors, 1328 radial grid points, with lMax = 1
  Transforming local potential to a uniform radial grid of dG=0.02 with 1489 points.
  Transforming nonlocal projectors to a uniform radial grid of dG=0.02 with 432 points.
    1S    l: 0   occupation:  2.0   eigenvalue: -1.905623
    2S    l: 0   occupation:  1.0   eigenvalue: -0.105624
  Transforming atomic orbitals to a uniform radial grid of dG=0.02 with 432 points.
  WARNING: large normalization error in atomic orbital 1s (integral: 0.000000).
  Core radius for overlap checks: 1.63 bohrs.
  Reading pulay file /home/gridsan/aligho/DFT/build-Nov24/pseudopotentials/SG15/Li_ONCV_PBE.pulay ... using dE_dnG = -1.230239e-02 computed for Ecut = 20.

Initialized 1 species with 1 total atoms.

Folded 1 k-points by 12x12x1 to 144 k-points.

---------- Setting up k-points, bands, fillings ----------
Reduced to 19 k-points under symmetry. 
Computing the number of bands and number of electrons
Calculating initial fillings.
nElectrons:   3.000000   nBands: 3   nStates: 38

----- Setting up reduced wavefunction bases (one per k-point) -----
average nbasis = 13230.521 , ideal nbasis = 13229.709

---------- Setting up coulomb interaction ----------
Initialized slab truncation along lattice direction 001

---------- Setting up 2D ewald sum ----------
Optimum gaussian width for ewald sums = 5.249020 bohr.
Real space sums over 289 unit cells with max indices [  8  8  0  ]
Reciprocal space sums over 81 terms with max indices [  4  4  0  ]

---------- Allocating electronic variables ----------
Initializing wave functions:  linear combination of atomic orbitals
Note: number of bands (3) exceeds available atomic orbitals (2)
Li pseudo-atom occupations:   s ( 2 1 )
	FillingsUpdate:  mu: +0.293487626  nElectrons: 3.000000  magneticMoment: [ Abs: 0.86000  Tot: +0.86000 ]
LCAOMinimize: Iter:   0  F: -1.1483205757174961  |grad|_K:  5.294e-05  alpha:  1.000e+00
	FillingsUpdate:  mu: +0.293486212  nElectrons: 3.000000  magneticMoment: [ Abs: 0.86000  Tot: +0.86000 ]
LCAOMinimize: Iter:   1  F: -1.1483210820834240  |grad|_K:  8.116e-07  alpha:  1.057e+00  linmin: -6.920e-04  cgtest:  7.636e-03  t[s]:      3.90
	FillingsUpdate:  mu: +0.293486229  nElectrons: 3.000000  magneticMoment: [ Abs: 0.86000  Tot: +0.86000 ]
LCAOMinimize: Iter:   2  F: -1.1483210821988992  |grad|_K:  3.440e-08  alpha:  1.031e+00  linmin: -1.165e-04  cgtest:  2.708e-03  t[s]:      4.96
LCAOMinimize: Converged (|Delta F|<1.000000e-06 for 2 iters).


---- Citations for features of the code used in this run ----

   Software package:
      R. Sundararaman, K. Letchworth-Weaver, K.A. Schwarz, D. Gunceler, Y. Ozhabes and T.A. Arias, 'JDFTx: software for joint density-functional theory', SoftwareX 6, 278 (2017)

   gga-PBE exchange-correlation functional:
      J.P. Perdew, K. Burke and M. Ernzerhof, Phys. Rev. Lett. 77, 3865 (1996)

   Pseudopotentials:
      M Schlipf and F Gygi, Comput. Phys. Commun. 196, 36 (2015)

   Truncated Coulomb potentials:
      R. Sundararaman and T.A. Arias, Phys. Rev. B 87, 165122 (2013)

This list may not be complete. Please suggest additional citations or
report any other bugs at https://github.com/shankar1729/jdftx/issues

Initialization completed successfully at t[s]:      5.03


-------- Electronic minimization -----------
Will mix electronic density at each iteration.
	FillingsUpdate:  mu: +0.293486229  nElectrons: 3.000000  magneticMoment: [ Abs: 0.86000  Tot: +0.86000 ]
	FillingsUpdate:  mu: -1.008398557  nElectrons: 3.000000  magneticMoment: [ Abs: 0.86000  Tot: +0.86000 ]
SCF: Cycle:  0   F: -6.833889794833405   dF: -5.686e+00   |Residual|: 1.174e+00   |deigs|: 4.169e+00  t[s]:      6.77
	FillingsUpdate:  mu: -0.886721058  nElectrons: 3.000000  magneticMoment: [ Abs: 1.36840  Tot: +0.86000 ]
SCF: Cycle:  1   F: -6.927239981813441   dF: -9.335e-02   |Residual|: 7.779e-01   |deigs|: 2.361e-01  t[s]:      8.08
	FillingsUpdate:  mu: -0.689609331  nElectrons: 3.000000  magneticMoment: [ Abs: 1.73186  Tot: +0.86000 ]
SCF: Cycle:  2   F: -7.040789749701526   dF: -1.135e-01   |Residual|: 4.132e-01   |deigs|: 7.710e-01  t[s]:      9.51
	FillingsUpdate:  mu: -0.699917427  nElectrons: 3.000000  magneticMoment: [ Abs: 1.40687  Tot: +0.86000 ]
SCF: Cycle:  3   F: -7.047785114473851   dF: -6.995e-03   |Residual|: 1.684e-01   |deigs|: 1.385e-01  t[s]:     10.91
	FillingsUpdate:  mu: -0.638006497  nElectrons: 3.000000  magneticMoment: [ Abs: 1.10930  Tot: +0.86000 ]
SCF: Cycle:  4   F: -7.048986970608106   dF: -1.202e-03   |Residual|: 4.355e-02   |deigs|: 4.661e-02  t[s]:     12.30
	FillingsUpdate:  mu: -0.613125599  nElectrons: 3.000000  magneticMoment: [ Abs: 1.08286  Tot: +0.86000 ]
SCF: Cycle:  5   F: -7.050118599291253   dF: -1.132e-03   |Residual|: 6.265e-02   |deigs|: 2.103e-02  t[s]:     13.74
	FillingsUpdate:  mu: -0.482464106  nElectrons: 3.000000  magneticMoment: [ Abs: 1.15939  Tot: +0.86000 ]
SCF: Cycle:  6   F: -7.054609015763843   dF: -4.490e-03   |Residual|: 8.808e-02   |deigs|: 1.374e-01  t[s]:     15.19
	FillingsUpdate:  mu: -0.455745041  nElectrons: 3.000000  magneticMoment: [ Abs: 1.13135  Tot: +0.86000 ]
SCF: Cycle:  7   F: -7.055861235147120   dF: -1.252e-03   |Residual|: 3.880e-02   |deigs|: 5.540e-02  t[s]:     16.69
	FillingsUpdate:  mu: -0.419998859  nElectrons: 3.000000  magneticMoment: [ Abs: 1.07956  Tot: +0.86000 ]
SCF: Cycle:  8   F: -7.057654484910667   dF: -1.793e-03   |Residual|: 3.701e-02   |deigs|: 3.453e-02  t[s]:     18.19
	FillingsUpdate:  mu: -0.376929698  nElectrons: 3.000000  magneticMoment: [ Abs: 1.01113  Tot: +0.86000 ]
SCF: Cycle:  9   F: -7.059473735288982   dF: -1.819e-03   |Residual|: 2.297e-02   |deigs|: 3.714e-02  t[s]:     19.73
	FillingsUpdate:  mu: -0.344993578  nElectrons: 3.000000  magneticMoment: [ Abs: 1.00165  Tot: +0.86000 ]
SCF: Cycle: 10   F: -7.060113821569745   dF: -6.401e-04   |Residual|: 2.708e-02   |deigs|: 2.722e-02  t[s]:     21.28
	FillingsUpdate:  mu: -0.301173300  nElectrons: 3.000000  magneticMoment: [ Abs: 1.06204  Tot: +0.86000 ]
SCF: Cycle: 11   F: -7.060495999007588   dF: -3.822e-04   |Residual|: 1.530e-02   |deigs|: 4.963e-02  t[s]:     22.84
	FillingsUpdate:  mu: -0.260158730  nElectrons: 3.000000  magneticMoment: [ Abs: 1.07823  Tot: +0.86000 ]
SCF: Cycle: 12   F: -7.060813561089659   dF: -3.176e-04   |Residual|: 1.380e-02   |deigs|: 4.032e-02  t[s]:     24.40
	FillingsUpdate:  mu: -0.219455538  nElectrons: 3.000000  magneticMoment: [ Abs: 1.04649  Tot: +0.86000 ]
SCF: Cycle: 13   F: -7.061016915494115   dF: -2.034e-04   |Residual|: 1.226e-02   |deigs|: 4.177e-02  t[s]:     25.95
	FillingsUpdate:  mu: -0.167446832  nElectrons: 3.000000  magneticMoment: [ Abs: 0.98307  Tot: +0.86000 ]
SCF: Cycle: 14   F: -7.061083235694204   dF: -6.632e-05   |Residual|: 9.950e-03   |deigs|: 5.123e-02  t[s]:     27.48
	FillingsUpdate:  mu: -0.132127581  nElectrons: 3.000000  magneticMoment: [ Abs: 0.94859  Tot: +0.86000 ]
SCF: Cycle: 15   F: -7.061293586498021   dF: -2.104e-04   |Residual|: 7.498e-03   |deigs|: 3.544e-02  t[s]:     29.05
	FillingsUpdate:  mu: -0.117306048  nElectrons: 3.000000  magneticMoment: [ Abs: 0.92899  Tot: +0.86000 ]
SCF: Cycle: 16   F: -7.061574515249685   dF: -2.809e-04   |Residual|: 5.632e-03   |deigs|: 1.523e-02  t[s]:     30.60
	FillingsUpdate:  mu: -0.107934590  nElectrons: 3.000000  magneticMoment: [ Abs: 0.91350  Tot: +0.86000 ]
SCF: Cycle: 17   F: -7.061765164117368   dF: -1.906e-04   |Residual|: 3.514e-03   |deigs|: 1.055e-02  t[s]:     32.20
	FillingsUpdate:  mu: -0.104158350  nElectrons: 3.000000  magneticMoment: [ Abs: 0.89989  Tot: +0.86000 ]
SCF: Cycle: 18   F: -7.061817427661277   dF: -5.226e-05   |Residual|: 2.230e-03   |deigs|: 4.876e-03  t[s]:     33.79
	FillingsUpdate:  mu: -0.103484498  nElectrons: 3.000000  magneticMoment: [ Abs: 0.88694  Tot: +0.86000 ]
SCF: Cycle: 19   F: -7.061838019850058   dF: -2.059e-05   |Residual|: 1.362e-03   |deigs|: 1.321e-03  t[s]:     35.33
	FillingsUpdate:  mu: -0.104334591  nElectrons: 3.000000  magneticMoment: [ Abs: 0.87817  Tot: +0.86000 ]
SCF: Cycle: 20   F: -7.061852310169487   dF: -1.429e-05   |Residual|: 8.949e-04   |deigs|: 1.004e-03  t[s]:     36.89
	FillingsUpdate:  mu: -0.104839214  nElectrons: 3.000000  magneticMoment: [ Abs: 0.87247  Tot: +0.86000 ]
SCF: Cycle: 21   F: -7.061857162047826   dF: -4.852e-06   |Residual|: 7.266e-04   |deigs|: 5.588e-04  t[s]:     38.43
	FillingsUpdate:  mu: -0.104943742  nElectrons: 3.000000  magneticMoment: [ Abs: 0.86786  Tot: +0.86000 ]
SCF: Cycle: 22   F: -7.061857654149395   dF: -4.921e-07   |Residual|: 5.366e-04   |deigs|: 4.753e-04  t[s]:     40.10
	FillingsUpdate:  mu: -0.105423021  nElectrons: 3.000000  magneticMoment: [ Abs: 0.86351  Tot: +0.86000 ]
SCF: Cycle: 23   F: -7.061859171225483   dF: -1.517e-06   |Residual|: 4.442e-04   |deigs|: 4.216e-04  t[s]:     41.67
	FillingsUpdate:  mu: -0.105481127  nElectrons: 3.000000  magneticMoment: [ Abs: 0.86086  Tot: +0.86000 ]
SCF: Cycle: 24   F: -7.061859822716950   dF: -6.515e-07   |Residual|: 2.973e-04   |deigs|: 9.699e-05  t[s]:     43.21
	FillingsUpdate:  mu: -0.105501488  nElectrons: 3.000000  magneticMoment: [ Abs: 0.86070  Tot: +0.86000 ]
SCF: Cycle: 25   F: -7.061859772510346   dF: +5.021e-08   |Residual|: 2.253e-04   |deigs|: 6.249e-05  t[s]:     44.86
	FillingsUpdate:  mu: -0.105350982  nElectrons: 3.000000  magneticMoment: [ Abs: 0.86032  Tot: +0.86000 ]
SCF: Cycle: 26   F: -7.061860263628362   dF: -4.911e-07   |Residual|: 1.436e-04   |deigs|: 2.192e-04  t[s]:     46.49
	FillingsUpdate:  mu: -0.105307473  nElectrons: 3.000000  magneticMoment: [ Abs: 0.86015  Tot: +0.86000 ]
SCF: Cycle: 27   F: -7.061860880157475   dF: -6.165e-07   |Residual|: 1.078e-04   |deigs|: 5.310e-05  t[s]:     48.05
	FillingsUpdate:  mu: -0.105281453  nElectrons: 3.000000  magneticMoment: [ Abs: 0.86005  Tot: +0.86000 ]
SCF: Cycle: 28   F: -7.061861016498698   dF: -1.363e-07   |Residual|: 8.128e-05   |deigs|: 1.163e-04  t[s]:     49.57
	FillingsUpdate:  mu: -0.105274103  nElectrons: 3.000000  magneticMoment: [ Abs: 0.86000  Tot: +0.86000 ]
SCF: Cycle: 29   F: -7.061861203797268   dF: -1.873e-07   |Residual|: 5.488e-05   |deigs|: 1.862e-05  t[s]:     51.15
	FillingsUpdate:  mu: -0.105274380  nElectrons: 3.000000  magneticMoment: [ Abs: 0.86001  Tot: +0.86000 ]
SCF: Cycle: 30   F: -7.061861274732035   dF: -7.093e-08   |Residual|: 3.786e-05   |deigs|: 1.264e-05  t[s]:     52.67
	FillingsUpdate:  mu: -0.105247979  nElectrons: 3.000000  magneticMoment: [ Abs: 0.86010  Tot: +0.86000 ]
SCF: Cycle: 31   F: -7.061861302325712   dF: -2.759e-08   |Residual|: 2.458e-05   |deigs|: 3.253e-05  t[s]:     54.21
	FillingsUpdate:  mu: -0.105195247  nElectrons: 3.000000  magneticMoment: [ Abs: 0.86012  Tot: +0.86000 ]
SCF: Cycle: 32   F: -7.061861292730601   dF: +9.595e-09   |Residual|: 2.135e-05   |deigs|: 5.940e-05  t[s]:     55.73
	FillingsUpdate:  mu: -0.105120689  nElectrons: 3.000000  magneticMoment: [ Abs: 0.86005  Tot: +0.86000 ]
SCF: Cycle: 33   F: -7.061861308642778   dF: -1.591e-08   |Residual|: 2.023e-05   |deigs|: 7.996e-05  t[s]:     57.28
	FillingsUpdate:  mu: -0.105051621  nElectrons: 3.000000  magneticMoment: [ Abs: 0.86002  Tot: +0.86000 ]
SCF: Cycle: 34   F: -7.061861306703483   dF: +1.939e-09   |Residual|: 1.796e-05   |deigs|: 7.306e-05  t[s]:     58.83
	FillingsUpdate:  mu: -0.104991249  nElectrons: 3.000000  magneticMoment: [ Abs: 0.86000  Tot: +0.86000 ]
SCF: Cycle: 35   F: -7.061861313576127   dF: -6.873e-09   |Residual|: 1.310e-05   |deigs|: 6.020e-05  t[s]:     60.39
	FillingsUpdate:  mu: -0.104971070  nElectrons: 3.000000  magneticMoment: [ Abs: 0.86001  Tot: +0.86000 ]
SCF: Cycle: 36   F: -7.061861321820222   dF: -8.244e-09   |Residual|: 1.065e-05   |deigs|: 1.970e-05  t[s]:     61.97
SCF: Converged (|Delta E|<1.000000e-08 for 2 iters).


# Ionic positions in lattice coordinates:
ion Li   0.000000000000000   0.000000000000000   0.000000000000000 0

# Forces in Lattice coordinates:
force Li  -0.000000000000000  -0.000000000000000   0.000000000000000 0

# Energy components:
   Eewald =       -2.0053362333702967
       EH =        1.5453580765094890
     Eloc =       -6.2088716154326802
      Enl =       -3.5898481023509889
   Epulay =        0.0000032255226020
      Exc =       -1.5458521719051614
       KE =        4.7426863556575736
-------------------------------------
     Etot =       -7.0618604653694614
       TS =        0.0000008564507611
-------------------------------------
        F =       -7.0618613218202224

IonicMinimize: Iter:   0  F: -7.061861321820222  |grad|_K:  0.000e+00  t[s]:     62.04
IonicMinimize: Converged (|grad|_K<1.000000e-04).

#--- Lowdin population analysis ---
# oxidation-state Li +2.253
# magnetic-moments Li +0.603

End date and time: Sat Feb  5 23:14:04 2022  (Duration: 0-0:01:02.05)
Done!
