
*************** JDFTx 1.6.0 (git hash 42ebbcc2) ***************

Start date and time: Sat Feb  5 22:52:45 2022
Executable jdftx with command-line: -i Alkali.in
Running on hosts (process indices):  d-6-7-4 (0-18)
Divided in process groups (process indices):  0 (0)  1 (1)  2 (2)  3 (3)  4 (4)  5 (5)  6 (6)  7 (7)  8 (8)  9 (9)  10 (10)  11 (11)  12 (12)  13 (13)  14 (14)  15 (15)  16 (16)  17 (17)  18 (18)
Resource initialization completed at t[s]:      0.00
Run totals: 19 processes, 48 threads, 0 GPUs


Input parsed successfully to the following command list (including defaults):

basis kpoint-dependent
coords-type Lattice
core-overlap-check vector
coulomb-interaction Slab 001
davidson-band-ratio 1.1
dump End None
dump-name $INPUT.$VAR
elec-cutoff 20
elec-eigen-algo Davidson
elec-ex-corr gga-PBE
elec-initial-magnetization -0.440000 yes
elec-smearing Fermi 1e-05
electronic-minimize  \
	dirUpdateScheme      FletcherReeves \
	linminMethod         DirUpdateRecommended \
	nIterations          100 \
	history              15 \
	knormThreshold       0 \
	energyDiffThreshold  1e-08 \
	nEnergyDiff          2 \
	alphaTstart          1 \
	alphaTmin            1e-10 \
	updateTestStepSize   yes \
	alphaTreduceFactor   0.1 \
	alphaTincreaseFactor 3 \
	nAlphaAdjustMax      3 \
	wolfeEnergy          0.0001 \
	wolfeGradient        0.9 \
	fdTest               no
electronic-scf  \
	nIterations	10000 \
	energyDiffThreshold	1e-08 \
	residualThreshold	1e-07 \
	mixFraction	0.5 \
	qMetric	0.8 \
	history	10 \
	nEigSteps	2 \
	eigDiffThreshold	1e-08 \
	mixedVariable	Density \
	qKerker	0.8 \
	qKappa	-1 \
	verbose	no \
	mixFractionMag	1.5
exchange-regularization WignerSeitzTruncated
fluid None
fluid-ex-corr (null) lda-PZ
fluid-gummel-loop 10 1.000000e-05
fluid-minimize  \
	dirUpdateScheme      PolakRibiere \
	linminMethod         DirUpdateRecommended \
	nIterations          100 \
	history              15 \
	knormThreshold       0 \
	energyDiffThreshold  0 \
	nEnergyDiff          2 \
	alphaTstart          1 \
	alphaTmin            1e-10 \
	updateTestStepSize   yes \
	alphaTreduceFactor   0.1 \
	alphaTincreaseFactor 3 \
	nAlphaAdjustMax      3 \
	wolfeEnergy          0.0001 \
	wolfeGradient        0.9 \
	fdTest               no
fluid-solvent H2O 55.338 ScalarEOS \
	epsBulk 78.4 \
	pMol 0.92466 \
	epsInf 1.77 \
	Pvap 1.06736e-10 \
	sigmaBulk 4.62e-05 \
	Rvdw 2.61727 \
	Res 1.42 \
	tauNuc 343133 \
	poleEl 15 7 1
forces-output-coords Positions
ion Li   0.000000000000000   0.000000000000000   0.000000000000000 0
ion-species SG15/$ID_ONCV_PBE.upf
ion-width 0
ionic-minimize  \
	dirUpdateScheme      L-BFGS \
	linminMethod         DirUpdateRecommended \
	nIterations          0 \
	history              15 \
	knormThreshold       0.0001 \
	energyDiffThreshold  1e-06 \
	nEnergyDiff          2 \
	alphaTstart          1 \
	alphaTmin            1e-10 \
	updateTestStepSize   yes \
	alphaTreduceFactor   0.1 \
	alphaTincreaseFactor 3 \
	nAlphaAdjustMax      3 \
	wolfeEnergy          0.0001 \
	wolfeGradient        0.9 \
	fdTest               no
kpoint   0.000000000000   0.000000000000   0.000000000000  1.00000000000000
kpoint-folding 12 12 1 
latt-move-scale 1 1 1
latt-scale 2 2 1 
lattice  \
	   4.727486978767153   -2.363743489383575    0.000000000000000  \
	  -0.000000000000000    4.094123819672498    0.000000000000000  \
	   0.000000000000000    0.000000000000000   40.000000000000000 
lattice-minimize  \
	dirUpdateScheme      L-BFGS \
	linminMethod         DirUpdateRecommended \
	nIterations          0 \
	history              15 \
	knormThreshold       0 \
	energyDiffThreshold  1e-06 \
	nEnergyDiff          2 \
	alphaTstart          1 \
	alphaTmin            1e-10 \
	updateTestStepSize   yes \
	alphaTreduceFactor   0.1 \
	alphaTincreaseFactor 3 \
	nAlphaAdjustMax      3 \
	wolfeEnergy          0.0001 \
	wolfeGradient        0.9 \
	fdTest               no
lcao-params -1 1e-06 1e-05
pcm-variant GLSSA13
spintype z-spin
subspace-rotation-factor 1 yes
symmetries automatic
symmetry-threshold 0.0001



---------- Setting up symmetries ----------

Found 24 point-group symmetries of the bravais lattice
Found 24 space-group symmetries with basis
Applied RMS atom displacement 0 bohrs to make symmetries exact.

---------- Initializing the Grid ----------
R = 
[      9.45497     -4.72749            0  ]
[            0      8.18825            0  ]
[            0            0           40  ]
unit cell volume = 3096.79
G =
[   0.664538   0.383671         -0  ]
[          0   0.767342         -0  ]
[         -0         -0    0.15708  ]
Minimum fftbox size, Smin = [  40  40  164  ]
Chosen fftbox size, S = [  40  40  168  ]

---------- Exchange Correlation functional ----------
Initalized PBE GGA exchange.
Initalized PBE GGA correlation.

---------- Setting up pseudopotentials ----------
Width of ionic core gaussian charges (only for fluid interactions / plotting) set to 0

Reading pseudopotential file '/home/gridsan/aligho/DFT/build-Nov24/pseudopotentials/SG15/Li_ONCV_PBE.upf':
  'Li' pseudopotential, 'PBE' functional
  Generated using ONCVPSP code by D. R. Hamann
  Author: Martin Schlipf and Francois Gygi  Date: 150915.
  3 valence electrons, 2 orbitals, 4 projectors, 1328 radial grid points, with lMax = 1
  Transforming local potential to a uniform radial grid of dG=0.02 with 1489 points.
  Transforming nonlocal projectors to a uniform radial grid of dG=0.02 with 432 points.
    1S    l: 0   occupation:  2.0   eigenvalue: -1.905623
    2S    l: 0   occupation:  1.0   eigenvalue: -0.105624
  Transforming atomic orbitals to a uniform radial grid of dG=0.02 with 432 points.
  WARNING: large normalization error in atomic orbital 1s (integral: 0.000000).
  Core radius for overlap checks: 1.63 bohrs.
  Reading pulay file /home/gridsan/aligho/DFT/build-Nov24/pseudopotentials/SG15/Li_ONCV_PBE.pulay ... using dE_dnG = -1.230239e-02 computed for Ecut = 20.

Initialized 1 species with 1 total atoms.

Folded 1 k-points by 12x12x1 to 144 k-points.

---------- Setting up k-points, bands, fillings ----------
Reduced to 19 k-points under symmetry. 
Computing the number of bands and number of electrons
Calculating initial fillings.
nElectrons:   3.000000   nBands: 3   nStates: 38

----- Setting up reduced wavefunction bases (one per k-point) -----
average nbasis = 13230.521 , ideal nbasis = 13229.709

---------- Setting up coulomb interaction ----------
Initialized slab truncation along lattice direction 001

---------- Setting up 2D ewald sum ----------
Optimum gaussian width for ewald sums = 5.249020 bohr.
Real space sums over 289 unit cells with max indices [  8  8  0  ]
Reciprocal space sums over 81 terms with max indices [  4  4  0  ]

---------- Allocating electronic variables ----------
Initializing wave functions:  linear combination of atomic orbitals
Note: number of bands (3) exceeds available atomic orbitals (2)
Li pseudo-atom occupations:   s ( 2 1 )
	FillingsUpdate:  mu: +0.327671252  nElectrons: 3.000000  magneticMoment: [ Abs: 0.44000  Tot: -0.44000 ]
LCAOMinimize: Iter:   0  F: -1.1816626179204723  |grad|_K:  7.283e-05  alpha:  1.000e+00
	FillingsUpdate:  mu: +0.327669983  nElectrons: 3.000000  magneticMoment: [ Abs: 0.44000  Tot: -0.44000 ]
LCAOMinimize: Iter:   1  F: -1.1816635662825217  |grad|_K:  1.785e-06  alpha:  1.046e+00  linmin: -1.797e-03  cgtest:  2.457e-02  t[s]:      3.83
LCAOMinimize: Encountered beta<0, resetting CG.
	FillingsUpdate:  mu: +0.327669982  nElectrons: 3.000000  magneticMoment: [ Abs: 0.44000  Tot: -0.44000 ]
LCAOMinimize: Iter:   2  F: -1.1816635668371496  |grad|_K:  5.955e-08  alpha:  1.017e+00  linmin: -2.721e-03  cgtest:  6.561e-02  t[s]:      4.84
LCAOMinimize: Encountered beta<0, resetting CG.
LCAOMinimize: Converged (|Delta F|<1.000000e-06 for 2 iters).


---- Citations for features of the code used in this run ----

   Software package:
      R. Sundararaman, K. Letchworth-Weaver, K.A. Schwarz, D. Gunceler, Y. Ozhabes and T.A. Arias, 'JDFTx: software for joint density-functional theory', SoftwareX 6, 278 (2017)

   gga-PBE exchange-correlation functional:
      J.P. Perdew, K. Burke and M. Ernzerhof, Phys. Rev. Lett. 77, 3865 (1996)

   Pseudopotentials:
      M Schlipf and F Gygi, Comput. Phys. Commun. 196, 36 (2015)

   Truncated Coulomb potentials:
      R. Sundararaman and T.A. Arias, Phys. Rev. B 87, 165122 (2013)

This list may not be complete. Please suggest additional citations or
report any other bugs at https://github.com/shankar1729/jdftx/issues

Initialization completed successfully at t[s]:      4.91


-------- Electronic minimization -----------
Will mix electronic density at each iteration.
	FillingsUpdate:  mu: +0.327669982  nElectrons: 3.000000  magneticMoment: [ Abs: 0.44000  Tot: -0.44000 ]
	FillingsUpdate:  mu: -0.971448557  nElectrons: 3.000000  magneticMoment: [ Abs: 0.44000  Tot: -0.44000 ]
SCF: Cycle:  0   F: -6.835016312953276   dF: -5.653e+00   |Residual|: 1.173e+00   |deigs|: 4.171e+00  t[s]:      6.50
	FillingsUpdate:  mu: -0.851808148  nElectrons: 3.000000  magneticMoment: [ Abs: 0.67141  Tot: -0.44000 ]
SCF: Cycle:  1   F: -6.937337941208204   dF: -1.023e-01   |Residual|: 7.744e-01   |deigs|: 2.361e-01  t[s]:      7.74
	FillingsUpdate:  mu: -0.639974761  nElectrons: 3.000000  magneticMoment: [ Abs: 0.87522  Tot: -0.44000 ]
SCF: Cycle:  2   F: -7.048958457507680   dF: -1.116e-01   |Residual|: 4.222e-01   |deigs|: 7.753e-01  t[s]:      9.01
	FillingsUpdate:  mu: -0.659560047  nElectrons: 3.000000  magneticMoment: [ Abs: 0.73718  Tot: -0.44000 ]
SCF: Cycle:  3   F: -7.056641702624868   dF: -7.683e-03   |Residual|: 2.071e-01   |deigs|: 1.229e-01  t[s]:     10.29
	FillingsUpdate:  mu: -0.618260893  nElectrons: 3.000000  magneticMoment: [ Abs: 0.56508  Tot: -0.44000 ]
SCF: Cycle:  4   F: -7.055246451808663   dF: +1.395e-03   |Residual|: 3.904e-02   |deigs|: 3.639e-02  t[s]:     11.61
	FillingsUpdate:  mu: -0.591824054  nElectrons: 3.000000  magneticMoment: [ Abs: 0.55146  Tot: -0.44000 ]
SCF: Cycle:  5   F: -7.054898192620134   dF: +3.483e-04   |Residual|: 1.135e-01   |deigs|: 2.064e-02  t[s]:     12.95
	FillingsUpdate:  mu: -0.463402718  nElectrons: 3.000000  magneticMoment: [ Abs: 0.63072  Tot: -0.44000 ]
SCF: Cycle:  6   F: -7.059347609535581   dF: -4.449e-03   |Residual|: 9.823e-02   |deigs|: 1.569e-01  t[s]:     14.33
	FillingsUpdate:  mu: -0.425132632  nElectrons: 3.000000  magneticMoment: [ Abs: 0.58217  Tot: -0.44000 ]
SCF: Cycle:  7   F: -7.060357977717675   dF: -1.010e-03   |Residual|: 1.187e-01   |deigs|: 9.165e-02  t[s]:     15.70
	FillingsUpdate:  mu: -0.405098189  nElectrons: 3.000000  magneticMoment: [ Abs: 0.54250  Tot: -0.44000 ]
SCF: Cycle:  8   F: -7.061495209142409   dF: -1.137e-03   |Residual|: 8.555e-02   |deigs|: 1.590e-02  t[s]:     17.21
	FillingsUpdate:  mu: -0.346997651  nElectrons: 3.000000  magneticMoment: [ Abs: 0.55472  Tot: -0.44000 ]
SCF: Cycle:  9   F: -7.064041755492546   dF: -2.547e-03   |Residual|: 6.913e-02   |deigs|: 5.341e-02  t[s]:     18.63
	FillingsUpdate:  mu: -0.316483440  nElectrons: 3.000000  magneticMoment: [ Abs: 0.54167  Tot: -0.44000 ]
SCF: Cycle: 10   F: -7.064707916120483   dF: -6.662e-04   |Residual|: 3.413e-02   |deigs|: 3.533e-02  t[s]:     20.10
	FillingsUpdate:  mu: -0.259783159  nElectrons: 3.000000  magneticMoment: [ Abs: 0.57916  Tot: -0.44000 ]
SCF: Cycle: 11   F: -7.065475980984999   dF: -7.681e-04   |Residual|: 1.855e-02   |deigs|: 6.445e-02  t[s]:     21.58
	FillingsUpdate:  mu: -0.228949311  nElectrons: 3.000000  magneticMoment: [ Abs: 0.57684  Tot: -0.44000 ]
SCF: Cycle: 12   F: -7.065772050359483   dF: -2.961e-04   |Residual|: 1.363e-02   |deigs|: 3.482e-02  t[s]:     23.03
	FillingsUpdate:  mu: -0.178355724  nElectrons: 3.000000  magneticMoment: [ Abs: 0.55058  Tot: -0.44000 ]
SCF: Cycle: 13   F: -7.066031780787857   dF: -2.597e-04   |Residual|: 1.195e-02   |deigs|: 5.111e-02  t[s]:     24.49
	FillingsUpdate:  mu: -0.154634145  nElectrons: 3.000000  magneticMoment: [ Abs: 0.52151  Tot: -0.44000 ]
SCF: Cycle: 14   F: -7.066097646755996   dF: -6.587e-05   |Residual|: 9.294e-03   |deigs|: 2.367e-02  t[s]:     25.92
	FillingsUpdate:  mu: -0.135305613  nElectrons: 3.000000  magneticMoment: [ Abs: 0.50101  Tot: -0.44000 ]
SCF: Cycle: 15   F: -7.066118908213459   dF: -2.126e-05   |Residual|: 7.069e-03   |deigs|: 1.820e-02  t[s]:     27.37
	FillingsUpdate:  mu: -0.118176445  nElectrons: 3.000000  magneticMoment: [ Abs: 0.49465  Tot: -0.44000 ]
SCF: Cycle: 16   F: -7.066297817471557   dF: -1.789e-04   |Residual|: 5.228e-03   |deigs|: 1.764e-02  t[s]:     28.83
	FillingsUpdate:  mu: -0.111162837  nElectrons: 3.000000  magneticMoment: [ Abs: 0.48099  Tot: -0.44000 ]
SCF: Cycle: 17   F: -7.066444790015042   dF: -1.470e-04   |Residual|: 3.061e-03   |deigs|: 7.837e-03  t[s]:     30.33
	FillingsUpdate:  mu: -0.110802150  nElectrons: 3.000000  magneticMoment: [ Abs: 0.46924  Tot: -0.44000 ]
SCF: Cycle: 18   F: -7.066492486365211   dF: -4.770e-05   |Residual|: 2.073e-03   |deigs|: 5.529e-04  t[s]:     31.79
	FillingsUpdate:  mu: -0.111956169  nElectrons: 3.000000  magneticMoment: [ Abs: 0.45727  Tot: -0.44000 ]
SCF: Cycle: 19   F: -7.066510537421752   dF: -1.805e-05   |Residual|: 1.230e-03   |deigs|: 1.243e-03  t[s]:     33.26
	FillingsUpdate:  mu: -0.111426556  nElectrons: 3.000000  magneticMoment: [ Abs: 0.45372  Tot: -0.44000 ]
SCF: Cycle: 20   F: -7.066517748079675   dF: -7.211e-06   |Residual|: 7.834e-04   |deigs|: 5.957e-04  t[s]:     34.67
	FillingsUpdate:  mu: -0.110795491  nElectrons: 3.000000  magneticMoment: [ Abs: 0.45100  Tot: -0.44000 ]
SCF: Cycle: 21   F: -7.066522097655692   dF: -4.350e-06   |Residual|: 5.577e-04   |deigs|: 7.384e-04  t[s]:     36.11
	FillingsUpdate:  mu: -0.109982289  nElectrons: 3.000000  magneticMoment: [ Abs: 0.44905  Tot: -0.44000 ]
SCF: Cycle: 22   F: -7.066522567367756   dF: -4.697e-07   |Residual|: 3.747e-04   |deigs|: 8.582e-04  t[s]:     37.60
	FillingsUpdate:  mu: -0.109657807  nElectrons: 3.000000  magneticMoment: [ Abs: 0.44703  Tot: -0.44000 ]
SCF: Cycle: 23   F: -7.066523708522239   dF: -1.141e-06   |Residual|: 3.200e-04   |deigs|: 3.648e-04  t[s]:     39.06
	FillingsUpdate:  mu: -0.109275228  nElectrons: 3.000000  magneticMoment: [ Abs: 0.44394  Tot: -0.44000 ]
SCF: Cycle: 24   F: -7.066523158714711   dF: +5.498e-07   |Residual|: 2.414e-04   |deigs|: 4.426e-04  t[s]:     40.54
	FillingsUpdate:  mu: -0.109279909  nElectrons: 3.000000  magneticMoment: [ Abs: 0.44198  Tot: -0.44000 ]
SCF: Cycle: 25   F: -7.066523975469812   dF: -8.168e-07   |Residual|: 1.788e-04   |deigs|: 6.797e-05  t[s]:     41.97
	FillingsUpdate:  mu: -0.109506850  nElectrons: 3.000000  magneticMoment: [ Abs: 0.44112  Tot: -0.44000 ]
SCF: Cycle: 26   F: -7.066524535421892   dF: -5.600e-07   |Residual|: 1.357e-04   |deigs|: 2.488e-04  t[s]:     43.43
	FillingsUpdate:  mu: -0.109796527  nElectrons: 3.000000  magneticMoment: [ Abs: 0.44052  Tot: -0.44000 ]
SCF: Cycle: 27   F: -7.066524745430041   dF: -2.100e-07   |Residual|: 6.921e-05   |deigs|: 3.118e-04  t[s]:     44.87
	FillingsUpdate:  mu: -0.109908184  nElectrons: 3.000000  magneticMoment: [ Abs: 0.44011  Tot: -0.44000 ]
SCF: Cycle: 28   F: -7.066524784523072   dF: -3.909e-08   |Residual|: 4.187e-05   |deigs|: 1.304e-04  t[s]:     46.28
	FillingsUpdate:  mu: -0.109955151  nElectrons: 3.000000  magneticMoment: [ Abs: 0.44000  Tot: -0.44000 ]
SCF: Cycle: 29   F: -7.066524795701968   dF: -1.118e-08   |Residual|: 2.432e-05   |deigs|: 7.572e-05  t[s]:     47.81
	FillingsUpdate:  mu: -0.110005474  nElectrons: 3.000000  magneticMoment: [ Abs: 0.44001  Tot: -0.44000 ]
SCF: Cycle: 30   F: -7.066524802526295   dF: -6.824e-09   |Residual|: 2.026e-05   |deigs|: 7.648e-05  t[s]:     49.27
	FillingsUpdate:  mu: -0.110053214  nElectrons: 3.000000  magneticMoment: [ Abs: 0.44001  Tot: -0.44000 ]
SCF: Cycle: 31   F: -7.066524804609296   dF: -2.083e-09   |Residual|: 1.599e-05   |deigs|: 7.066e-05  t[s]:     50.75
SCF: Converged (|Delta E|<1.000000e-08 for 2 iters).


# Ionic positions in lattice coordinates:
ion Li   0.000000000000000   0.000000000000000   0.000000000000000 0

# Forces in Lattice coordinates:
force Li   0.000000000000000   0.000000000000000   0.000000000000000 0

# Energy components:
   Eewald =       -2.0053362333702967
       EH =        1.5320597273926089
     Eloc =       -6.1933827593771582
      Enl =       -3.5902905376508829
   Epulay =        0.0000032255226020
      Exc =       -1.5391799139228228
       KE =        4.7296025454923738
-------------------------------------
     Etot =       -7.0665239459135742
       TS =        0.0000008586957218
-------------------------------------
        F =       -7.0665248046092959

IonicMinimize: Iter:   0  F: -7.066524804609296  |grad|_K:  0.000e+00  t[s]:     50.82
IonicMinimize: Converged (|grad|_K<1.000000e-04).

#--- Lowdin population analysis ---
# oxidation-state Li +2.186
# magnetic-moments Li -0.305

End date and time: Sat Feb  5 22:53:36 2022  (Duration: 0-0:00:50.83)
Done!
