
*************** JDFTx 1.6.0 (git hash 42ebbcc2) ***************

Start date and time: Sat Feb  5 22:53:52 2022
Executable jdftx with command-line: -i Alkali.in
Running on hosts (process indices):  d-6-2-2 (0-18)
Divided in process groups (process indices):  0 (0)  1 (1)  2 (2)  3 (3)  4 (4)  5 (5)  6 (6)  7 (7)  8 (8)  9 (9)  10 (10)  11 (11)  12 (12)  13 (13)  14 (14)  15 (15)  16 (16)  17 (17)  18 (18)
Resource initialization completed at t[s]:      0.00
Run totals: 19 processes, 48 threads, 0 GPUs


Input parsed successfully to the following command list (including defaults):

basis kpoint-dependent
coords-type Lattice
core-overlap-check vector
coulomb-interaction Slab 001
davidson-band-ratio 1.1
dump End None
dump-name $INPUT.$VAR
elec-cutoff 20
elec-eigen-algo Davidson
elec-ex-corr gga-PBE
elec-initial-magnetization -0.140000 yes
elec-smearing Fermi 1e-05
electronic-minimize  \
	dirUpdateScheme      FletcherReeves \
	linminMethod         DirUpdateRecommended \
	nIterations          100 \
	history              15 \
	knormThreshold       0 \
	energyDiffThreshold  1e-08 \
	nEnergyDiff          2 \
	alphaTstart          1 \
	alphaTmin            1e-10 \
	updateTestStepSize   yes \
	alphaTreduceFactor   0.1 \
	alphaTincreaseFactor 3 \
	nAlphaAdjustMax      3 \
	wolfeEnergy          0.0001 \
	wolfeGradient        0.9 \
	fdTest               no
electronic-scf  \
	nIterations	10000 \
	energyDiffThreshold	1e-08 \
	residualThreshold	1e-07 \
	mixFraction	0.5 \
	qMetric	0.8 \
	history	10 \
	nEigSteps	2 \
	eigDiffThreshold	1e-08 \
	mixedVariable	Density \
	qKerker	0.8 \
	qKappa	-1 \
	verbose	no \
	mixFractionMag	1.5
exchange-regularization WignerSeitzTruncated
fluid None
fluid-ex-corr (null) lda-PZ
fluid-gummel-loop 10 1.000000e-05
fluid-minimize  \
	dirUpdateScheme      PolakRibiere \
	linminMethod         DirUpdateRecommended \
	nIterations          100 \
	history              15 \
	knormThreshold       0 \
	energyDiffThreshold  0 \
	nEnergyDiff          2 \
	alphaTstart          1 \
	alphaTmin            1e-10 \
	updateTestStepSize   yes \
	alphaTreduceFactor   0.1 \
	alphaTincreaseFactor 3 \
	nAlphaAdjustMax      3 \
	wolfeEnergy          0.0001 \
	wolfeGradient        0.9 \
	fdTest               no
fluid-solvent H2O 55.338 ScalarEOS \
	epsBulk 78.4 \
	pMol 0.92466 \
	epsInf 1.77 \
	Pvap 1.06736e-10 \
	sigmaBulk 4.62e-05 \
	Rvdw 2.61727 \
	Res 1.42 \
	tauNuc 343133 \
	poleEl 15 7 1
forces-output-coords Positions
ion Li   0.000000000000000   0.000000000000000   0.000000000000000 0
ion-species SG15/$ID_ONCV_PBE.upf
ion-width 0
ionic-minimize  \
	dirUpdateScheme      L-BFGS \
	linminMethod         DirUpdateRecommended \
	nIterations          0 \
	history              15 \
	knormThreshold       0.0001 \
	energyDiffThreshold  1e-06 \
	nEnergyDiff          2 \
	alphaTstart          1 \
	alphaTmin            1e-10 \
	updateTestStepSize   yes \
	alphaTreduceFactor   0.1 \
	alphaTincreaseFactor 3 \
	nAlphaAdjustMax      3 \
	wolfeEnergy          0.0001 \
	wolfeGradient        0.9 \
	fdTest               no
kpoint   0.000000000000   0.000000000000   0.000000000000  1.00000000000000
kpoint-folding 12 12 1 
latt-move-scale 1 1 1
latt-scale 2 2 1 
lattice  \
	   4.727486978767153   -2.363743489383575    0.000000000000000  \
	  -0.000000000000000    4.094123819672498    0.000000000000000  \
	   0.000000000000000    0.000000000000000   40.000000000000000 
lattice-minimize  \
	dirUpdateScheme      L-BFGS \
	linminMethod         DirUpdateRecommended \
	nIterations          0 \
	history              15 \
	knormThreshold       0 \
	energyDiffThreshold  1e-06 \
	nEnergyDiff          2 \
	alphaTstart          1 \
	alphaTmin            1e-10 \
	updateTestStepSize   yes \
	alphaTreduceFactor   0.1 \
	alphaTincreaseFactor 3 \
	nAlphaAdjustMax      3 \
	wolfeEnergy          0.0001 \
	wolfeGradient        0.9 \
	fdTest               no
lcao-params -1 1e-06 1e-05
pcm-variant GLSSA13
spintype z-spin
subspace-rotation-factor 1 yes
symmetries automatic
symmetry-threshold 0.0001



---------- Setting up symmetries ----------

Found 24 point-group symmetries of the bravais lattice
Found 24 space-group symmetries with basis
Applied RMS atom displacement 0 bohrs to make symmetries exact.

---------- Initializing the Grid ----------
R = 
[      9.45497     -4.72749            0  ]
[            0      8.18825            0  ]
[            0            0           40  ]
unit cell volume = 3096.79
G =
[   0.664538   0.383671         -0  ]
[          0   0.767342         -0  ]
[         -0         -0    0.15708  ]
Minimum fftbox size, Smin = [  40  40  164  ]
Chosen fftbox size, S = [  40  40  168  ]

---------- Exchange Correlation functional ----------
Initalized PBE GGA exchange.
Initalized PBE GGA correlation.

---------- Setting up pseudopotentials ----------
Width of ionic core gaussian charges (only for fluid interactions / plotting) set to 0

Reading pseudopotential file '/home/gridsan/aligho/DFT/build-Nov24/pseudopotentials/SG15/Li_ONCV_PBE.upf':
  'Li' pseudopotential, 'PBE' functional
  Generated using ONCVPSP code by D. R. Hamann
  Author: Martin Schlipf and Francois Gygi  Date: 150915.
  3 valence electrons, 2 orbitals, 4 projectors, 1328 radial grid points, with lMax = 1
  Transforming local potential to a uniform radial grid of dG=0.02 with 1489 points.
  Transforming nonlocal projectors to a uniform radial grid of dG=0.02 with 432 points.
    1S    l: 0   occupation:  2.0   eigenvalue: -1.905623
    2S    l: 0   occupation:  1.0   eigenvalue: -0.105624
  Transforming atomic orbitals to a uniform radial grid of dG=0.02 with 432 points.
  WARNING: large normalization error in atomic orbital 1s (integral: 0.000000).
  Core radius for overlap checks: 1.63 bohrs.
  Reading pulay file /home/gridsan/aligho/DFT/build-Nov24/pseudopotentials/SG15/Li_ONCV_PBE.pulay ... using dE_dnG = -1.230239e-02 computed for Ecut = 20.

Initialized 1 species with 1 total atoms.

Folded 1 k-points by 12x12x1 to 144 k-points.

---------- Setting up k-points, bands, fillings ----------
Reduced to 19 k-points under symmetry. 
Computing the number of bands and number of electrons
Calculating initial fillings.
nElectrons:   3.000000   nBands: 3   nStates: 38

----- Setting up reduced wavefunction bases (one per k-point) -----
average nbasis = 13230.521 , ideal nbasis = 13229.709

---------- Setting up coulomb interaction ----------
Initialized slab truncation along lattice direction 001

---------- Setting up 2D ewald sum ----------
Optimum gaussian width for ewald sums = 5.249020 bohr.
Real space sums over 289 unit cells with max indices [  8  8  0  ]
Reciprocal space sums over 81 terms with max indices [  4  4  0  ]

---------- Allocating electronic variables ----------
Initializing wave functions:  linear combination of atomic orbitals
Note: number of bands (3) exceeds available atomic orbitals (2)
Li pseudo-atom occupations:   s ( 2 1 )
	FillingsUpdate:  mu: +0.324616857  nElectrons: 3.000000  magneticMoment: [ Abs: 0.15240  Tot: -0.14000 ]
LCAOMinimize: Iter:   0  F: -1.1813388737603068  |grad|_K:  7.475e-05  alpha:  1.000e+00
	FillingsUpdate:  mu: +0.324615126  nElectrons: 3.000000  magneticMoment: [ Abs: 0.15240  Tot: -0.14000 ]
LCAOMinimize: Iter:   1  F: -1.1813398707090033  |grad|_K:  1.829e-06  alpha:  1.043e+00  linmin: -1.811e-03  cgtest:  2.866e-02  t[s]:      3.93
LCAOMinimize: Encountered beta<0, resetting CG.
	FillingsUpdate:  mu: +0.324615115  nElectrons: 3.000000  magneticMoment: [ Abs: 0.15240  Tot: -0.14000 ]
LCAOMinimize: Iter:   2  F: -1.1813398712876886  |grad|_K:  4.967e-08  alpha:  1.016e+00  linmin:  2.284e-04  cgtest: -6.154e-03  t[s]:      5.03
LCAOMinimize: Converged (|Delta F|<1.000000e-06 for 2 iters).


---- Citations for features of the code used in this run ----

   Software package:
      R. Sundararaman, K. Letchworth-Weaver, K.A. Schwarz, D. Gunceler, Y. Ozhabes and T.A. Arias, 'JDFTx: software for joint density-functional theory', SoftwareX 6, 278 (2017)

   gga-PBE exchange-correlation functional:
      J.P. Perdew, K. Burke and M. Ernzerhof, Phys. Rev. Lett. 77, 3865 (1996)

   Pseudopotentials:
      M Schlipf and F Gygi, Comput. Phys. Commun. 196, 36 (2015)

   Truncated Coulomb potentials:
      R. Sundararaman and T.A. Arias, Phys. Rev. B 87, 165122 (2013)

This list may not be complete. Please suggest additional citations or
report any other bugs at https://github.com/shankar1729/jdftx/issues

Initialization completed successfully at t[s]:      5.09


-------- Electronic minimization -----------
Will mix electronic density at each iteration.
	FillingsUpdate:  mu: +0.324615115  nElectrons: 3.000000  magneticMoment: [ Abs: 0.15240  Tot: -0.14000 ]
	FillingsUpdate:  mu: -0.973775235  nElectrons: 3.000000  magneticMoment: [ Abs: 0.15240  Tot: -0.14000 ]
SCF: Cycle:  0   F: -6.830422778313185   dF: -5.649e+00   |Residual|: 1.172e+00   |deigs|: 4.171e+00  t[s]:      6.79
	FillingsUpdate:  mu: -0.861092440  nElectrons: 3.000000  magneticMoment: [ Abs: 0.20977  Tot: -0.14000 ]
SCF: Cycle:  1   F: -6.936381518361292   dF: -1.060e-01   |Residual|: 7.732e-01   |deigs|: 2.335e-01  t[s]:      8.15
	FillingsUpdate:  mu: -0.611338100  nElectrons: 3.000000  magneticMoment: [ Abs: 0.26657  Tot: -0.14000 ]
SCF: Cycle:  2   F: -7.051021038507346   dF: -1.146e-01   |Residual|: 4.200e-01   |deigs|: 7.853e-01  t[s]:      9.47
	FillingsUpdate:  mu: -0.652412862  nElectrons: 3.000000  magneticMoment: [ Abs: 0.23634  Tot: -0.14000 ]
SCF: Cycle:  3   F: -7.058118844837096   dF: -7.098e-03   |Residual|: 2.107e-01   |deigs|: 1.283e-01  t[s]:     10.86
	FillingsUpdate:  mu: -0.619155688  nElectrons: 3.000000  magneticMoment: [ Abs: 0.29137  Tot: -0.14000 ]
SCF: Cycle:  4   F: -7.056447449948899   dF: +1.671e-03   |Residual|: 5.662e-02   |deigs|: 3.814e-02  t[s]:     12.23
	FillingsUpdate:  mu: -0.579185998  nElectrons: 3.000000  magneticMoment: [ Abs: 0.21252  Tot: -0.14000 ]
SCF: Cycle:  5   F: -7.055554062872837   dF: +8.934e-04   |Residual|: 1.736e-01   |deigs|: 3.111e-02  t[s]:     13.66
	FillingsUpdate:  mu: -0.499698351  nElectrons: 3.000000  magneticMoment: [ Abs: 0.26465  Tot: -0.14000 ]
SCF: Cycle:  6   F: -7.060317478462305   dF: -4.763e-03   |Residual|: 3.194e-02   |deigs|: 1.325e-01  t[s]:     15.09
	FillingsUpdate:  mu: -0.422702342  nElectrons: 3.000000  magneticMoment: [ Abs: 0.33990  Tot: -0.14000 ]
SCF: Cycle:  7   F: -7.061527371177116   dF: -1.210e-03   |Residual|: 1.642e-01   |deigs|: 1.283e-01  t[s]:     16.54
	FillingsUpdate:  mu: -0.363425040  nElectrons: 3.000000  magneticMoment: [ Abs: 0.35085  Tot: -0.14000 ]
SCF: Cycle:  8   F: -7.064999372656644   dF: -3.472e-03   |Residual|: 3.885e-02   |deigs|: 5.719e-02  t[s]:     18.07
	FillingsUpdate:  mu: -0.327735747  nElectrons: 3.000000  magneticMoment: [ Abs: 0.51034  Tot: -0.14000 ]
SCF: Cycle:  9   F: -7.064400609741258   dF: +5.988e-04   |Residual|: 1.235e-01   |deigs|: 3.583e-02  t[s]:     19.56
	FillingsUpdate:  mu: -0.292275514  nElectrons: 3.000000  magneticMoment: [ Abs: 0.28940  Tot: -0.14000 ]
SCF: Cycle: 10   F: -7.065432237815434   dF: -1.032e-03   |Residual|: 1.558e-01   |deigs|: 2.846e-02  t[s]:     21.12
	FillingsUpdate:  mu: -0.244307743  nElectrons: 3.000000  magneticMoment: [ Abs: 0.21317  Tot: -0.14000 ]
SCF: Cycle: 11   F: -7.067314190250347   dF: -1.882e-03   |Residual|: 1.497e-02   |deigs|: 9.621e-02  t[s]:     22.62
	FillingsUpdate:  mu: -0.209805949  nElectrons: 3.000000  magneticMoment: [ Abs: 0.21768  Tot: -0.14000 ]
SCF: Cycle: 12   F: -7.067636076565219   dF: -3.219e-04   |Residual|: 2.197e-02   |deigs|: 3.567e-02  t[s]:     24.14
	FillingsUpdate:  mu: -0.176898338  nElectrons: 3.000000  magneticMoment: [ Abs: 0.17975  Tot: -0.14000 ]
SCF: Cycle: 13   F: -7.067884291653459   dF: -2.482e-04   |Residual|: 1.066e-02   |deigs|: 3.248e-02  t[s]:     25.68
	FillingsUpdate:  mu: -0.141636169  nElectrons: 3.000000  magneticMoment: [ Abs: 0.16831  Tot: -0.14000 ]
SCF: Cycle: 14   F: -7.067908449853193   dF: -2.416e-05   |Residual|: 8.208e-03   |deigs|: 3.608e-02  t[s]:     27.28
	FillingsUpdate:  mu: -0.126236829  nElectrons: 3.000000  magneticMoment: [ Abs: 0.16820  Tot: -0.14000 ]
SCF: Cycle: 15   F: -7.067969076684267   dF: -6.063e-05   |Residual|: 6.182e-03   |deigs|: 1.564e-02  t[s]:     28.83
	FillingsUpdate:  mu: -0.116803336  nElectrons: 3.000000  magneticMoment: [ Abs: 0.15830  Tot: -0.14000 ]
SCF: Cycle: 16   F: -7.068078285236990   dF: -1.092e-04   |Residual|: 3.990e-03   |deigs|: 8.371e-03  t[s]:     30.35
	FillingsUpdate:  mu: -0.113877624  nElectrons: 3.000000  magneticMoment: [ Abs: 0.15176  Tot: -0.14000 ]
SCF: Cycle: 17   F: -7.068136480215141   dF: -5.819e-05   |Residual|: 2.517e-03   |deigs|: 2.323e-03  t[s]:     31.84
	FillingsUpdate:  mu: -0.113827154  nElectrons: 3.000000  magneticMoment: [ Abs: 0.14767  Tot: -0.14000 ]
SCF: Cycle: 18   F: -7.068168803195937   dF: -3.232e-05   |Residual|: 1.532e-03   |deigs|: 3.941e-04  t[s]:     33.33
	FillingsUpdate:  mu: -0.114285408  nElectrons: 3.000000  magneticMoment: [ Abs: 0.14508  Tot: -0.14000 ]
SCF: Cycle: 19   F: -7.068183190825642   dF: -1.439e-05   |Residual|: 8.541e-04   |deigs|: 5.571e-04  t[s]:     34.83
	FillingsUpdate:  mu: -0.113725674  nElectrons: 3.000000  magneticMoment: [ Abs: 0.14467  Tot: -0.14000 ]
SCF: Cycle: 20   F: -7.068187528956904   dF: -4.338e-06   |Residual|: 4.382e-04   |deigs|: 6.556e-04  t[s]:     36.34
	FillingsUpdate:  mu: -0.113123915  nElectrons: 3.000000  magneticMoment: [ Abs: 0.14400  Tot: -0.14000 ]
SCF: Cycle: 21   F: -7.068189069192972   dF: -1.540e-06   |Residual|: 2.534e-04   |deigs|: 6.456e-04  t[s]:     37.87
	FillingsUpdate:  mu: -0.112585757  nElectrons: 3.000000  magneticMoment: [ Abs: 0.14329  Tot: -0.14000 ]
SCF: Cycle: 22   F: -7.068189329797130   dF: -2.606e-07   |Residual|: 2.028e-04   |deigs|: 5.611e-04  t[s]:     39.43
	FillingsUpdate:  mu: -0.111950479  nElectrons: 3.000000  magneticMoment: [ Abs: 0.14261  Tot: -0.14000 ]
SCF: Cycle: 23   F: -7.068189802256994   dF: -4.725e-07   |Residual|: 1.440e-04   |deigs|: 6.484e-04  t[s]:     40.96
	FillingsUpdate:  mu: -0.111570518  nElectrons: 3.000000  magneticMoment: [ Abs: 0.14202  Tot: -0.14000 ]
SCF: Cycle: 24   F: -7.068189809814324   dF: -7.557e-09   |Residual|: 9.902e-05   |deigs|: 3.938e-04  t[s]:     42.52
	FillingsUpdate:  mu: -0.111408250  nElectrons: 3.000000  magneticMoment: [ Abs: 0.14172  Tot: -0.14000 ]
SCF: Cycle: 25   F: -7.068189896029582   dF: -8.622e-08   |Residual|: 6.910e-05   |deigs|: 1.638e-04  t[s]:     44.08
	FillingsUpdate:  mu: -0.111406370  nElectrons: 3.000000  magneticMoment: [ Abs: 0.14139  Tot: -0.14000 ]
SCF: Cycle: 26   F: -7.068189904359826   dF: -8.330e-09   |Residual|: 5.226e-05   |deigs|: 5.465e-05  t[s]:     45.57
	FillingsUpdate:  mu: -0.111431145  nElectrons: 3.000000  magneticMoment: [ Abs: 0.14106  Tot: -0.14000 ]
SCF: Cycle: 27   F: -7.068189894980547   dF: +9.379e-09   |Residual|: 4.563e-05   |deigs|: 7.020e-05  t[s]:     47.13
	FillingsUpdate:  mu: -0.111454432  nElectrons: 3.000000  magneticMoment: [ Abs: 0.14070  Tot: -0.14000 ]
SCF: Cycle: 28   F: -7.068189904205640   dF: -9.225e-09   |Residual|: 4.194e-05   |deigs|: 8.195e-05  t[s]:     48.78
	FillingsUpdate:  mu: -0.111530051  nElectrons: 3.000000  magneticMoment: [ Abs: 0.14033  Tot: -0.14000 ]
SCF: Cycle: 29   F: -7.068189916798452   dF: -1.259e-08   |Residual|: 3.583e-05   |deigs|: 1.219e-04  t[s]:     50.32
	FillingsUpdate:  mu: -0.111583524  nElectrons: 3.000000  magneticMoment: [ Abs: 0.14013  Tot: -0.14000 ]
SCF: Cycle: 30   F: -7.068189932947655   dF: -1.615e-08   |Residual|: 2.853e-05   |deigs|: 9.527e-05  t[s]:     51.82
	FillingsUpdate:  mu: -0.111620613  nElectrons: 3.000000  magneticMoment: [ Abs: 0.14002  Tot: -0.14000 ]
SCF: Cycle: 31   F: -7.068189945581003   dF: -1.263e-08   |Residual|: 1.839e-05   |deigs|: 7.694e-05  t[s]:     53.33
	FillingsUpdate:  mu: -0.111630437  nElectrons: 3.000000  magneticMoment: [ Abs: 0.14000  Tot: -0.14000 ]
SCF: Cycle: 32   F: -7.068189949357970   dF: -3.777e-09   |Residual|: 1.441e-05   |deigs|: 1.161e-04  t[s]:     54.87
	FillingsUpdate:  mu: -0.111637799  nElectrons: 3.000000  magneticMoment: [ Abs: 0.14000  Tot: -0.14000 ]
SCF: Cycle: 33   F: -7.068189951629518   dF: -2.272e-09   |Residual|: 1.177e-05   |deigs|: 1.555e-04  t[s]:     56.45
SCF: Converged (|Delta E|<1.000000e-08 for 2 iters).


# Ionic positions in lattice coordinates:
ion Li   0.000000000000000   0.000000000000000   0.000000000000000 0

# Forces in Lattice coordinates:
force Li   0.000000000000000  -0.000000000000000   0.000000000000000 0

# Energy components:
   Eewald =       -2.0053362333702967
       EH =        1.5278758463289135
     Eloc =       -6.1885402935973710
      Enl =       -3.5905110629362311
   Epulay =        0.0000032255226020
      Exc =       -1.5371462072653714
       KE =        4.7254654615578904
-------------------------------------
     Etot =       -7.0681892637598640
       TS =        0.0000006878696540
-------------------------------------
        F =       -7.0681899516295177

IonicMinimize: Iter:   0  F: -7.068189951629518  |grad|_K:  0.000e+00  t[s]:     56.52
IonicMinimize: Converged (|grad|_K<1.000000e-04).

#--- Lowdin population analysis ---
# oxidation-state Li +2.162
# magnetic-moments Li -0.097

End date and time: Sat Feb  5 22:54:48 2022  (Duration: 0-0:00:56.54)
Done!
