
*************** JDFTx 1.6.0 (git hash 42ebbcc2) ***************

Start date and time: Sat Feb  5 22:52:45 2022
Executable jdftx with command-line: -i Alkali.in
Running on hosts (process indices):  d-16-13-1 (0-18)
Divided in process groups (process indices):  0 (0)  1 (1)  2 (2)  3 (3)  4 (4)  5 (5)  6 (6)  7 (7)  8 (8)  9 (9)  10 (10)  11 (11)  12 (12)  13 (13)  14 (14)  15 (15)  16 (16)  17 (17)  18 (18)
Resource initialization completed at t[s]:      0.00
Run totals: 19 processes, 48 threads, 0 GPUs


Input parsed successfully to the following command list (including defaults):

basis kpoint-dependent
coords-type Lattice
core-overlap-check vector
coulomb-interaction Slab 001
davidson-band-ratio 1.1
dump End None
dump-name $INPUT.$VAR
elec-cutoff 20
elec-eigen-algo Davidson
elec-ex-corr gga-PBE
elec-initial-magnetization -0.360000 yes
elec-smearing Fermi 1e-05
electronic-minimize  \
	dirUpdateScheme      FletcherReeves \
	linminMethod         DirUpdateRecommended \
	nIterations          100 \
	history              15 \
	knormThreshold       0 \
	energyDiffThreshold  1e-08 \
	nEnergyDiff          2 \
	alphaTstart          1 \
	alphaTmin            1e-10 \
	updateTestStepSize   yes \
	alphaTreduceFactor   0.1 \
	alphaTincreaseFactor 3 \
	nAlphaAdjustMax      3 \
	wolfeEnergy          0.0001 \
	wolfeGradient        0.9 \
	fdTest               no
electronic-scf  \
	nIterations	10000 \
	energyDiffThreshold	1e-08 \
	residualThreshold	1e-07 \
	mixFraction	0.5 \
	qMetric	0.8 \
	history	10 \
	nEigSteps	2 \
	eigDiffThreshold	1e-08 \
	mixedVariable	Density \
	qKerker	0.8 \
	qKappa	-1 \
	verbose	no \
	mixFractionMag	1.5
exchange-regularization WignerSeitzTruncated
fluid None
fluid-ex-corr (null) lda-PZ
fluid-gummel-loop 10 1.000000e-05
fluid-minimize  \
	dirUpdateScheme      PolakRibiere \
	linminMethod         DirUpdateRecommended \
	nIterations          100 \
	history              15 \
	knormThreshold       0 \
	energyDiffThreshold  0 \
	nEnergyDiff          2 \
	alphaTstart          1 \
	alphaTmin            1e-10 \
	updateTestStepSize   yes \
	alphaTreduceFactor   0.1 \
	alphaTincreaseFactor 3 \
	nAlphaAdjustMax      3 \
	wolfeEnergy          0.0001 \
	wolfeGradient        0.9 \
	fdTest               no
fluid-solvent H2O 55.338 ScalarEOS \
	epsBulk 78.4 \
	pMol 0.92466 \
	epsInf 1.77 \
	Pvap 1.06736e-10 \
	sigmaBulk 4.62e-05 \
	Rvdw 2.61727 \
	Res 1.42 \
	tauNuc 343133 \
	poleEl 15 7 1
forces-output-coords Positions
ion Li   0.000000000000000   0.000000000000000   0.000000000000000 0
ion-species SG15/$ID_ONCV_PBE.upf
ion-width 0
ionic-minimize  \
	dirUpdateScheme      L-BFGS \
	linminMethod         DirUpdateRecommended \
	nIterations          0 \
	history              15 \
	knormThreshold       0.0001 \
	energyDiffThreshold  1e-06 \
	nEnergyDiff          2 \
	alphaTstart          1 \
	alphaTmin            1e-10 \
	updateTestStepSize   yes \
	alphaTreduceFactor   0.1 \
	alphaTincreaseFactor 3 \
	nAlphaAdjustMax      3 \
	wolfeEnergy          0.0001 \
	wolfeGradient        0.9 \
	fdTest               no
kpoint   0.000000000000   0.000000000000   0.000000000000  1.00000000000000
kpoint-folding 12 12 1 
latt-move-scale 1 1 1
latt-scale 2 2 1 
lattice  \
	   4.727486978767153   -2.363743489383575    0.000000000000000  \
	  -0.000000000000000    4.094123819672498    0.000000000000000  \
	   0.000000000000000    0.000000000000000   40.000000000000000 
lattice-minimize  \
	dirUpdateScheme      L-BFGS \
	linminMethod         DirUpdateRecommended \
	nIterations          0 \
	history              15 \
	knormThreshold       0 \
	energyDiffThreshold  1e-06 \
	nEnergyDiff          2 \
	alphaTstart          1 \
	alphaTmin            1e-10 \
	updateTestStepSize   yes \
	alphaTreduceFactor   0.1 \
	alphaTincreaseFactor 3 \
	nAlphaAdjustMax      3 \
	wolfeEnergy          0.0001 \
	wolfeGradient        0.9 \
	fdTest               no
lcao-params -1 1e-06 1e-05
pcm-variant GLSSA13
spintype z-spin
subspace-rotation-factor 1 yes
symmetries automatic
symmetry-threshold 0.0001



---------- Setting up symmetries ----------

Found 24 point-group symmetries of the bravais lattice
Found 24 space-group symmetries with basis
Applied RMS atom displacement 0 bohrs to make symmetries exact.

---------- Initializing the Grid ----------
R = 
[      9.45497     -4.72749            0  ]
[            0      8.18825            0  ]
[            0            0           40  ]
unit cell volume = 3096.79
G =
[   0.664538   0.383671         -0  ]
[          0   0.767342         -0  ]
[         -0         -0    0.15708  ]
Minimum fftbox size, Smin = [  40  40  164  ]
Chosen fftbox size, S = [  40  40  168  ]

---------- Exchange Correlation functional ----------
Initalized PBE GGA exchange.
Initalized PBE GGA correlation.

---------- Setting up pseudopotentials ----------
Width of ionic core gaussian charges (only for fluid interactions / plotting) set to 0

Reading pseudopotential file '/home/gridsan/aligho/DFT/build-Nov24/pseudopotentials/SG15/Li_ONCV_PBE.upf':
  'Li' pseudopotential, 'PBE' functional
  Generated using ONCVPSP code by D. R. Hamann
  Author: Martin Schlipf and Francois Gygi  Date: 150915.
  3 valence electrons, 2 orbitals, 4 projectors, 1328 radial grid points, with lMax = 1
  Transforming local potential to a uniform radial grid of dG=0.02 with 1489 points.
  Transforming nonlocal projectors to a uniform radial grid of dG=0.02 with 432 points.
    1S    l: 0   occupation:  2.0   eigenvalue: -1.905623
    2S    l: 0   occupation:  1.0   eigenvalue: -0.105624
  Transforming atomic orbitals to a uniform radial grid of dG=0.02 with 432 points.
  WARNING: large normalization error in atomic orbital 1s (integral: 0.000000).
  Core radius for overlap checks: 1.63 bohrs.
  Reading pulay file /home/gridsan/aligho/DFT/build-Nov24/pseudopotentials/SG15/Li_ONCV_PBE.pulay ... using dE_dnG = -1.230239e-02 computed for Ecut = 20.

Initialized 1 species with 1 total atoms.

Folded 1 k-points by 12x12x1 to 144 k-points.

---------- Setting up k-points, bands, fillings ----------
Reduced to 19 k-points under symmetry. 
Computing the number of bands and number of electrons
Calculating initial fillings.
nElectrons:   3.000000   nBands: 3   nStates: 38

----- Setting up reduced wavefunction bases (one per k-point) -----
average nbasis = 13230.521 , ideal nbasis = 13229.709

---------- Setting up coulomb interaction ----------
Initialized slab truncation along lattice direction 001

---------- Setting up 2D ewald sum ----------
Optimum gaussian width for ewald sums = 5.249020 bohr.
Real space sums over 289 unit cells with max indices [  8  8  0  ]
Reciprocal space sums over 81 terms with max indices [  4  4  0  ]

---------- Allocating electronic variables ----------
Initializing wave functions:  linear combination of atomic orbitals
Note: number of bands (3) exceeds available atomic orbitals (2)
Li pseudo-atom occupations:   s ( 2 1 )
	FillingsUpdate:  mu: +0.325970093  nElectrons: 3.000000  magneticMoment: [ Abs: 0.36007  Tot: -0.36000 ]
LCAOMinimize: Iter:   0  F: -1.1817400487989607  |grad|_K:  7.373e-05  alpha:  1.000e+00
	FillingsUpdate:  mu: +0.325968452  nElectrons: 3.000000  magneticMoment: [ Abs: 0.36007  Tot: -0.36000 ]
LCAOMinimize: Iter:   1  F: -1.1817410196753886  |grad|_K:  1.825e-06  alpha:  1.044e+00  linmin: -1.755e-03  cgtest:  2.614e-02  t[s]:      3.85
LCAOMinimize: Encountered beta<0, resetting CG.
	FillingsUpdate:  mu: +0.325968444  nElectrons: 3.000000  magneticMoment: [ Abs: 0.36007  Tot: -0.36000 ]
LCAOMinimize: Iter:   2  F: -1.1817410202531262  |grad|_K:  5.749e-08  alpha:  1.016e+00  linmin: -3.576e-03  cgtest:  9.048e-02  t[s]:      4.89
LCAOMinimize: Encountered beta<0, resetting CG.
LCAOMinimize: Converged (|Delta F|<1.000000e-06 for 2 iters).


---- Citations for features of the code used in this run ----

   Software package:
      R. Sundararaman, K. Letchworth-Weaver, K.A. Schwarz, D. Gunceler, Y. Ozhabes and T.A. Arias, 'JDFTx: software for joint density-functional theory', SoftwareX 6, 278 (2017)

   gga-PBE exchange-correlation functional:
      J.P. Perdew, K. Burke and M. Ernzerhof, Phys. Rev. Lett. 77, 3865 (1996)

   Pseudopotentials:
      M Schlipf and F Gygi, Comput. Phys. Commun. 196, 36 (2015)

   Truncated Coulomb potentials:
      R. Sundararaman and T.A. Arias, Phys. Rev. B 87, 165122 (2013)

This list may not be complete. Please suggest additional citations or
report any other bugs at https://github.com/shankar1729/jdftx/issues

Initialization completed successfully at t[s]:      4.96


-------- Electronic minimization -----------
Will mix electronic density at each iteration.
	FillingsUpdate:  mu: +0.325968444  nElectrons: 3.000000  magneticMoment: [ Abs: 0.36007  Tot: -0.36000 ]
	FillingsUpdate:  mu: -0.971745825  nElectrons: 3.000000  magneticMoment: [ Abs: 0.36007  Tot: -0.36000 ]
SCF: Cycle:  0   F: -6.833140408877457   dF: -5.651e+00   |Residual|: 1.172e+00   |deigs|: 4.171e+00  t[s]:      6.64
	FillingsUpdate:  mu: -0.853635632  nElectrons: 3.000000  magneticMoment: [ Abs: 0.54920  Tot: -0.36000 ]
SCF: Cycle:  1   F: -6.937613768810102   dF: -1.045e-01   |Residual|: 7.740e-01   |deigs|: 2.355e-01  t[s]:      8.01
	FillingsUpdate:  mu: -0.635003599  nElectrons: 3.000000  magneticMoment: [ Abs: 0.71499  Tot: -0.36000 ]
SCF: Cycle:  2   F: -7.049589909634204   dF: -1.120e-01   |Residual|: 4.225e-01   |deigs|: 7.771e-01  t[s]:      9.32
	FillingsUpdate:  mu: -0.656202811  nElectrons: 3.000000  magneticMoment: [ Abs: 0.60588  Tot: -0.36000 ]
SCF: Cycle:  3   F: -7.057352858269535   dF: -7.763e-03   |Residual|: 2.092e-01   |deigs|: 1.227e-01  t[s]:     10.66
	FillingsUpdate:  mu: -0.620161200  nElectrons: 3.000000  magneticMoment: [ Abs: 0.46569  Tot: -0.36000 ]
SCF: Cycle:  4   F: -7.055878926426233   dF: +1.474e-03   |Residual|: 3.917e-02   |deigs|: 3.441e-02  t[s]:     12.06
	FillingsUpdate:  mu: -0.590480307  nElectrons: 3.000000  magneticMoment: [ Abs: 0.45253  Tot: -0.36000 ]
SCF: Cycle:  5   F: -7.055261480724662   dF: +6.174e-04   |Residual|: 1.292e-01   |deigs|: 2.413e-02  t[s]:     13.52
	FillingsUpdate:  mu: -0.460825980  nElectrons: 3.000000  magneticMoment: [ Abs: 0.53280  Tot: -0.36000 ]
SCF: Cycle:  6   F: -7.059889319085883   dF: -4.628e-03   |Residual|: 1.065e-01   |deigs|: 1.589e-01  t[s]:     14.95
	FillingsUpdate:  mu: -0.415135289  nElectrons: 3.000000  magneticMoment: [ Abs: 0.47554  Tot: -0.36000 ]
SCF: Cycle:  7   F: -7.060731294468941   dF: -8.420e-04   |Residual|: 1.610e-01   |deigs|: 1.142e-01  t[s]:     16.40
	FillingsUpdate:  mu: -0.401317184  nElectrons: 3.000000  magneticMoment: [ Abs: 0.44318  Tot: -0.36000 ]
SCF: Cycle:  8   F: -7.061884125370375   dF: -1.153e-03   |Residual|: 1.015e-01   |deigs|: 1.849e-02  t[s]:     17.90
	FillingsUpdate:  mu: -0.337400494  nElectrons: 3.000000  magneticMoment: [ Abs: 0.51542  Tot: -0.36000 ]
SCF: Cycle:  9   F: -7.064150172300885   dF: -2.266e-03   |Residual|: 1.533e-01   |deigs|: 7.884e-02  t[s]:     19.43
	FillingsUpdate:  mu: -0.319432959  nElectrons: 3.000000  magneticMoment: [ Abs: 0.47452  Tot: -0.36000 ]
SCF: Cycle: 10   F: -7.064502092206038   dF: -3.519e-04   |Residual|: 1.272e-01   |deigs|: 2.234e-02  t[s]:     20.97
	FillingsUpdate:  mu: -0.250688542  nElectrons: 3.000000  magneticMoment: [ Abs: 0.47649  Tot: -0.36000 ]
SCF: Cycle: 11   F: -7.066110545586318   dF: -1.608e-03   |Residual|: 1.820e-02   |deigs|: 1.027e-01  t[s]:     22.54
	FillingsUpdate:  mu: -0.223701274  nElectrons: 3.000000  magneticMoment: [ Abs: 0.48182  Tot: -0.36000 ]
SCF: Cycle: 12   F: -7.066353901229666   dF: -2.434e-04   |Residual|: 1.435e-02   |deigs|: 2.809e-02  t[s]:     24.15
	FillingsUpdate:  mu: -0.179798575  nElectrons: 3.000000  magneticMoment: [ Abs: 0.45544  Tot: -0.36000 ]
SCF: Cycle: 13   F: -7.066699521984160   dF: -3.456e-04   |Residual|: 1.334e-02   |deigs|: 4.556e-02  t[s]:     25.70
	FillingsUpdate:  mu: -0.150955851  nElectrons: 3.000000  magneticMoment: [ Abs: 0.42826  Tot: -0.36000 ]
SCF: Cycle: 14   F: -7.066728075135858   dF: -2.855e-05   |Residual|: 9.174e-03   |deigs|: 2.970e-02  t[s]:     27.25
	FillingsUpdate:  mu: -0.135093864  nElectrons: 3.000000  magneticMoment: [ Abs: 0.41107  Tot: -0.36000 ]
SCF: Cycle: 15   F: -7.066727208698129   dF: +8.664e-07   |Residual|: 6.909e-03   |deigs|: 1.435e-02  t[s]:     28.76
	FillingsUpdate:  mu: -0.118265060  nElectrons: 3.000000  magneticMoment: [ Abs: 0.40764  Tot: -0.36000 ]
SCF: Cycle: 16   F: -7.066874501359589   dF: -1.473e-04   |Residual|: 4.757e-03   |deigs|: 1.694e-02  t[s]:     30.26
	FillingsUpdate:  mu: -0.109401642  nElectrons: 3.000000  magneticMoment: [ Abs: 0.39769  Tot: -0.36000 ]
SCF: Cycle: 17   F: -7.066991010681118   dF: -1.165e-04   |Residual|: 3.055e-03   |deigs|: 1.015e-02  t[s]:     31.77
	FillingsUpdate:  mu: -0.109597232  nElectrons: 3.000000  magneticMoment: [ Abs: 0.38628  Tot: -0.36000 ]
SCF: Cycle: 18   F: -7.067029368808305   dF: -3.836e-05   |Residual|: 2.211e-03   |deigs|: 5.522e-04  t[s]:     33.39
	FillingsUpdate:  mu: -0.110461934  nElectrons: 3.000000  magneticMoment: [ Abs: 0.37397  Tot: -0.36000 ]
SCF: Cycle: 19   F: -7.067050086706613   dF: -2.072e-05   |Residual|: 1.005e-03   |deigs|: 1.441e-03  t[s]:     34.89
	FillingsUpdate:  mu: -0.110397380  nElectrons: 3.000000  magneticMoment: [ Abs: 0.37208  Tot: -0.36000 ]
SCF: Cycle: 20   F: -7.067051988853041   dF: -1.902e-06   |Residual|: 7.090e-04   |deigs|: 8.812e-05  t[s]:     36.35
	FillingsUpdate:  mu: -0.110668372  nElectrons: 3.000000  magneticMoment: [ Abs: 0.36893  Tot: -0.36000 ]
SCF: Cycle: 21   F: -7.067054305365000   dF: -2.317e-06   |Residual|: 4.050e-04   |deigs|: 3.372e-04  t[s]:     37.86
	FillingsUpdate:  mu: -0.110404066  nElectrons: 3.000000  magneticMoment: [ Abs: 0.36746  Tot: -0.36000 ]
SCF: Cycle: 22   F: -7.067054291464359   dF: +1.390e-08   |Residual|: 3.293e-04   |deigs|: 3.720e-04  t[s]:     39.35
	FillingsUpdate:  mu: -0.110379185  nElectrons: 3.000000  magneticMoment: [ Abs: 0.36513  Tot: -0.36000 ]
SCF: Cycle: 23   F: -7.067055576217178   dF: -1.285e-06   |Residual|: 2.832e-04   |deigs|: 1.234e-04  t[s]:     40.90
	FillingsUpdate:  mu: -0.110293738  nElectrons: 3.000000  magneticMoment: [ Abs: 0.36240  Tot: -0.36000 ]
SCF: Cycle: 24   F: -7.067056310251633   dF: -7.340e-07   |Residual|: 2.180e-04   |deigs|: 1.010e-04  t[s]:     42.39
	FillingsUpdate:  mu: -0.110214178  nElectrons: 3.000000  magneticMoment: [ Abs: 0.36120  Tot: -0.36000 ]
SCF: Cycle: 25   F: -7.067056224798296   dF: +8.545e-08   |Residual|: 1.832e-04   |deigs|: 1.054e-04  t[s]:     43.89
	FillingsUpdate:  mu: -0.110194409  nElectrons: 3.000000  magneticMoment: [ Abs: 0.36052  Tot: -0.36000 ]
SCF: Cycle: 26   F: -7.067056513793537   dF: -2.890e-07   |Residual|: 9.571e-05   |deigs|: 5.809e-05  t[s]:     45.42
	FillingsUpdate:  mu: -0.110121651  nElectrons: 3.000000  magneticMoment: [ Abs: 0.36024  Tot: -0.36000 ]
SCF: Cycle: 27   F: -7.067056571042936   dF: -5.725e-08   |Residual|: 5.662e-05   |deigs|: 8.212e-05  t[s]:     46.90
	FillingsUpdate:  mu: -0.110076628  nElectrons: 3.000000  magneticMoment: [ Abs: 0.36005  Tot: -0.36000 ]
SCF: Cycle: 28   F: -7.067056615274126   dF: -4.423e-08   |Residual|: 3.244e-05   |deigs|: 1.271e-04  t[s]:     48.40
	FillingsUpdate:  mu: -0.110051059  nElectrons: 3.000000  magneticMoment: [ Abs: 0.36000  Tot: -0.36000 ]
SCF: Cycle: 29   F: -7.067056621538397   dF: -6.264e-09   |Residual|: 2.013e-05   |deigs|: 2.924e-04  t[s]:     49.94
	FillingsUpdate:  mu: -0.110028657  nElectrons: 3.000000  magneticMoment: [ Abs: 0.36001  Tot: -0.36000 ]
SCF: Cycle: 30   F: -7.067056626918408   dF: -5.380e-09   |Residual|: 1.429e-05   |deigs|: 5.730e-05  t[s]:     51.47
SCF: Converged (|Delta E|<1.000000e-08 for 2 iters).


# Ionic positions in lattice coordinates:
ion Li   0.000000000000000   0.000000000000000   0.000000000000000 0

# Forces in Lattice coordinates:
force Li  -0.000000000000000   0.000000000000000   0.000000000000000 0

# Energy components:
   Eewald =       -2.0053362333702967
       EH =        1.5307032340316400
     Eloc =       -6.1918058422620579
      Enl =       -3.5903641622691431
   Epulay =        0.0000032255226020
      Exc =       -1.5384448973256932
       KE =        4.7281887488321690
-------------------------------------
     Etot =       -7.0670559268407800
       TS =        0.0000007000776281
-------------------------------------
        F =       -7.0670566269184079

IonicMinimize: Iter:   0  F: -7.067056626918408  |grad|_K:  0.000e+00  t[s]:     51.54
IonicMinimize: Converged (|grad|_K<1.000000e-04).

#--- Lowdin population analysis ---
# oxidation-state Li +2.178
# magnetic-moments Li -0.249

End date and time: Sat Feb  5 22:53:37 2022  (Duration: 0-0:00:51.55)
Done!
