
*************** JDFTx 1.6.0 (git hash 42ebbcc2) ***************

Start date and time: Sat Feb  5 22:45:58 2022
Executable jdftx with command-line: -i Alkali.in
Running on hosts (process indices):  d-6-7-4 (0-18)
Divided in process groups (process indices):  0 (0)  1 (1)  2 (2)  3 (3)  4 (4)  5 (5)  6 (6)  7 (7)  8 (8)  9 (9)  10 (10)  11 (11)  12 (12)  13 (13)  14 (14)  15 (15)  16 (16)  17 (17)  18 (18)
Resource initialization completed at t[s]:      0.00
Run totals: 19 processes, 48 threads, 0 GPUs


Input parsed successfully to the following command list (including defaults):

basis kpoint-dependent
coords-type Lattice
core-overlap-check vector
coulomb-interaction Slab 001
davidson-band-ratio 1.1
dump End None
dump-name $INPUT.$VAR
elec-cutoff 20
elec-eigen-algo Davidson
elec-ex-corr gga-PBE
elec-initial-magnetization -0.760000 yes
elec-smearing Fermi 1e-05
electronic-minimize  \
	dirUpdateScheme      FletcherReeves \
	linminMethod         DirUpdateRecommended \
	nIterations          100 \
	history              15 \
	knormThreshold       0 \
	energyDiffThreshold  1e-08 \
	nEnergyDiff          2 \
	alphaTstart          1 \
	alphaTmin            1e-10 \
	updateTestStepSize   yes \
	alphaTreduceFactor   0.1 \
	alphaTincreaseFactor 3 \
	nAlphaAdjustMax      3 \
	wolfeEnergy          0.0001 \
	wolfeGradient        0.9 \
	fdTest               no
electronic-scf  \
	nIterations	10000 \
	energyDiffThreshold	1e-08 \
	residualThreshold	1e-07 \
	mixFraction	0.5 \
	qMetric	0.8 \
	history	10 \
	nEigSteps	2 \
	eigDiffThreshold	1e-08 \
	mixedVariable	Density \
	qKerker	0.8 \
	qKappa	-1 \
	verbose	no \
	mixFractionMag	1.5
exchange-regularization WignerSeitzTruncated
fluid None
fluid-ex-corr (null) lda-PZ
fluid-gummel-loop 10 1.000000e-05
fluid-minimize  \
	dirUpdateScheme      PolakRibiere \
	linminMethod         DirUpdateRecommended \
	nIterations          100 \
	history              15 \
	knormThreshold       0 \
	energyDiffThreshold  0 \
	nEnergyDiff          2 \
	alphaTstart          1 \
	alphaTmin            1e-10 \
	updateTestStepSize   yes \
	alphaTreduceFactor   0.1 \
	alphaTincreaseFactor 3 \
	nAlphaAdjustMax      3 \
	wolfeEnergy          0.0001 \
	wolfeGradient        0.9 \
	fdTest               no
fluid-solvent H2O 55.338 ScalarEOS \
	epsBulk 78.4 \
	pMol 0.92466 \
	epsInf 1.77 \
	Pvap 1.06736e-10 \
	sigmaBulk 4.62e-05 \
	Rvdw 2.61727 \
	Res 1.42 \
	tauNuc 343133 \
	poleEl 15 7 1
forces-output-coords Positions
ion Li   0.000000000000000   0.000000000000000   0.000000000000000 0
ion-species SG15/$ID_ONCV_PBE.upf
ion-width 0
ionic-minimize  \
	dirUpdateScheme      L-BFGS \
	linminMethod         DirUpdateRecommended \
	nIterations          0 \
	history              15 \
	knormThreshold       0.0001 \
	energyDiffThreshold  1e-06 \
	nEnergyDiff          2 \
	alphaTstart          1 \
	alphaTmin            1e-10 \
	updateTestStepSize   yes \
	alphaTreduceFactor   0.1 \
	alphaTincreaseFactor 3 \
	nAlphaAdjustMax      3 \
	wolfeEnergy          0.0001 \
	wolfeGradient        0.9 \
	fdTest               no
kpoint   0.000000000000   0.000000000000   0.000000000000  1.00000000000000
kpoint-folding 12 12 1 
latt-move-scale 1 1 1
latt-scale 2 2 1 
lattice  \
	   4.727486978767153   -2.363743489383575    0.000000000000000  \
	  -0.000000000000000    4.094123819672498    0.000000000000000  \
	   0.000000000000000    0.000000000000000   40.000000000000000 
lattice-minimize  \
	dirUpdateScheme      L-BFGS \
	linminMethod         DirUpdateRecommended \
	nIterations          0 \
	history              15 \
	knormThreshold       0 \
	energyDiffThreshold  1e-06 \
	nEnergyDiff          2 \
	alphaTstart          1 \
	alphaTmin            1e-10 \
	updateTestStepSize   yes \
	alphaTreduceFactor   0.1 \
	alphaTincreaseFactor 3 \
	nAlphaAdjustMax      3 \
	wolfeEnergy          0.0001 \
	wolfeGradient        0.9 \
	fdTest               no
lcao-params -1 1e-06 1e-05
pcm-variant GLSSA13
spintype z-spin
subspace-rotation-factor 1 yes
symmetries automatic
symmetry-threshold 0.0001



---------- Setting up symmetries ----------

Found 24 point-group symmetries of the bravais lattice
Found 24 space-group symmetries with basis
Applied RMS atom displacement 0 bohrs to make symmetries exact.

---------- Initializing the Grid ----------
R = 
[      9.45497     -4.72749            0  ]
[            0      8.18825            0  ]
[            0            0           40  ]
unit cell volume = 3096.79
G =
[   0.664538   0.383671         -0  ]
[          0   0.767342         -0  ]
[         -0         -0    0.15708  ]
Minimum fftbox size, Smin = [  40  40  164  ]
Chosen fftbox size, S = [  40  40  168  ]

---------- Exchange Correlation functional ----------
Initalized PBE GGA exchange.
Initalized PBE GGA correlation.

---------- Setting up pseudopotentials ----------
Width of ionic core gaussian charges (only for fluid interactions / plotting) set to 0

Reading pseudopotential file '/home/gridsan/aligho/DFT/build-Nov24/pseudopotentials/SG15/Li_ONCV_PBE.upf':
  'Li' pseudopotential, 'PBE' functional
  Generated using ONCVPSP code by D. R. Hamann
  Author: Martin Schlipf and Francois Gygi  Date: 150915.
  3 valence electrons, 2 orbitals, 4 projectors, 1328 radial grid points, with lMax = 1
  Transforming local potential to a uniform radial grid of dG=0.02 with 1489 points.
  Transforming nonlocal projectors to a uniform radial grid of dG=0.02 with 432 points.
    1S    l: 0   occupation:  2.0   eigenvalue: -1.905623
    2S    l: 0   occupation:  1.0   eigenvalue: -0.105624
  Transforming atomic orbitals to a uniform radial grid of dG=0.02 with 432 points.
  WARNING: large normalization error in atomic orbital 1s (integral: 0.000000).
  Core radius for overlap checks: 1.63 bohrs.
  Reading pulay file /home/gridsan/aligho/DFT/build-Nov24/pseudopotentials/SG15/Li_ONCV_PBE.pulay ... using dE_dnG = -1.230239e-02 computed for Ecut = 20.

Initialized 1 species with 1 total atoms.

Folded 1 k-points by 12x12x1 to 144 k-points.

---------- Setting up k-points, bands, fillings ----------
Reduced to 19 k-points under symmetry. 
Computing the number of bands and number of electrons
Calculating initial fillings.
nElectrons:   3.000000   nBands: 3   nStates: 38

----- Setting up reduced wavefunction bases (one per k-point) -----
average nbasis = 13230.521 , ideal nbasis = 13229.709

---------- Setting up coulomb interaction ----------
Initialized slab truncation along lattice direction 001

---------- Setting up 2D ewald sum ----------
Optimum gaussian width for ewald sums = 5.249020 bohr.
Real space sums over 289 unit cells with max indices [  8  8  0  ]
Reciprocal space sums over 81 terms with max indices [  4  4  0  ]

---------- Allocating electronic variables ----------
Initializing wave functions:  linear combination of atomic orbitals
Note: number of bands (3) exceeds available atomic orbitals (2)
Li pseudo-atom occupations:   s ( 2 1 )
	FillingsUpdate:  mu: +0.338907625  nElectrons: 3.000000  magneticMoment: [ Abs: 0.76000  Tot: -0.76000 ]
LCAOMinimize: Iter:   0  F: -1.1779369825140160  |grad|_K:  6.110e-05  alpha:  1.000e+00
LCAOMinimize: 	Wrong curvature in test step, increasing alphaT to 3.000000e+00.
	FillingsUpdate:  mu: +0.338683316  nElectrons: 3.000000  magneticMoment: [ Abs: 0.76000  Tot: -0.76000 ]
LCAOMinimize: Iter:   1  F: -1.1779781552600579  |grad|_K:  2.996e-06  alpha: -1.600e-02  linmin: -6.969e-02  cgtest:  8.892e-01  t[s]:      3.75
LCAOMinimize: Encountered beta<0, resetting CG.
	FillingsUpdate:  mu: +0.338683286  nElectrons: 3.000000  magneticMoment: [ Abs: 0.76000  Tot: -0.76000 ]
LCAOMinimize: Iter:   2  F: -1.1779781568865582  |grad|_K:  8.438e-08  alpha:  1.060e+00  linmin: -1.154e-03  cgtest:  1.775e-02  t[s]:      4.79
LCAOMinimize: 	Wrong curvature in test step, increasing alphaT to 3.181465e+00.
	FillingsUpdate:  mu: +0.338683287  nElectrons: 3.000000  magneticMoment: [ Abs: 0.76000  Tot: -0.76000 ]
LCAOMinimize: Iter:   3  F: -1.1779781568906660  |grad|_K:  3.896e-09  alpha: -8.983e-01  linmin:  9.730e-03  cgtest: -3.680e-01  t[s]:      5.78
LCAOMinimize: Converged (|Delta F|<1.000000e-06 for 2 iters).


---- Citations for features of the code used in this run ----

   Software package:
      R. Sundararaman, K. Letchworth-Weaver, K.A. Schwarz, D. Gunceler, Y. Ozhabes and T.A. Arias, 'JDFTx: software for joint density-functional theory', SoftwareX 6, 278 (2017)

   gga-PBE exchange-correlation functional:
      J.P. Perdew, K. Burke and M. Ernzerhof, Phys. Rev. Lett. 77, 3865 (1996)

   Pseudopotentials:
      M Schlipf and F Gygi, Comput. Phys. Commun. 196, 36 (2015)

   Truncated Coulomb potentials:
      R. Sundararaman and T.A. Arias, Phys. Rev. B 87, 165122 (2013)

This list may not be complete. Please suggest additional citations or
report any other bugs at https://github.com/shankar1729/jdftx/issues

Initialization completed successfully at t[s]:      5.85


-------- Electronic minimization -----------
Will mix electronic density at each iteration.
	FillingsUpdate:  mu: +0.338683287  nElectrons: 3.000000  magneticMoment: [ Abs: 0.76000  Tot: -0.76000 ]
	FillingsUpdate:  mu: -0.973389659  nElectrons: 3.000000  magneticMoment: [ Abs: 0.76000  Tot: -0.76000 ]
SCF: Cycle:  0   F: -6.842827347762722   dF: -5.665e+00   |Residual|: 1.175e+00   |deigs|: 4.172e+00  t[s]:      7.49
	FillingsUpdate:  mu: -0.856226314  nElectrons: 3.000000  magneticMoment: [ Abs: 1.15959  Tot: -0.76000 ]
SCF: Cycle:  1   F: -6.931824924784913   dF: -8.900e-02   |Residual|: 7.769e-01   |deigs|: 2.374e-01  t[s]:      8.73
	FillingsUpdate:  mu: -0.662569640  nElectrons: 3.000000  magneticMoment: [ Abs: 1.49421  Tot: -0.76000 ]
SCF: Cycle:  2   F: -7.044382108709199   dF: -1.126e-01   |Residual|: 4.184e-01   |deigs|: 7.715e-01  t[s]:     10.03
	FillingsUpdate:  mu: -0.673174916  nElectrons: 3.000000  magneticMoment: [ Abs: 1.22823  Tot: -0.76000 ]
SCF: Cycle:  3   F: -7.051674957777845   dF: -7.293e-03   |Residual|: 1.859e-01   |deigs|: 1.323e-01  t[s]:     11.37
	FillingsUpdate:  mu: -0.619264574  nElectrons: 3.000000  magneticMoment: [ Abs: 0.96769  Tot: -0.76000 ]
SCF: Cycle:  4   F: -7.051881365921615   dF: -2.064e-04   |Residual|: 4.108e-02   |deigs|: 3.876e-02  t[s]:     12.68
	FillingsUpdate:  mu: -0.595328480  nElectrons: 3.000000  magneticMoment: [ Abs: 0.93244  Tot: -0.76000 ]
SCF: Cycle:  5   F: -7.052346600987469   dF: -4.652e-04   |Residual|: 6.718e-02   |deigs|: 1.926e-02  t[s]:     14.06
	FillingsUpdate:  mu: -0.463630537  nElectrons: 3.000000  magneticMoment: [ Abs: 1.04857  Tot: -0.76000 ]
SCF: Cycle:  6   F: -7.056285602959771   dF: -3.939e-03   |Residual|: 9.364e-02   |deigs|: 1.445e-01  t[s]:     15.55
	FillingsUpdate:  mu: -0.444360976  nElectrons: 3.000000  magneticMoment: [ Abs: 0.98488  Tot: -0.76000 ]
SCF: Cycle:  7   F: -7.057064669062446   dF: -7.791e-04   |Residual|: 3.385e-02   |deigs|: 4.462e-02  t[s]:     16.99
	FillingsUpdate:  mu: -0.401922021  nElectrons: 3.000000  magneticMoment: [ Abs: 0.94481  Tot: -0.76000 ]
SCF: Cycle:  8   F: -7.059096043483037   dF: -2.031e-03   |Residual|: 4.269e-02   |deigs|: 4.482e-02  t[s]:     18.43
	FillingsUpdate:  mu: -0.364610886  nElectrons: 3.000000  magneticMoment: [ Abs: 0.89501  Tot: -0.76000 ]
SCF: Cycle:  9   F: -7.060742766036317   dF: -1.647e-03   |Residual|: 3.131e-02   |deigs|: 3.220e-02  t[s]:     19.87
	FillingsUpdate:  mu: -0.334477565  nElectrons: 3.000000  magneticMoment: [ Abs: 0.87746  Tot: -0.76000 ]
SCF: Cycle: 10   F: -7.061639271106549   dF: -8.965e-04   |Residual|: 2.704e-02   |deigs|: 2.510e-02  t[s]:     21.42
	FillingsUpdate:  mu: -0.295052089  nElectrons: 3.000000  magneticMoment: [ Abs: 0.93321  Tot: -0.76000 ]
SCF: Cycle: 11   F: -7.062031128728505   dF: -3.919e-04   |Residual|: 1.802e-02   |deigs|: 4.410e-02  t[s]:     22.87
	FillingsUpdate:  mu: -0.253209123  nElectrons: 3.000000  magneticMoment: [ Abs: 0.95206  Tot: -0.76000 ]
SCF: Cycle: 12   F: -7.062445700298089   dF: -4.146e-04   |Residual|: 1.309e-02   |deigs|: 4.501e-02  t[s]:     24.33
	FillingsUpdate:  mu: -0.212121358  nElectrons: 3.000000  magneticMoment: [ Abs: 0.93065  Tot: -0.76000 ]
SCF: Cycle: 13   F: -7.062642872123299   dF: -1.972e-04   |Residual|: 1.192e-02   |deigs|: 4.061e-02  t[s]:     25.76
	FillingsUpdate:  mu: -0.171914094  nElectrons: 3.000000  magneticMoment: [ Abs: 0.88479  Tot: -0.76000 ]
SCF: Cycle: 14   F: -7.062710193995296   dF: -6.732e-05   |Residual|: 9.462e-03   |deigs|: 3.994e-02  t[s]:     27.22
	FillingsUpdate:  mu: -0.132723559  nElectrons: 3.000000  magneticMoment: [ Abs: 0.84577  Tot: -0.76000 ]
SCF: Cycle: 15   F: -7.062765748796215   dF: -5.555e-05   |Residual|: 7.177e-03   |deigs|: 4.022e-02  t[s]:     28.66
	FillingsUpdate:  mu: -0.120907145  nElectrons: 3.000000  magneticMoment: [ Abs: 0.82950  Tot: -0.76000 ]
SCF: Cycle: 16   F: -7.062951876017878   dF: -1.861e-04   |Residual|: 5.834e-03   |deigs|: 1.168e-02  t[s]:     30.24
	FillingsUpdate:  mu: -0.111902489  nElectrons: 3.000000  magneticMoment: [ Abs: 0.81198  Tot: -0.76000 ]
SCF: Cycle: 17   F: -7.063184827167084   dF: -2.330e-04   |Residual|: 3.325e-03   |deigs|: 9.336e-03  t[s]:     31.73
	FillingsUpdate:  mu: -0.107442254  nElectrons: 3.000000  magneticMoment: [ Abs: 0.79517  Tot: -0.76000 ]
SCF: Cycle: 18   F: -7.063263234028191   dF: -7.841e-05   |Residual|: 2.150e-03   |deigs|: 5.210e-03  t[s]:     33.17
	FillingsUpdate:  mu: -0.106879699  nElectrons: 3.000000  magneticMoment: [ Abs: 0.78367  Tot: -0.76000 ]
SCF: Cycle: 19   F: -7.063290294466675   dF: -2.706e-05   |Residual|: 1.300e-03   |deigs|: 1.007e-03  t[s]:     34.70
	FillingsUpdate:  mu: -0.107536679  nElectrons: 3.000000  magneticMoment: [ Abs: 0.77512  Tot: -0.76000 ]
SCF: Cycle: 20   F: -7.063303890704022   dF: -1.360e-05   |Residual|: 8.978e-04   |deigs|: 7.335e-04  t[s]:     36.17
	FillingsUpdate:  mu: -0.107072923  nElectrons: 3.000000  magneticMoment: [ Abs: 0.77185  Tot: -0.76000 ]
SCF: Cycle: 21   F: -7.063309988202713   dF: -6.097e-06   |Residual|: 6.836e-04   |deigs|: 6.670e-04  t[s]:     37.62
	FillingsUpdate:  mu: -0.107344658  nElectrons: 3.000000  magneticMoment: [ Abs: 0.76800  Tot: -0.76000 ]
SCF: Cycle: 22   F: -7.063312503170482   dF: -2.515e-06   |Residual|: 6.110e-04   |deigs|: 3.336e-04  t[s]:     39.06
	FillingsUpdate:  mu: -0.106942298  nElectrons: 3.000000  magneticMoment: [ Abs: 0.76535  Tot: -0.76000 ]
SCF: Cycle: 23   F: -7.063314666789322   dF: -2.164e-06   |Residual|: 5.072e-04   |deigs|: 4.977e-04  t[s]:     40.52
	FillingsUpdate:  mu: -0.106442725  nElectrons: 3.000000  magneticMoment: [ Abs: 0.76189  Tot: -0.76000 ]
SCF: Cycle: 24   F: -7.063314476703751   dF: +1.901e-07   |Residual|: 3.485e-04   |deigs|: 5.041e-04  t[s]:     41.98
	FillingsUpdate:  mu: -0.106352824  nElectrons: 3.000000  magneticMoment: [ Abs: 0.76074  Tot: -0.76000 ]
SCF: Cycle: 25   F: -7.063314864813465   dF: -3.881e-07   |Residual|: 2.621e-04   |deigs|: 1.011e-04  t[s]:     43.47
	FillingsUpdate:  mu: -0.106161023  nElectrons: 3.000000  magneticMoment: [ Abs: 0.76029  Tot: -0.76000 ]
SCF: Cycle: 26   F: -7.063315343397151   dF: -4.786e-07   |Residual|: 1.627e-04   |deigs|: 1.967e-04  t[s]:     44.93
	FillingsUpdate:  mu: -0.106177875  nElectrons: 3.000000  magneticMoment: [ Abs: 0.76032  Tot: -0.76000 ]
SCF: Cycle: 27   F: -7.063315758251462   dF: -4.149e-07   |Residual|: 8.996e-05   |deigs|: 6.618e-05  t[s]:     46.34
	FillingsUpdate:  mu: -0.106217315  nElectrons: 3.000000  magneticMoment: [ Abs: 0.76012  Tot: -0.76000 ]
SCF: Cycle: 28   F: -7.063315804169522   dF: -4.592e-08   |Residual|: 5.610e-05   |deigs|: 4.543e-05  t[s]:     47.80
	FillingsUpdate:  mu: -0.106269624  nElectrons: 3.000000  magneticMoment: [ Abs: 0.76004  Tot: -0.76000 ]
SCF: Cycle: 29   F: -7.063315857365909   dF: -5.320e-08   |Residual|: 2.851e-05   |deigs|: 5.415e-05  t[s]:     49.28
	FillingsUpdate:  mu: -0.106338954  nElectrons: 3.000000  magneticMoment: [ Abs: 0.76001  Tot: -0.76000 ]
SCF: Cycle: 30   F: -7.063315867666470   dF: -1.030e-08   |Residual|: 2.014e-05   |deigs|: 7.030e-05  t[s]:     50.71
	FillingsUpdate:  mu: -0.106415191  nElectrons: 3.000000  magneticMoment: [ Abs: 0.76001  Tot: -0.76000 ]
SCF: Cycle: 31   F: -7.063315874381641   dF: -6.715e-09   |Residual|: 1.376e-05   |deigs|: 7.366e-05  t[s]:     52.13
	FillingsUpdate:  mu: -0.106472177  nElectrons: 3.000000  magneticMoment: [ Abs: 0.76005  Tot: -0.76000 ]
SCF: Cycle: 32   F: -7.063315876881293   dF: -2.500e-09   |Residual|: 6.060e-06   |deigs|: 2.066e-04  t[s]:     53.56
SCF: Converged (|Delta E|<1.000000e-08 for 2 iters).


# Ionic positions in lattice coordinates:
ion Li   0.000000000000000   0.000000000000000   0.000000000000000 0

# Forces in Lattice coordinates:
force Li   0.000000000000000   0.000000000000000   0.000000000000000 0

# Energy components:
   Eewald =       -2.0053362333702967
       EH =        1.5411242979351738
     Eloc =       -6.2038544254978376
      Enl =       -3.5898673209492187
   Epulay =        0.0000032255226020
      Exc =       -1.5437915698436722
       KE =        4.7384064635850587
-------------------------------------
     Etot =       -7.0633155626181887
       TS =        0.0000003142631043
-------------------------------------
        F =       -7.0633158768812931

IonicMinimize: Iter:   0  F: -7.063315876881293  |grad|_K:  0.000e+00  t[s]:     53.63
IonicMinimize: Converged (|grad|_K<1.000000e-04).

#--- Lowdin population analysis ---
# oxidation-state Li +2.235
# magnetic-moments Li -0.530

End date and time: Sat Feb  5 22:46:51 2022  (Duration: 0-0:00:53.64)
Done!
