
*************** JDFTx 1.6.0 (git hash 42ebbcc2) ***************

Start date and time: Sat Feb  5 23:06:42 2022
Executable jdftx with command-line: -i Alkali.in
Running on hosts (process indices):  d-3-10-4 (0-18)
Divided in process groups (process indices):  0 (0)  1 (1)  2 (2)  3 (3)  4 (4)  5 (5)  6 (6)  7 (7)  8 (8)  9 (9)  10 (10)  11 (11)  12 (12)  13 (13)  14 (14)  15 (15)  16 (16)  17 (17)  18 (18)
Resource initialization completed at t[s]:      0.00
Run totals: 19 processes, 48 threads, 0 GPUs


Input parsed successfully to the following command list (including defaults):

basis kpoint-dependent
coords-type Lattice
core-overlap-check vector
coulomb-interaction Slab 001
davidson-band-ratio 1.1
dump End None
dump-name $INPUT.$VAR
elec-cutoff 20
elec-eigen-algo Davidson
elec-ex-corr gga-PBE
elec-initial-magnetization 0.520000 yes
elec-smearing Fermi 1e-05
electronic-minimize  \
	dirUpdateScheme      FletcherReeves \
	linminMethod         DirUpdateRecommended \
	nIterations          100 \
	history              15 \
	knormThreshold       0 \
	energyDiffThreshold  1e-08 \
	nEnergyDiff          2 \
	alphaTstart          1 \
	alphaTmin            1e-10 \
	updateTestStepSize   yes \
	alphaTreduceFactor   0.1 \
	alphaTincreaseFactor 3 \
	nAlphaAdjustMax      3 \
	wolfeEnergy          0.0001 \
	wolfeGradient        0.9 \
	fdTest               no
electronic-scf  \
	nIterations	10000 \
	energyDiffThreshold	1e-08 \
	residualThreshold	1e-07 \
	mixFraction	0.5 \
	qMetric	0.8 \
	history	10 \
	nEigSteps	2 \
	eigDiffThreshold	1e-08 \
	mixedVariable	Density \
	qKerker	0.8 \
	qKappa	-1 \
	verbose	no \
	mixFractionMag	1.5
exchange-regularization WignerSeitzTruncated
fluid None
fluid-ex-corr (null) lda-PZ
fluid-gummel-loop 10 1.000000e-05
fluid-minimize  \
	dirUpdateScheme      PolakRibiere \
	linminMethod         DirUpdateRecommended \
	nIterations          100 \
	history              15 \
	knormThreshold       0 \
	energyDiffThreshold  0 \
	nEnergyDiff          2 \
	alphaTstart          1 \
	alphaTmin            1e-10 \
	updateTestStepSize   yes \
	alphaTreduceFactor   0.1 \
	alphaTincreaseFactor 3 \
	nAlphaAdjustMax      3 \
	wolfeEnergy          0.0001 \
	wolfeGradient        0.9 \
	fdTest               no
fluid-solvent H2O 55.338 ScalarEOS \
	epsBulk 78.4 \
	pMol 0.92466 \
	epsInf 1.77 \
	Pvap 1.06736e-10 \
	sigmaBulk 4.62e-05 \
	Rvdw 2.61727 \
	Res 1.42 \
	tauNuc 343133 \
	poleEl 15 7 1
forces-output-coords Positions
ion Li   0.000000000000000   0.000000000000000   0.000000000000000 0
ion-species SG15/$ID_ONCV_PBE.upf
ion-width 0
ionic-minimize  \
	dirUpdateScheme      L-BFGS \
	linminMethod         DirUpdateRecommended \
	nIterations          0 \
	history              15 \
	knormThreshold       0.0001 \
	energyDiffThreshold  1e-06 \
	nEnergyDiff          2 \
	alphaTstart          1 \
	alphaTmin            1e-10 \
	updateTestStepSize   yes \
	alphaTreduceFactor   0.1 \
	alphaTincreaseFactor 3 \
	nAlphaAdjustMax      3 \
	wolfeEnergy          0.0001 \
	wolfeGradient        0.9 \
	fdTest               no
kpoint   0.000000000000   0.000000000000   0.000000000000  1.00000000000000
kpoint-folding 12 12 1 
latt-move-scale 1 1 1
latt-scale 2 2 1 
lattice  \
	   4.727486978767153   -2.363743489383575    0.000000000000000  \
	  -0.000000000000000    4.094123819672498    0.000000000000000  \
	   0.000000000000000    0.000000000000000   40.000000000000000 
lattice-minimize  \
	dirUpdateScheme      L-BFGS \
	linminMethod         DirUpdateRecommended \
	nIterations          0 \
	history              15 \
	knormThreshold       0 \
	energyDiffThreshold  1e-06 \
	nEnergyDiff          2 \
	alphaTstart          1 \
	alphaTmin            1e-10 \
	updateTestStepSize   yes \
	alphaTreduceFactor   0.1 \
	alphaTincreaseFactor 3 \
	nAlphaAdjustMax      3 \
	wolfeEnergy          0.0001 \
	wolfeGradient        0.9 \
	fdTest               no
lcao-params -1 1e-06 1e-05
pcm-variant GLSSA13
spintype z-spin
subspace-rotation-factor 1 yes
symmetries automatic
symmetry-threshold 0.0001



---------- Setting up symmetries ----------

Found 24 point-group symmetries of the bravais lattice
Found 24 space-group symmetries with basis
Applied RMS atom displacement 0 bohrs to make symmetries exact.

---------- Initializing the Grid ----------
R = 
[      9.45497     -4.72749            0  ]
[            0      8.18825            0  ]
[            0            0           40  ]
unit cell volume = 3096.79
G =
[   0.664538   0.383671         -0  ]
[          0   0.767342         -0  ]
[         -0         -0    0.15708  ]
Minimum fftbox size, Smin = [  40  40  164  ]
Chosen fftbox size, S = [  40  40  168  ]

---------- Exchange Correlation functional ----------
Initalized PBE GGA exchange.
Initalized PBE GGA correlation.

---------- Setting up pseudopotentials ----------
Width of ionic core gaussian charges (only for fluid interactions / plotting) set to 0

Reading pseudopotential file '/home/gridsan/aligho/DFT/build-Nov24/pseudopotentials/SG15/Li_ONCV_PBE.upf':
  'Li' pseudopotential, 'PBE' functional
  Generated using ONCVPSP code by D. R. Hamann
  Author: Martin Schlipf and Francois Gygi  Date: 150915.
  3 valence electrons, 2 orbitals, 4 projectors, 1328 radial grid points, with lMax = 1
  Transforming local potential to a uniform radial grid of dG=0.02 with 1489 points.
  Transforming nonlocal projectors to a uniform radial grid of dG=0.02 with 432 points.
    1S    l: 0   occupation:  2.0   eigenvalue: -1.905623
    2S    l: 0   occupation:  1.0   eigenvalue: -0.105624
  Transforming atomic orbitals to a uniform radial grid of dG=0.02 with 432 points.
  WARNING: large normalization error in atomic orbital 1s (integral: 0.000000).
  Core radius for overlap checks: 1.63 bohrs.
  Reading pulay file /home/gridsan/aligho/DFT/build-Nov24/pseudopotentials/SG15/Li_ONCV_PBE.pulay ... using dE_dnG = -1.230239e-02 computed for Ecut = 20.

Initialized 1 species with 1 total atoms.

Folded 1 k-points by 12x12x1 to 144 k-points.

---------- Setting up k-points, bands, fillings ----------
Reduced to 19 k-points under symmetry. 
Computing the number of bands and number of electrons
Calculating initial fillings.
nElectrons:   3.000000   nBands: 3   nStates: 38

----- Setting up reduced wavefunction bases (one per k-point) -----
average nbasis = 13230.521 , ideal nbasis = 13229.709

---------- Setting up coulomb interaction ----------
Initialized slab truncation along lattice direction 001

---------- Setting up 2D ewald sum ----------
Optimum gaussian width for ewald sums = 5.249020 bohr.
Real space sums over 289 unit cells with max indices [  8  8  0  ]
Reciprocal space sums over 81 terms with max indices [  4  4  0  ]

---------- Allocating electronic variables ----------
Initializing wave functions:  linear combination of atomic orbitals
Note: number of bands (3) exceeds available atomic orbitals (2)
Li pseudo-atom occupations:   s ( 2 1 )
	FillingsUpdate:  mu: +0.310897584  nElectrons: 3.000000  magneticMoment: [ Abs: 0.52000  Tot: +0.52000 ]
LCAOMinimize: Iter:   0  F: -1.1679911069127056  |grad|_K:  6.498e-05  alpha:  1.000e+00
	FillingsUpdate:  mu: +0.310895734  nElectrons: 3.000000  magneticMoment: [ Abs: 0.52000  Tot: +0.52000 ]
LCAOMinimize: Iter:   1  F: -1.1679918621270113  |grad|_K:  1.519e-06  alpha:  1.046e+00  linmin: -1.812e-03  cgtest:  2.577e-02  t[s]:      3.86
LCAOMinimize: Encountered beta<0, resetting CG.
	FillingsUpdate:  mu: +0.310895742  nElectrons: 3.000000  magneticMoment: [ Abs: 0.52000  Tot: +0.52000 ]
LCAOMinimize: Iter:   2  F: -1.1679918625255126  |grad|_K:  4.356e-08  alpha:  1.014e+00  linmin: -1.479e-03  cgtest:  3.993e-02  t[s]:      4.89
LCAOMinimize: Encountered beta<0, resetting CG.
LCAOMinimize: Converged (|Delta F|<1.000000e-06 for 2 iters).


---- Citations for features of the code used in this run ----

   Software package:
      R. Sundararaman, K. Letchworth-Weaver, K.A. Schwarz, D. Gunceler, Y. Ozhabes and T.A. Arias, 'JDFTx: software for joint density-functional theory', SoftwareX 6, 278 (2017)

   gga-PBE exchange-correlation functional:
      J.P. Perdew, K. Burke and M. Ernzerhof, Phys. Rev. Lett. 77, 3865 (1996)

   Pseudopotentials:
      M Schlipf and F Gygi, Comput. Phys. Commun. 196, 36 (2015)

   Truncated Coulomb potentials:
      R. Sundararaman and T.A. Arias, Phys. Rev. B 87, 165122 (2013)

This list may not be complete. Please suggest additional citations or
report any other bugs at https://github.com/shankar1729/jdftx/issues

Initialization completed successfully at t[s]:      4.95


-------- Electronic minimization -----------
Will mix electronic density at each iteration.
	FillingsUpdate:  mu: +0.310895742  nElectrons: 3.000000  magneticMoment: [ Abs: 0.52000  Tot: +0.52000 ]
	FillingsUpdate:  mu: -0.987518395  nElectrons: 3.000000  magneticMoment: [ Abs: 0.52000  Tot: +0.52000 ]
SCF: Cycle:  0   F: -6.829079457432865   dF: -5.661e+00   |Residual|: 1.173e+00   |deigs|: 4.170e+00  t[s]:      6.70
	FillingsUpdate:  mu: -0.868427944  nElectrons: 3.000000  magneticMoment: [ Abs: 0.83446  Tot: +0.52000 ]
SCF: Cycle:  1   F: -6.935582529584619   dF: -1.065e-01   |Residual|: 7.748e-01   |deigs|: 2.360e-01  t[s]:      8.00
	FillingsUpdate:  mu: -0.659043815  nElectrons: 3.000000  magneticMoment: [ Abs: 1.07771  Tot: +0.52000 ]
SCF: Cycle:  2   F: -7.046629319138447   dF: -1.110e-01   |Residual|: 4.187e-01   |deigs|: 7.748e-01  t[s]:      9.36
	FillingsUpdate:  mu: -0.675384170  nElectrons: 3.000000  magneticMoment: [ Abs: 0.90907  Tot: +0.52000 ]
SCF: Cycle:  3   F: -7.054898684639339   dF: -8.269e-03   |Residual|: 2.005e-01   |deigs|: 1.250e-01  t[s]:     10.78
	FillingsUpdate:  mu: -0.624513166  nElectrons: 3.000000  magneticMoment: [ Abs: 0.68561  Tot: +0.52000 ]
SCF: Cycle:  4   F: -7.053795341274022   dF: +1.103e-03   |Residual|: 4.549e-02   |deigs|: 4.049e-02  t[s]:     12.22
	FillingsUpdate:  mu: -0.603025645  nElectrons: 3.000000  magneticMoment: [ Abs: 0.67874  Tot: +0.52000 ]
SCF: Cycle:  5   F: -7.054098661281375   dF: -3.033e-04   |Residual|: 9.735e-02   |deigs|: 1.674e-02  t[s]:     13.64
	FillingsUpdate:  mu: -0.472202533  nElectrons: 3.000000  magneticMoment: [ Abs: 0.74656  Tot: +0.52000 ]
SCF: Cycle:  6   F: -7.058442019756817   dF: -4.343e-03   |Residual|: 1.253e-01   |deigs|: 1.477e-01  t[s]:     15.07
	FillingsUpdate:  mu: -0.439451350  nElectrons: 3.000000  magneticMoment: [ Abs: 0.69607  Tot: +0.52000 ]
SCF: Cycle:  7   F: -7.059946664109898   dF: -1.505e-03   |Residual|: 4.647e-02   |deigs|: 7.253e-02  t[s]:     16.52
	FillingsUpdate:  mu: -0.397160285  nElectrons: 3.000000  magneticMoment: [ Abs: 0.66329  Tot: +0.52000 ]
SCF: Cycle:  8   F: -7.061786960198768   dF: -1.840e-03   |Residual|: 7.518e-02   |deigs|: 4.629e-02  t[s]:     18.06
	FillingsUpdate:  mu: -0.366333165  nElectrons: 3.000000  magneticMoment: [ Abs: 0.62097  Tot: +0.52000 ]
SCF: Cycle:  9   F: -7.063500778924448   dF: -1.714e-03   |Residual|: 2.689e-02   |deigs|: 3.142e-02  t[s]:     19.72
	FillingsUpdate:  mu: -0.333806994  nElectrons: 3.000000  magneticMoment: [ Abs: 0.63329  Tot: +0.52000 ]
SCF: Cycle: 10   F: -7.064125967061913   dF: -6.252e-04   |Residual|: 4.222e-02   |deigs|: 2.656e-02  t[s]:     21.26
	FillingsUpdate:  mu: -0.281129955  nElectrons: 3.000000  magneticMoment: [ Abs: 0.68251  Tot: +0.52000 ]
SCF: Cycle: 11   F: -7.064765737817021   dF: -6.398e-04   |Residual|: 2.140e-02   |deigs|: 5.875e-02  t[s]:     22.79
	FillingsUpdate:  mu: -0.237365041  nElectrons: 3.000000  magneticMoment: [ Abs: 0.68740  Tot: +0.52000 ]
SCF: Cycle: 12   F: -7.065044810670753   dF: -2.791e-04   |Residual|: 1.372e-02   |deigs|: 4.979e-02  t[s]:     24.33
	FillingsUpdate:  mu: -0.192131388  nElectrons: 3.000000  magneticMoment: [ Abs: 0.65937  Tot: +0.52000 ]
SCF: Cycle: 13   F: -7.065417863187960   dF: -3.731e-04   |Residual|: 1.119e-02   |deigs|: 4.445e-02  t[s]:     25.90
	FillingsUpdate:  mu: -0.161035843  nElectrons: 3.000000  magneticMoment: [ Abs: 0.61715  Tot: +0.52000 ]
SCF: Cycle: 14   F: -7.065492737454228   dF: -7.487e-05   |Residual|: 9.650e-03   |deigs|: 3.457e-02  t[s]:     27.45
	FillingsUpdate:  mu: -0.130783144  nElectrons: 3.000000  magneticMoment: [ Abs: 0.60444  Tot: +0.52000 ]
SCF: Cycle: 15   F: -7.065586864447141   dF: -9.413e-05   |Residual|: 6.803e-03   |deigs|: 3.046e-02  t[s]:     29.00
	FillingsUpdate:  mu: -0.117586407  nElectrons: 3.000000  magneticMoment: [ Abs: 0.59175  Tot: +0.52000 ]
SCF: Cycle: 16   F: -7.065760590755700   dF: -1.737e-04   |Residual|: 5.351e-03   |deigs|: 1.281e-02  t[s]:     30.54
	FillingsUpdate:  mu: -0.112819973  nElectrons: 3.000000  magneticMoment: [ Abs: 0.57504  Tot: +0.52000 ]
SCF: Cycle: 17   F: -7.065843286636186   dF: -8.270e-05   |Residual|: 3.373e-03   |deigs|: 4.141e-03  t[s]:     32.07
	FillingsUpdate:  mu: -0.108488069  nElectrons: 3.000000  magneticMoment: [ Abs: 0.55957  Tot: +0.52000 ]
SCF: Cycle: 18   F: -7.065934943431978   dF: -9.166e-05   |Residual|: 2.055e-03   |deigs|: 4.126e-03  t[s]:     33.63
	FillingsUpdate:  mu: -0.108593414  nElectrons: 3.000000  magneticMoment: [ Abs: 0.54538  Tot: +0.52000 ]
SCF: Cycle: 19   F: -7.065956023886255   dF: -2.108e-05   |Residual|: 1.147e-03   |deigs|: 3.545e-04  t[s]:     35.15
	FillingsUpdate:  mu: -0.109010678  nElectrons: 3.000000  magneticMoment: [ Abs: 0.53676  Tot: +0.52000 ]
SCF: Cycle: 20   F: -7.065962164868220   dF: -6.141e-06   |Residual|: 7.822e-04   |deigs|: 4.230e-04  t[s]:     36.67
	FillingsUpdate:  mu: -0.109212572  nElectrons: 3.000000  magneticMoment: [ Abs: 0.53278  Tot: +0.52000 ]
SCF: Cycle: 21   F: -7.065964374362519   dF: -2.209e-06   |Residual|: 5.776e-04   |deigs|: 2.346e-04  t[s]:     38.19
	FillingsUpdate:  mu: -0.109430929  nElectrons: 3.000000  magneticMoment: [ Abs: 0.52969  Tot: +0.52000 ]
SCF: Cycle: 22   F: -7.065965565300317   dF: -1.191e-06   |Residual|: 4.546e-04   |deigs|: 1.931e-04  t[s]:     39.73
	FillingsUpdate:  mu: -0.109888675  nElectrons: 3.000000  magneticMoment: [ Abs: 0.52582  Tot: +0.52000 ]
SCF: Cycle: 23   F: -7.065966468164437   dF: -9.029e-07   |Residual|: 3.938e-04   |deigs|: 4.624e-04  t[s]:     41.26
	FillingsUpdate:  mu: -0.110083355  nElectrons: 3.000000  magneticMoment: [ Abs: 0.52182  Tot: +0.52000 ]
SCF: Cycle: 24   F: -7.065966599279073   dF: -1.311e-07   |Residual|: 2.774e-04   |deigs|: 2.882e-04  t[s]:     42.78
	FillingsUpdate:  mu: -0.110163910  nElectrons: 3.000000  magneticMoment: [ Abs: 0.52093  Tot: +0.52000 ]
SCF: Cycle: 25   F: -7.065966526307464   dF: +7.297e-08   |Residual|: 1.966e-04   |deigs|: 1.030e-04  t[s]:     44.30
	FillingsUpdate:  mu: -0.110010823  nElectrons: 3.000000  magneticMoment: [ Abs: 0.52052  Tot: +0.52000 ]
SCF: Cycle: 26   F: -7.065966763910865   dF: -2.376e-07   |Residual|: 1.410e-04   |deigs|: 1.572e-04  t[s]:     45.86
	FillingsUpdate:  mu: -0.109939327  nElectrons: 3.000000  magneticMoment: [ Abs: 0.52020  Tot: +0.52000 ]
SCF: Cycle: 27   F: -7.065967131999567   dF: -3.681e-07   |Residual|: 9.586e-05   |deigs|: 8.559e-05  t[s]:     47.44
	FillingsUpdate:  mu: -0.109870235  nElectrons: 3.000000  magneticMoment: [ Abs: 0.52006  Tot: +0.52000 ]
SCF: Cycle: 28   F: -7.065967225248485   dF: -9.325e-08   |Residual|: 7.189e-05   |deigs|: 7.923e-05  t[s]:     48.95
	FillingsUpdate:  mu: -0.109804898  nElectrons: 3.000000  magneticMoment: [ Abs: 0.52004  Tot: +0.52000 ]
SCF: Cycle: 29   F: -7.065967243959975   dF: -1.871e-08   |Residual|: 5.657e-05   |deigs|: 7.504e-05  t[s]:     50.45
	FillingsUpdate:  mu: -0.109760121  nElectrons: 3.000000  magneticMoment: [ Abs: 0.52001  Tot: +0.52000 ]
SCF: Cycle: 30   F: -7.065967279109869   dF: -3.515e-08   |Residual|: 4.185e-05   |deigs|: 6.433e-05  t[s]:     51.98
	FillingsUpdate:  mu: -0.109720523  nElectrons: 3.000000  magneticMoment: [ Abs: 0.52002  Tot: +0.52000 ]
SCF: Cycle: 31   F: -7.065967294569738   dF: -1.546e-08   |Residual|: 3.250e-05   |deigs|: 5.236e-05  t[s]:     53.51
	FillingsUpdate:  mu: -0.109678365  nElectrons: 3.000000  magneticMoment: [ Abs: 0.52007  Tot: +0.52000 ]
SCF: Cycle: 32   F: -7.065967298930274   dF: -4.361e-09   |Residual|: 2.212e-05   |deigs|: 5.495e-05  t[s]:     55.04
	FillingsUpdate:  mu: -0.109631647  nElectrons: 3.000000  magneticMoment: [ Abs: 0.52005  Tot: +0.52000 ]
SCF: Cycle: 33   F: -7.065967295997852   dF: +2.932e-09   |Residual|: 1.483e-05   |deigs|: 5.609e-05  t[s]:     56.63
	FillingsUpdate:  mu: -0.109597991  nElectrons: 3.000000  magneticMoment: [ Abs: 0.52002  Tot: +0.52000 ]
SCF: Cycle: 34   F: -7.065967306099234   dF: -1.010e-08   |Residual|: 9.911e-06   |deigs|: 4.383e-05  t[s]:     58.17
	FillingsUpdate:  mu: -0.109577906  nElectrons: 3.000000  magneticMoment: [ Abs: 0.52000  Tot: +0.52000 ]
SCF: Cycle: 35   F: -7.065967310745878   dF: -4.647e-09   |Residual|: 7.906e-06   |deigs|: 5.896e-05  t[s]:     59.78
	FillingsUpdate:  mu: -0.109559010  nElectrons: 3.000000  magneticMoment: [ Abs: 0.52000  Tot: +0.52000 ]
SCF: Cycle: 36   F: -7.065967311155589   dF: -4.097e-10   |Residual|: 7.569e-06   |deigs|: 6.680e-05  t[s]:     61.35
SCF: Converged (|Delta E|<1.000000e-08 for 2 iters).


# Ionic positions in lattice coordinates:
ion Li   0.000000000000000   0.000000000000000   0.000000000000000 0

# Forces in Lattice coordinates:
force Li   0.000000000000000  -0.000000000000000   0.000000000000000 0

# Energy components:
   Eewald =       -2.0053362333702967
       EH =        1.5338987344044375
     Eloc =       -6.1954941581998515
      Enl =       -3.5902154123658918
   Epulay =        0.0000032255226020
      Exc =       -1.5400922415409273
       KE =        4.7312691869052621
-------------------------------------
     Etot =       -7.0659668986446640
       TS =        0.0000004125109251
-------------------------------------
        F =       -7.0659673111555890

IonicMinimize: Iter:   0  F: -7.065967311155589  |grad|_K:  0.000e+00  t[s]:     61.42
IonicMinimize: Converged (|grad|_K<1.000000e-04).

#--- Lowdin population analysis ---
# oxidation-state Li +2.195
# magnetic-moments Li +0.361

End date and time: Sat Feb  5 23:07:43 2022  (Duration: 0-0:01:01.42)
Done!
