
*************** JDFTx 1.6.0 (git hash 42ebbcc2) ***************

Start date and time: Sat Feb  5 22:53:19 2022
Executable jdftx with command-line: -i Alkali.in
Running on hosts (process indices):  d-16-5-2 (0-18)
Divided in process groups (process indices):  0 (0)  1 (1)  2 (2)  3 (3)  4 (4)  5 (5)  6 (6)  7 (7)  8 (8)  9 (9)  10 (10)  11 (11)  12 (12)  13 (13)  14 (14)  15 (15)  16 (16)  17 (17)  18 (18)
Resource initialization completed at t[s]:      0.00
Run totals: 19 processes, 48 threads, 0 GPUs


Input parsed successfully to the following command list (including defaults):

basis kpoint-dependent
coords-type Lattice
core-overlap-check vector
coulomb-interaction Slab 001
davidson-band-ratio 1.1
dump End None
dump-name $INPUT.$VAR
elec-cutoff 20
elec-eigen-algo Davidson
elec-ex-corr gga-PBE
elec-initial-magnetization -0.200000 yes
elec-smearing Fermi 1e-05
electronic-minimize  \
	dirUpdateScheme      FletcherReeves \
	linminMethod         DirUpdateRecommended \
	nIterations          100 \
	history              15 \
	knormThreshold       0 \
	energyDiffThreshold  1e-08 \
	nEnergyDiff          2 \
	alphaTstart          1 \
	alphaTmin            1e-10 \
	updateTestStepSize   yes \
	alphaTreduceFactor   0.1 \
	alphaTincreaseFactor 3 \
	nAlphaAdjustMax      3 \
	wolfeEnergy          0.0001 \
	wolfeGradient        0.9 \
	fdTest               no
electronic-scf  \
	nIterations	10000 \
	energyDiffThreshold	1e-08 \
	residualThreshold	1e-07 \
	mixFraction	0.5 \
	qMetric	0.8 \
	history	10 \
	nEigSteps	2 \
	eigDiffThreshold	1e-08 \
	mixedVariable	Density \
	qKerker	0.8 \
	qKappa	-1 \
	verbose	no \
	mixFractionMag	1.5
exchange-regularization WignerSeitzTruncated
fluid None
fluid-ex-corr (null) lda-PZ
fluid-gummel-loop 10 1.000000e-05
fluid-minimize  \
	dirUpdateScheme      PolakRibiere \
	linminMethod         DirUpdateRecommended \
	nIterations          100 \
	history              15 \
	knormThreshold       0 \
	energyDiffThreshold  0 \
	nEnergyDiff          2 \
	alphaTstart          1 \
	alphaTmin            1e-10 \
	updateTestStepSize   yes \
	alphaTreduceFactor   0.1 \
	alphaTincreaseFactor 3 \
	nAlphaAdjustMax      3 \
	wolfeEnergy          0.0001 \
	wolfeGradient        0.9 \
	fdTest               no
fluid-solvent H2O 55.338 ScalarEOS \
	epsBulk 78.4 \
	pMol 0.92466 \
	epsInf 1.77 \
	Pvap 1.06736e-10 \
	sigmaBulk 4.62e-05 \
	Rvdw 2.61727 \
	Res 1.42 \
	tauNuc 343133 \
	poleEl 15 7 1
forces-output-coords Positions
ion Li   0.000000000000000   0.000000000000000   0.000000000000000 0
ion-species SG15/$ID_ONCV_PBE.upf
ion-width 0
ionic-minimize  \
	dirUpdateScheme      L-BFGS \
	linminMethod         DirUpdateRecommended \
	nIterations          0 \
	history              15 \
	knormThreshold       0.0001 \
	energyDiffThreshold  1e-06 \
	nEnergyDiff          2 \
	alphaTstart          1 \
	alphaTmin            1e-10 \
	updateTestStepSize   yes \
	alphaTreduceFactor   0.1 \
	alphaTincreaseFactor 3 \
	nAlphaAdjustMax      3 \
	wolfeEnergy          0.0001 \
	wolfeGradient        0.9 \
	fdTest               no
kpoint   0.000000000000   0.000000000000   0.000000000000  1.00000000000000
kpoint-folding 12 12 1 
latt-move-scale 1 1 1
latt-scale 2 2 1 
lattice  \
	   4.727486978767153   -2.363743489383575    0.000000000000000  \
	  -0.000000000000000    4.094123819672498    0.000000000000000  \
	   0.000000000000000    0.000000000000000   40.000000000000000 
lattice-minimize  \
	dirUpdateScheme      L-BFGS \
	linminMethod         DirUpdateRecommended \
	nIterations          0 \
	history              15 \
	knormThreshold       0 \
	energyDiffThreshold  1e-06 \
	nEnergyDiff          2 \
	alphaTstart          1 \
	alphaTmin            1e-10 \
	updateTestStepSize   yes \
	alphaTreduceFactor   0.1 \
	alphaTincreaseFactor 3 \
	nAlphaAdjustMax      3 \
	wolfeEnergy          0.0001 \
	wolfeGradient        0.9 \
	fdTest               no
lcao-params -1 1e-06 1e-05
pcm-variant GLSSA13
spintype z-spin
subspace-rotation-factor 1 yes
symmetries automatic
symmetry-threshold 0.0001



---------- Setting up symmetries ----------

Found 24 point-group symmetries of the bravais lattice
Found 24 space-group symmetries with basis
Applied RMS atom displacement 0 bohrs to make symmetries exact.

---------- Initializing the Grid ----------
R = 
[      9.45497     -4.72749            0  ]
[            0      8.18825            0  ]
[            0            0           40  ]
unit cell volume = 3096.79
G =
[   0.664538   0.383671         -0  ]
[          0   0.767342         -0  ]
[         -0         -0    0.15708  ]
Minimum fftbox size, Smin = [  40  40  164  ]
Chosen fftbox size, S = [  40  40  168  ]

---------- Exchange Correlation functional ----------
Initalized PBE GGA exchange.
Initalized PBE GGA correlation.

---------- Setting up pseudopotentials ----------
Width of ionic core gaussian charges (only for fluid interactions / plotting) set to 0

Reading pseudopotential file '/home/gridsan/aligho/DFT/build-Nov24/pseudopotentials/SG15/Li_ONCV_PBE.upf':
  'Li' pseudopotential, 'PBE' functional
  Generated using ONCVPSP code by D. R. Hamann
  Author: Martin Schlipf and Francois Gygi  Date: 150915.
  3 valence electrons, 2 orbitals, 4 projectors, 1328 radial grid points, with lMax = 1
  Transforming local potential to a uniform radial grid of dG=0.02 with 1489 points.
  Transforming nonlocal projectors to a uniform radial grid of dG=0.02 with 432 points.
    1S    l: 0   occupation:  2.0   eigenvalue: -1.905623
    2S    l: 0   occupation:  1.0   eigenvalue: -0.105624
  Transforming atomic orbitals to a uniform radial grid of dG=0.02 with 432 points.
  WARNING: large normalization error in atomic orbital 1s (integral: 0.000000).
  Core radius for overlap checks: 1.63 bohrs.
  Reading pulay file /home/gridsan/aligho/DFT/build-Nov24/pseudopotentials/SG15/Li_ONCV_PBE.pulay ... using dE_dnG = -1.230239e-02 computed for Ecut = 20.

Initialized 1 species with 1 total atoms.

Folded 1 k-points by 12x12x1 to 144 k-points.

---------- Setting up k-points, bands, fillings ----------
Reduced to 19 k-points under symmetry. 
Computing the number of bands and number of electrons
Calculating initial fillings.
nElectrons:   3.000000   nBands: 3   nStates: 38

----- Setting up reduced wavefunction bases (one per k-point) -----
average nbasis = 13230.521 , ideal nbasis = 13229.709

---------- Setting up coulomb interaction ----------
Initialized slab truncation along lattice direction 001

---------- Setting up 2D ewald sum ----------
Optimum gaussian width for ewald sums = 5.249020 bohr.
Real space sums over 289 unit cells with max indices [  8  8  0  ]
Reciprocal space sums over 81 terms with max indices [  4  4  0  ]

---------- Allocating electronic variables ----------
Initializing wave functions:  linear combination of atomic orbitals
Note: number of bands (3) exceeds available atomic orbitals (2)
Li pseudo-atom occupations:   s ( 2 1 )
	FillingsUpdate:  mu: +0.321360648  nElectrons: 3.000000  magneticMoment: [ Abs: 0.20498  Tot: -0.20000 ]
LCAOMinimize: Iter:   0  F: -1.1816775963741735  |grad|_K:  7.619e-05  alpha:  1.000e+00
	FillingsUpdate:  mu: +0.321357881  nElectrons: 3.000000  magneticMoment: [ Abs: 0.20498  Tot: -0.20000 ]
LCAOMinimize: Iter:   1  F: -1.1816786314849452  |grad|_K:  1.905e-06  alpha:  1.043e+00  linmin: -1.930e-03  cgtest:  3.028e-02  t[s]:      3.93
LCAOMinimize: Encountered beta<0, resetting CG.
	FillingsUpdate:  mu: +0.321357883  nElectrons: 3.000000  magneticMoment: [ Abs: 0.20498  Tot: -0.20000 ]
LCAOMinimize: Iter:   2  F: -1.1816786321159609  |grad|_K:  5.449e-08  alpha:  1.015e+00  linmin: -2.712e-03  cgtest:  7.015e-02  t[s]:      5.02
LCAOMinimize: Encountered beta<0, resetting CG.
LCAOMinimize: 	Step increased F by 1.526113e-12, reducing alpha to 6.632179e-02.
LCAOMinimize: 	Step increased F by 3.255174e-13, reducing alpha to 6.632179e-03.
LCAOMinimize: 	Step increased F by 1.838529e-13, reducing alpha to 6.632179e-04.
LCAOMinimize: 	Step failed to reduce F after 3 attempts. Quitting step.
LCAOMinimize: 	Undoing step.
LCAOMinimize: 	Step failed along negative gradient direction.
LCAOMinimize: Probably at roundoff error limit. (Stopping)


---- Citations for features of the code used in this run ----

   Software package:
      R. Sundararaman, K. Letchworth-Weaver, K.A. Schwarz, D. Gunceler, Y. Ozhabes and T.A. Arias, 'JDFTx: software for joint density-functional theory', SoftwareX 6, 278 (2017)

   gga-PBE exchange-correlation functional:
      J.P. Perdew, K. Burke and M. Ernzerhof, Phys. Rev. Lett. 77, 3865 (1996)

   Pseudopotentials:
      M Schlipf and F Gygi, Comput. Phys. Commun. 196, 36 (2015)

   Truncated Coulomb potentials:
      R. Sundararaman and T.A. Arias, Phys. Rev. B 87, 165122 (2013)

This list may not be complete. Please suggest additional citations or
report any other bugs at https://github.com/shankar1729/jdftx/issues

Initialization completed successfully at t[s]:      7.73


-------- Electronic minimization -----------
Will mix electronic density at each iteration.
	FillingsUpdate:  mu: +0.321357883  nElectrons: 3.000000  magneticMoment: [ Abs: 0.20498  Tot: -0.20000 ]
	FillingsUpdate:  mu: -0.971808839  nElectrons: 3.000000  magneticMoment: [ Abs: 0.20498  Tot: -0.20000 ]
SCF: Cycle:  0   F: -6.831061337092984   dF: -5.649e+00   |Residual|: 1.172e+00   |deigs|: 4.171e+00  t[s]:      9.44
	FillingsUpdate:  mu: -0.857960097  nElectrons: 3.000000  magneticMoment: [ Abs: 0.30303  Tot: -0.20000 ]
SCF: Cycle:  1   F: -6.937132247549529   dF: -1.061e-01   |Residual|: 7.732e-01   |deigs|: 2.341e-01  t[s]:     10.82
	FillingsUpdate:  mu: -0.618720980  nElectrons: 3.000000  magneticMoment: [ Abs: 0.38987  Tot: -0.20000 ]
SCF: Cycle:  2   F: -7.050945291109480   dF: -1.138e-01   |Residual|: 4.202e-01   |deigs|: 7.828e-01  t[s]:     12.18
	FillingsUpdate:  mu: -0.650588223  nElectrons: 3.000000  magneticMoment: [ Abs: 0.33550  Tot: -0.20000 ]
SCF: Cycle:  3   F: -7.058024772749947   dF: -7.079e-03   |Residual|: 2.108e-01   |deigs|: 1.260e-01  t[s]:     13.53
	FillingsUpdate:  mu: -0.617261813  nElectrons: 3.000000  magneticMoment: [ Abs: 0.33969  Tot: -0.20000 ]
SCF: Cycle:  4   F: -7.056849479117507   dF: +1.175e-03   |Residual|: 4.844e-02   |deigs|: 3.633e-02  t[s]:     14.94
	FillingsUpdate:  mu: -0.579413819  nElectrons: 3.000000  magneticMoment: [ Abs: 0.27053  Tot: -0.20000 ]
SCF: Cycle:  5   F: -7.055403934241757   dF: +1.446e-03   |Residual|: 1.738e-01   |deigs|: 3.055e-02  t[s]:     16.33
	FillingsUpdate:  mu: -0.495148742  nElectrons: 3.000000  magneticMoment: [ Abs: 0.33178  Tot: -0.20000 ]
SCF: Cycle:  6   F: -7.060304579189115   dF: -4.901e-03   |Residual|: 3.832e-02   |deigs|: 1.339e-01  t[s]:     17.85
	FillingsUpdate:  mu: -0.414754738  nElectrons: 3.000000  magneticMoment: [ Abs: 0.38952  Tot: -0.20000 ]
SCF: Cycle:  7   F: -7.061449538001098   dF: -1.145e-03   |Residual|: 1.692e-01   |deigs|: 1.357e-01  t[s]:     19.31
	FillingsUpdate:  mu: -0.378284665  nElectrons: 3.000000  magneticMoment: [ Abs: 0.34111  Tot: -0.20000 ]
SCF: Cycle:  8   F: -7.064422244400361   dF: -2.973e-03   |Residual|: 3.155e-02   |deigs|: 4.575e-02  t[s]:     20.80
	FillingsUpdate:  mu: -0.332308013  nElectrons: 3.000000  magneticMoment: [ Abs: 0.67747  Tot: -0.20000 ]
SCF: Cycle:  9   F: -7.062941815147743   dF: +1.480e-03   |Residual|: 1.684e-01   |deigs|: 5.852e-02  t[s]:     22.33
	FillingsUpdate:  mu: -0.298071899  nElectrons: 3.000000  magneticMoment: [ Abs: 0.39456  Tot: -0.20000 ]
SCF: Cycle: 10   F: -7.064340967902003   dF: -1.399e-03   |Residual|: 1.833e-01   |deigs|: 2.936e-02  t[s]:     23.88
	FillingsUpdate:  mu: -0.251691271  nElectrons: 3.000000  magneticMoment: [ Abs: 0.27986  Tot: -0.20000 ]
SCF: Cycle: 11   F: -7.067148452963308   dF: -2.807e-03   |Residual|: 1.584e-02   |deigs|: 1.056e-01  t[s]:     25.48
	FillingsUpdate:  mu: -0.212490432  nElectrons: 3.000000  magneticMoment: [ Abs: 0.28443  Tot: -0.20000 ]
SCF: Cycle: 12   F: -7.067455430703029   dF: -3.070e-04   |Residual|: 1.976e-02   |deigs|: 3.958e-02  t[s]:     27.03
	FillingsUpdate:  mu: -0.181643153  nElectrons: 3.000000  magneticMoment: [ Abs: 0.25459  Tot: -0.20000 ]
SCF: Cycle: 13   F: -7.067684299288366   dF: -2.289e-04   |Residual|: 1.134e-02   |deigs|: 3.044e-02  t[s]:     28.56
	FillingsUpdate:  mu: -0.146526360  nElectrons: 3.000000  magneticMoment: [ Abs: 0.24140  Tot: -0.20000 ]
SCF: Cycle: 14   F: -7.067821286251597   dF: -1.370e-04   |Residual|: 8.966e-03   |deigs|: 3.658e-02  t[s]:     30.06
	FillingsUpdate:  mu: -0.127925619  nElectrons: 3.000000  magneticMoment: [ Abs: 0.23969  Tot: -0.20000 ]
SCF: Cycle: 15   F: -7.067827411378615   dF: -6.125e-06   |Residual|: 6.446e-03   |deigs|: 1.835e-02  t[s]:     31.64
	FillingsUpdate:  mu: -0.116487703  nElectrons: 3.000000  magneticMoment: [ Abs: 0.22307  Tot: -0.20000 ]
SCF: Cycle: 16   F: -7.067925967865977   dF: -9.856e-05   |Residual|: 4.115e-03   |deigs|: 1.005e-02  t[s]:     33.14
	FillingsUpdate:  mu: -0.114483095  nElectrons: 3.000000  magneticMoment: [ Abs: 0.21602  Tot: -0.20000 ]
SCF: Cycle: 17   F: -7.067988196692009   dF: -6.223e-05   |Residual|: 2.768e-03   |deigs|: 1.549e-03  t[s]:     34.68
	FillingsUpdate:  mu: -0.114421611  nElectrons: 3.000000  magneticMoment: [ Abs: 0.21052  Tot: -0.20000 ]
SCF: Cycle: 18   F: -7.068034892130523   dF: -4.670e-05   |Residual|: 1.675e-03   |deigs|: 5.504e-04  t[s]:     36.21
	FillingsUpdate:  mu: -0.113925278  nElectrons: 3.000000  magneticMoment: [ Abs: 0.20777  Tot: -0.20000 ]
SCF: Cycle: 19   F: -7.068055687022433   dF: -2.079e-05   |Residual|: 8.484e-04   |deigs|: 1.279e-03  t[s]:     37.81
	FillingsUpdate:  mu: -0.112661419  nElectrons: 3.000000  magneticMoment: [ Abs: 0.20670  Tot: -0.20000 ]
SCF: Cycle: 20   F: -7.068061921419040   dF: -6.234e-06   |Residual|: 5.661e-04   |deigs|: 1.411e-03  t[s]:     39.35
	FillingsUpdate:  mu: -0.111632930  nElectrons: 3.000000  magneticMoment: [ Abs: 0.20576  Tot: -0.20000 ]
SCF: Cycle: 21   F: -7.068063876612224   dF: -1.955e-06   |Residual|: 3.878e-04   |deigs|: 1.035e-03  t[s]:     40.85
	FillingsUpdate:  mu: -0.110733668  nElectrons: 3.000000  magneticMoment: [ Abs: 0.20481  Tot: -0.20000 ]
SCF: Cycle: 22   F: -7.068064791375150   dF: -9.148e-07   |Residual|: 1.992e-04   |deigs|: 9.000e-04  t[s]:     42.39
	FillingsUpdate:  mu: -0.110477320  nElectrons: 3.000000  magneticMoment: [ Abs: 0.20434  Tot: -0.20000 ]
SCF: Cycle: 23   F: -7.068065639009299   dF: -8.476e-07   |Residual|: 1.359e-04   |deigs|: 2.307e-04  t[s]:     43.94
	FillingsUpdate:  mu: -0.110405036  nElectrons: 3.000000  magneticMoment: [ Abs: 0.20378  Tot: -0.20000 ]
SCF: Cycle: 24   F: -7.068065619274778   dF: +1.973e-08   |Residual|: 1.192e-04   |deigs|: 7.377e-05  t[s]:     45.51
	FillingsUpdate:  mu: -0.110222668  nElectrons: 3.000000  magneticMoment: [ Abs: 0.20252  Tot: -0.20000 ]
SCF: Cycle: 25   F: -7.068065812375995   dF: -1.931e-07   |Residual|: 1.023e-04   |deigs|: 1.738e-04  t[s]:     47.10
	FillingsUpdate:  mu: -0.110127257  nElectrons: 3.000000  magneticMoment: [ Abs: 0.20135  Tot: -0.20000 ]
SCF: Cycle: 26   F: -7.068065797511550   dF: +1.486e-08   |Residual|: 8.755e-05   |deigs|: 9.966e-05  t[s]:     48.72
	FillingsUpdate:  mu: -0.110173650  nElectrons: 3.000000  magneticMoment: [ Abs: 0.20056  Tot: -0.20000 ]
SCF: Cycle: 27   F: -7.068065810286395   dF: -1.277e-08   |Residual|: 6.357e-05   |deigs|: 6.430e-05  t[s]:     50.22
	FillingsUpdate:  mu: -0.110238086  nElectrons: 3.000000  magneticMoment: [ Abs: 0.20032  Tot: -0.20000 ]
SCF: Cycle: 28   F: -7.068065834491124   dF: -2.420e-08   |Residual|: 4.998e-05   |deigs|: 8.509e-05  t[s]:     51.74
	FillingsUpdate:  mu: -0.110333584  nElectrons: 3.000000  magneticMoment: [ Abs: 0.20012  Tot: -0.20000 ]
SCF: Cycle: 29   F: -7.068065838613614   dF: -4.122e-09   |Residual|: 3.966e-05   |deigs|: 1.215e-04  t[s]:     53.30
	FillingsUpdate:  mu: -0.110394202  nElectrons: 3.000000  magneticMoment: [ Abs: 0.20002  Tot: -0.20000 ]
SCF: Cycle: 30   F: -7.068065856169473   dF: -1.756e-08   |Residual|: 3.348e-05   |deigs|: 9.882e-05  t[s]:     54.90
	FillingsUpdate:  mu: -0.110443381  nElectrons: 3.000000  magneticMoment: [ Abs: 0.20001  Tot: -0.20000 ]
SCF: Cycle: 31   F: -7.068065867646776   dF: -1.148e-08   |Residual|: 3.009e-05   |deigs|: 9.691e-05  t[s]:     56.52
	FillingsUpdate:  mu: -0.110515420  nElectrons: 3.000000  magneticMoment: [ Abs: 0.20000  Tot: -0.20000 ]
SCF: Cycle: 32   F: -7.068065888585319   dF: -2.094e-08   |Residual|: 2.451e-05   |deigs|: 1.000e-04  t[s]:     58.04
	FillingsUpdate:  mu: -0.110566866  nElectrons: 3.000000  magneticMoment: [ Abs: 0.20000  Tot: -0.20000 ]
SCF: Cycle: 33   F: -7.068065899431125   dF: -1.085e-08   |Residual|: 1.974e-05   |deigs|: 8.591e-05  t[s]:     59.59
	FillingsUpdate:  mu: -0.110598409  nElectrons: 3.000000  magneticMoment: [ Abs: 0.20000  Tot: -0.20000 ]
SCF: Cycle: 34   F: -7.068065899400591   dF: +3.053e-11   |Residual|: 1.541e-05   |deigs|: 7.293e-05  t[s]:     61.11
	FillingsUpdate:  mu: -0.110625738  nElectrons: 3.000000  magneticMoment: [ Abs: 0.20000  Tot: -0.20000 ]
SCF: Cycle: 35   F: -7.068065900445242   dF: -1.045e-09   |Residual|: 9.832e-06   |deigs|: 7.640e-05  t[s]:     62.68
	FillingsUpdate:  mu: -0.110633800  nElectrons: 3.000000  magneticMoment: [ Abs: 0.20000  Tot: -0.20000 ]
SCF: Cycle: 36   F: -7.068065902326118   dF: -1.881e-09   |Residual|: 6.135e-06   |deigs|: 6.410e-05  t[s]:     64.25
SCF: Converged (|Delta E|<1.000000e-08 for 2 iters).


# Ionic positions in lattice coordinates:
ion Li   0.000000000000000   0.000000000000000   0.000000000000000 0

# Forces in Lattice coordinates:
force Li   0.000000000000000  -0.000000000000000   0.000000000000000 0

# Energy components:
   Eewald =       -2.0053362333702967
       EH =        1.5283875235956954
     Eloc =       -6.1891194255618309
      Enl =       -3.5904925866345740
   Epulay =        0.0000032255226020
      Exc =       -1.5373837075213135
       KE =        4.7258758131038263
-------------------------------------
     Etot =       -7.0680653908658897
       TS =        0.0000005114602277
-------------------------------------
        F =       -7.0680659023261176

IonicMinimize: Iter:   0  F: -7.068065902326118  |grad|_K:  0.000e+00  t[s]:     64.32
IonicMinimize: Converged (|grad|_K<1.000000e-04).

#--- Lowdin population analysis ---
# oxidation-state Li +2.164
# magnetic-moments Li -0.139

End date and time: Sat Feb  5 22:54:23 2022  (Duration: 0-0:01:04.33)
Done!
