
*************** JDFTx 1.6.0 (git hash 42ebbcc2) ***************

Start date and time: Sat Feb  5 23:01:04 2022
Executable jdftx with command-line: -i Alkali.in
Running on hosts (process indices):  d-6-7-4 (0-18)
Divided in process groups (process indices):  0 (0)  1 (1)  2 (2)  3 (3)  4 (4)  5 (5)  6 (6)  7 (7)  8 (8)  9 (9)  10 (10)  11 (11)  12 (12)  13 (13)  14 (14)  15 (15)  16 (16)  17 (17)  18 (18)
Resource initialization completed at t[s]:      0.00
Run totals: 19 processes, 48 threads, 0 GPUs


Input parsed successfully to the following command list (including defaults):

basis kpoint-dependent
coords-type Lattice
core-overlap-check vector
coulomb-interaction Slab 001
davidson-band-ratio 1.1
dump End None
dump-name $INPUT.$VAR
elec-cutoff 20
elec-eigen-algo Davidson
elec-ex-corr gga-PBE
elec-initial-magnetization 0.360000 yes
elec-smearing Fermi 1e-05
electronic-minimize  \
	dirUpdateScheme      FletcherReeves \
	linminMethod         DirUpdateRecommended \
	nIterations          100 \
	history              15 \
	knormThreshold       0 \
	energyDiffThreshold  1e-08 \
	nEnergyDiff          2 \
	alphaTstart          1 \
	alphaTmin            1e-10 \
	updateTestStepSize   yes \
	alphaTreduceFactor   0.1 \
	alphaTincreaseFactor 3 \
	nAlphaAdjustMax      3 \
	wolfeEnergy          0.0001 \
	wolfeGradient        0.9 \
	fdTest               no
electronic-scf  \
	nIterations	10000 \
	energyDiffThreshold	1e-08 \
	residualThreshold	1e-07 \
	mixFraction	0.5 \
	qMetric	0.8 \
	history	10 \
	nEigSteps	2 \
	eigDiffThreshold	1e-08 \
	mixedVariable	Density \
	qKerker	0.8 \
	qKappa	-1 \
	verbose	no \
	mixFractionMag	1.5
exchange-regularization WignerSeitzTruncated
fluid None
fluid-ex-corr (null) lda-PZ
fluid-gummel-loop 10 1.000000e-05
fluid-minimize  \
	dirUpdateScheme      PolakRibiere \
	linminMethod         DirUpdateRecommended \
	nIterations          100 \
	history              15 \
	knormThreshold       0 \
	energyDiffThreshold  0 \
	nEnergyDiff          2 \
	alphaTstart          1 \
	alphaTmin            1e-10 \
	updateTestStepSize   yes \
	alphaTreduceFactor   0.1 \
	alphaTincreaseFactor 3 \
	nAlphaAdjustMax      3 \
	wolfeEnergy          0.0001 \
	wolfeGradient        0.9 \
	fdTest               no
fluid-solvent H2O 55.338 ScalarEOS \
	epsBulk 78.4 \
	pMol 0.92466 \
	epsInf 1.77 \
	Pvap 1.06736e-10 \
	sigmaBulk 4.62e-05 \
	Rvdw 2.61727 \
	Res 1.42 \
	tauNuc 343133 \
	poleEl 15 7 1
forces-output-coords Positions
ion Li   0.000000000000000   0.000000000000000   0.000000000000000 0
ion-species SG15/$ID_ONCV_PBE.upf
ion-width 0
ionic-minimize  \
	dirUpdateScheme      L-BFGS \
	linminMethod         DirUpdateRecommended \
	nIterations          0 \
	history              15 \
	knormThreshold       0.0001 \
	energyDiffThreshold  1e-06 \
	nEnergyDiff          2 \
	alphaTstart          1 \
	alphaTmin            1e-10 \
	updateTestStepSize   yes \
	alphaTreduceFactor   0.1 \
	alphaTincreaseFactor 3 \
	nAlphaAdjustMax      3 \
	wolfeEnergy          0.0001 \
	wolfeGradient        0.9 \
	fdTest               no
kpoint   0.000000000000   0.000000000000   0.000000000000  1.00000000000000
kpoint-folding 12 12 1 
latt-move-scale 1 1 1
latt-scale 2 2 1 
lattice  \
	   4.727486978767153   -2.363743489383575    0.000000000000000  \
	  -0.000000000000000    4.094123819672498    0.000000000000000  \
	   0.000000000000000    0.000000000000000   40.000000000000000 
lattice-minimize  \
	dirUpdateScheme      L-BFGS \
	linminMethod         DirUpdateRecommended \
	nIterations          0 \
	history              15 \
	knormThreshold       0 \
	energyDiffThreshold  1e-06 \
	nEnergyDiff          2 \
	alphaTstart          1 \
	alphaTmin            1e-10 \
	updateTestStepSize   yes \
	alphaTreduceFactor   0.1 \
	alphaTincreaseFactor 3 \
	nAlphaAdjustMax      3 \
	wolfeEnergy          0.0001 \
	wolfeGradient        0.9 \
	fdTest               no
lcao-params -1 1e-06 1e-05
pcm-variant GLSSA13
spintype z-spin
subspace-rotation-factor 1 yes
symmetries automatic
symmetry-threshold 0.0001



---------- Setting up symmetries ----------

Found 24 point-group symmetries of the bravais lattice
Found 24 space-group symmetries with basis
Applied RMS atom displacement 0 bohrs to make symmetries exact.

---------- Initializing the Grid ----------
R = 
[      9.45497     -4.72749            0  ]
[            0      8.18825            0  ]
[            0            0           40  ]
unit cell volume = 3096.79
G =
[   0.664538   0.383671         -0  ]
[          0   0.767342         -0  ]
[         -0         -0    0.15708  ]
Minimum fftbox size, Smin = [  40  40  164  ]
Chosen fftbox size, S = [  40  40  168  ]

---------- Exchange Correlation functional ----------
Initalized PBE GGA exchange.
Initalized PBE GGA correlation.

---------- Setting up pseudopotentials ----------
Width of ionic core gaussian charges (only for fluid interactions / plotting) set to 0

Reading pseudopotential file '/home/gridsan/aligho/DFT/build-Nov24/pseudopotentials/SG15/Li_ONCV_PBE.upf':
  'Li' pseudopotential, 'PBE' functional
  Generated using ONCVPSP code by D. R. Hamann
  Author: Martin Schlipf and Francois Gygi  Date: 150915.
  3 valence electrons, 2 orbitals, 4 projectors, 1328 radial grid points, with lMax = 1
  Transforming local potential to a uniform radial grid of dG=0.02 with 1489 points.
  Transforming nonlocal projectors to a uniform radial grid of dG=0.02 with 432 points.
    1S    l: 0   occupation:  2.0   eigenvalue: -1.905623
    2S    l: 0   occupation:  1.0   eigenvalue: -0.105624
  Transforming atomic orbitals to a uniform radial grid of dG=0.02 with 432 points.
  WARNING: large normalization error in atomic orbital 1s (integral: 0.000000).
  Core radius for overlap checks: 1.63 bohrs.
  Reading pulay file /home/gridsan/aligho/DFT/build-Nov24/pseudopotentials/SG15/Li_ONCV_PBE.pulay ... using dE_dnG = -1.230239e-02 computed for Ecut = 20.

Initialized 1 species with 1 total atoms.

Folded 1 k-points by 12x12x1 to 144 k-points.

---------- Setting up k-points, bands, fillings ----------
Reduced to 19 k-points under symmetry. 
Computing the number of bands and number of electrons
Calculating initial fillings.
nElectrons:   3.000000   nBands: 3   nStates: 38

----- Setting up reduced wavefunction bases (one per k-point) -----
average nbasis = 13230.521 , ideal nbasis = 13229.709

---------- Setting up coulomb interaction ----------
Initialized slab truncation along lattice direction 001

---------- Setting up 2D ewald sum ----------
Optimum gaussian width for ewald sums = 5.249020 bohr.
Real space sums over 289 unit cells with max indices [  8  8  0  ]
Reciprocal space sums over 81 terms with max indices [  4  4  0  ]

---------- Allocating electronic variables ----------
Initializing wave functions:  linear combination of atomic orbitals
Note: number of bands (3) exceeds available atomic orbitals (2)
Li pseudo-atom occupations:   s ( 2 1 )
	FillingsUpdate:  mu: +0.321484292  nElectrons: 3.000000  magneticMoment: [ Abs: 0.36000  Tot: +0.36000 ]
LCAOMinimize: Iter:   0  F: -1.1730559151664441  |grad|_K:  7.014e-05  alpha:  1.000e+00
	FillingsUpdate:  mu: +0.321481426  nElectrons: 3.000000  magneticMoment: [ Abs: 0.36000  Tot: +0.36000 ]
LCAOMinimize: Iter:   1  F: -1.1730567932144282  |grad|_K:  1.682e-06  alpha:  1.044e+00  linmin: -1.809e-03  cgtest:  2.866e-02  t[s]:      3.84
LCAOMinimize: Encountered beta<0, resetting CG.
	FillingsUpdate:  mu: +0.321481433  nElectrons: 3.000000  magneticMoment: [ Abs: 0.36000  Tot: +0.36000 ]
LCAOMinimize: Iter:   2  F: -1.1730567937072072  |grad|_K:  4.145e-08  alpha:  1.016e+00  linmin:  2.674e-03  cgtest: -7.593e-02  t[s]:      4.89
LCAOMinimize: Converged (|Delta F|<1.000000e-06 for 2 iters).


---- Citations for features of the code used in this run ----

   Software package:
      R. Sundararaman, K. Letchworth-Weaver, K.A. Schwarz, D. Gunceler, Y. Ozhabes and T.A. Arias, 'JDFTx: software for joint density-functional theory', SoftwareX 6, 278 (2017)

   gga-PBE exchange-correlation functional:
      J.P. Perdew, K. Burke and M. Ernzerhof, Phys. Rev. Lett. 77, 3865 (1996)

   Pseudopotentials:
      M Schlipf and F Gygi, Comput. Phys. Commun. 196, 36 (2015)

   Truncated Coulomb potentials:
      R. Sundararaman and T.A. Arias, Phys. Rev. B 87, 165122 (2013)

This list may not be complete. Please suggest additional citations or
report any other bugs at https://github.com/shankar1729/jdftx/issues

Initialization completed successfully at t[s]:      4.95


-------- Electronic minimization -----------
Will mix electronic density at each iteration.
	FillingsUpdate:  mu: +0.321481433  nElectrons: 3.000000  magneticMoment: [ Abs: 0.36000  Tot: +0.36000 ]
	FillingsUpdate:  mu: -0.981219397  nElectrons: 3.000000  magneticMoment: [ Abs: 0.36000  Tot: +0.36000 ]
SCF: Cycle:  0   F: -6.827407516268069   dF: -5.654e+00   |Residual|: 1.172e+00   |deigs|: 4.170e+00  t[s]:      6.61
	FillingsUpdate:  mu: -0.864147337  nElectrons: 3.000000  magneticMoment: [ Abs: 0.58797  Tot: +0.36000 ]
SCF: Cycle:  1   F: -6.936311486380330   dF: -1.089e-01   |Residual|: 7.740e-01   |deigs|: 2.347e-01  t[s]:      7.87
	FillingsUpdate:  mu: -0.641348404  nElectrons: 3.000000  magneticMoment: [ Abs: 0.75493  Tot: +0.36000 ]
SCF: Cycle:  2   F: -7.048366488926103   dF: -1.121e-01   |Residual|: 4.207e-01   |deigs|: 7.783e-01  t[s]:      9.12
	FillingsUpdate:  mu: -0.664876977  nElectrons: 3.000000  magneticMoment: [ Abs: 0.65173  Tot: +0.36000 ]
SCF: Cycle:  3   F: -7.056920342491010   dF: -8.554e-03   |Residual|: 2.075e-01   |deigs|: 1.231e-01  t[s]:     10.40
	FillingsUpdate:  mu: -0.625531413  nElectrons: 3.000000  magneticMoment: [ Abs: 0.49207  Tot: +0.36000 ]
SCF: Cycle:  4   F: -7.055312596768850   dF: +1.608e-03   |Residual|: 4.073e-02   |deigs|: 3.580e-02  t[s]:     11.73
	FillingsUpdate:  mu: -0.594638946  nElectrons: 3.000000  magneticMoment: [ Abs: 0.48777  Tot: +0.36000 ]
SCF: Cycle:  5   F: -7.054979693764502   dF: +3.329e-04   |Residual|: 1.337e-01   |deigs|: 2.455e-02  t[s]:     13.07
	FillingsUpdate:  mu: -0.473370095  nElectrons: 3.000000  magneticMoment: [ Abs: 0.52867  Tot: +0.36000 ]
SCF: Cycle:  6   F: -7.059031070810294   dF: -4.051e-03   |Residual|: 1.556e-01   |deigs|: 1.392e-01  t[s]:     14.47
	FillingsUpdate:  mu: -0.431879110  nElectrons: 3.000000  magneticMoment: [ Abs: 0.47782  Tot: +0.36000 ]
SCF: Cycle:  7   F: -7.061116833523515   dF: -2.086e-03   |Residual|: 5.897e-02   |deigs|: 9.617e-02  t[s]:     15.89
	FillingsUpdate:  mu: -0.386717173  nElectrons: 3.000000  magneticMoment: [ Abs: 0.46542  Tot: +0.36000 ]
SCF: Cycle:  8   F: -7.062728619759286   dF: -1.612e-03   |Residual|: 1.019e-01   |deigs|: 5.192e-02  t[s]:     17.32
	FillingsUpdate:  mu: -0.356301632  nElectrons: 3.000000  magneticMoment: [ Abs: 0.47897  Tot: +0.36000 ]
SCF: Cycle:  9   F: -7.064615817936877   dF: -1.887e-03   |Residual|: 7.214e-02   |deigs|: 6.459e-02  t[s]:     18.75
	FillingsUpdate:  mu: -0.324788736  nElectrons: 3.000000  magneticMoment: [ Abs: 0.50193  Tot: +0.36000 ]
SCF: Cycle: 10   F: -7.064762544805212   dF: -1.467e-04   |Residual|: 1.080e-01   |deigs|: 2.561e-02  t[s]:     20.21
	FillingsUpdate:  mu: -0.259742277  nElectrons: 3.000000  magneticMoment: [ Abs: 0.49675  Tot: +0.36000 ]
SCF: Cycle: 11   F: -7.066086991293442   dF: -1.324e-03   |Residual|: 1.830e-02   |deigs|: 9.423e-02  t[s]:     21.66
	FillingsUpdate:  mu: -0.222435612  nElectrons: 3.000000  magneticMoment: [ Abs: 0.49504  Tot: +0.36000 ]
SCF: Cycle: 12   F: -7.066347073295979   dF: -2.601e-04   |Residual|: 1.411e-02   |deigs|: 4.025e-02  t[s]:     23.11
	FillingsUpdate:  mu: -0.180738969  nElectrons: 3.000000  magneticMoment: [ Abs: 0.46788  Tot: +0.36000 ]
SCF: Cycle: 13   F: -7.066663040003808   dF: -3.160e-04   |Residual|: 1.407e-02   |deigs|: 4.094e-02  t[s]:     24.55
	FillingsUpdate:  mu: -0.149612025  nElectrons: 3.000000  magneticMoment: [ Abs: 0.43658  Tot: +0.36000 ]
SCF: Cycle: 14   F: -7.066663732193696   dF: -6.922e-07   |Residual|: 9.495e-03   |deigs|: 3.665e-02  t[s]:     26.06
	FillingsUpdate:  mu: -0.130360626  nElectrons: 3.000000  magneticMoment: [ Abs: 0.42750  Tot: +0.36000 ]
SCF: Cycle: 15   F: -7.066741393408686   dF: -7.766e-05   |Residual|: 6.606e-03   |deigs|: 1.857e-02  t[s]:     27.58
	FillingsUpdate:  mu: -0.115110372  nElectrons: 3.000000  magneticMoment: [ Abs: 0.41787  Tot: +0.36000 ]
SCF: Cycle: 16   F: -7.066908739504427   dF: -1.673e-04   |Residual|: 4.683e-03   |deigs|: 1.530e-02  t[s]:     29.04
	FillingsUpdate:  mu: -0.111101794  nElectrons: 3.000000  magneticMoment: [ Abs: 0.39473  Tot: +0.36000 ]
SCF: Cycle: 17   F: -7.067004054076000   dF: -9.531e-05   |Residual|: 3.133e-03   |deigs|: 3.223e-03  t[s]:     30.53
	FillingsUpdate:  mu: -0.110313189  nElectrons: 3.000000  magneticMoment: [ Abs: 0.38508  Tot: +0.36000 ]
SCF: Cycle: 18   F: -7.067025299682681   dF: -2.125e-05   |Residual|: 1.758e-03   |deigs|: 8.768e-04  t[s]:     31.97
	FillingsUpdate:  mu: -0.110619869  nElectrons: 3.000000  magneticMoment: [ Abs: 0.37729  Tot: +0.36000 ]
SCF: Cycle: 19   F: -7.067043405188597   dF: -1.811e-05   |Residual|: 1.071e-03   |deigs|: 7.894e-04  t[s]:     33.58
	FillingsUpdate:  mu: -0.111477103  nElectrons: 3.000000  magneticMoment: [ Abs: 0.37263  Tot: +0.36000 ]
SCF: Cycle: 20   F: -7.067050466895997   dF: -7.062e-06   |Residual|: 6.887e-04   |deigs|: 8.476e-04  t[s]:     35.11
	FillingsUpdate:  mu: -0.111664059  nElectrons: 3.000000  magneticMoment: [ Abs: 0.36963  Tot: +0.36000 ]
SCF: Cycle: 21   F: -7.067052657005123   dF: -2.190e-06   |Residual|: 5.209e-04   |deigs|: 2.199e-04  t[s]:     36.61
	FillingsUpdate:  mu: -0.111607648  nElectrons: 3.000000  magneticMoment: [ Abs: 0.36733  Tot: +0.36000 ]
SCF: Cycle: 22   F: -7.067055195242077   dF: -2.538e-06   |Residual|: 4.146e-04   |deigs|: 1.668e-04  t[s]:     38.07
	FillingsUpdate:  mu: -0.111466436  nElectrons: 3.000000  magneticMoment: [ Abs: 0.36478  Tot: +0.36000 ]
SCF: Cycle: 23   F: -7.067054993024202   dF: +2.022e-07   |Residual|: 3.435e-04   |deigs|: 1.597e-04  t[s]:     39.53
	FillingsUpdate:  mu: -0.111361450  nElectrons: 3.000000  magneticMoment: [ Abs: 0.36212  Tot: +0.36000 ]
SCF: Cycle: 24   F: -7.067055570374702   dF: -5.774e-07   |Residual|: 2.968e-04   |deigs|: 1.431e-04  t[s]:     40.98
	FillingsUpdate:  mu: -0.111324206  nElectrons: 3.000000  magneticMoment: [ Abs: 0.36121  Tot: +0.36000 ]
SCF: Cycle: 25   F: -7.067056131257800   dF: -5.609e-07   |Residual|: 2.202e-04   |deigs|: 6.216e-05  t[s]:     42.50
	FillingsUpdate:  mu: -0.111165402  nElectrons: 3.000000  magneticMoment: [ Abs: 0.36029  Tot: +0.36000 ]
SCF: Cycle: 26   F: -7.067056125739314   dF: +5.518e-09   |Residual|: 1.343e-04   |deigs|: 1.907e-04  t[s]:     44.00
	FillingsUpdate:  mu: -0.111013767  nElectrons: 3.000000  magneticMoment: [ Abs: 0.36014  Tot: +0.36000 ]
SCF: Cycle: 27   F: -7.067056304927325   dF: -1.792e-07   |Residual|: 8.836e-05   |deigs|: 1.834e-04  t[s]:     45.49
	FillingsUpdate:  mu: -0.110807307  nElectrons: 3.000000  magneticMoment: [ Abs: 0.36007  Tot: +0.36000 ]
SCF: Cycle: 28   F: -7.067056417555346   dF: -1.126e-07   |Residual|: 8.476e-05   |deigs|: 2.019e-04  t[s]:     47.00
	FillingsUpdate:  mu: -0.110520827  nElectrons: 3.000000  magneticMoment: [ Abs: 0.36006  Tot: +0.36000 ]
SCF: Cycle: 29   F: -7.067056552389310   dF: -1.348e-07   |Residual|: 6.424e-05   |deigs|: 2.771e-04  t[s]:     48.53
	FillingsUpdate:  mu: -0.110313149  nElectrons: 3.000000  magneticMoment: [ Abs: 0.36000  Tot: +0.36000 ]
SCF: Cycle: 30   F: -7.067056572069328   dF: -1.968e-08   |Residual|: 5.750e-05   |deigs|: 1.960e-04  t[s]:     50.02
	FillingsUpdate:  mu: -0.110091447  nElectrons: 3.000000  magneticMoment: [ Abs: 0.36000  Tot: +0.36000 ]
SCF: Cycle: 31   F: -7.067056602650947   dF: -3.058e-08   |Residual|: 3.981e-05   |deigs|: 2.090e-04  t[s]:     51.53
	FillingsUpdate:  mu: -0.109989172  nElectrons: 3.000000  magneticMoment: [ Abs: 0.36000  Tot: +0.36000 ]
SCF: Cycle: 32   F: -7.067056619331299   dF: -1.668e-08   |Residual|: 2.977e-05   |deigs|: 1.146e-04  t[s]:     52.98
	FillingsUpdate:  mu: -0.109921416  nElectrons: 3.000000  magneticMoment: [ Abs: 0.36000  Tot: +0.36000 ]
SCF: Cycle: 33   F: -7.067056627029236   dF: -7.698e-09   |Residual|: 2.120e-05   |deigs|: 9.094e-05  t[s]:     54.47
	FillingsUpdate:  mu: -0.109886548  nElectrons: 3.000000  magneticMoment: [ Abs: 0.36000  Tot: +0.36000 ]
SCF: Cycle: 34   F: -7.067056630580547   dF: -3.551e-09   |Residual|: 1.574e-05   |deigs|: 6.470e-05  t[s]:     55.92
SCF: Converged (|Delta E|<1.000000e-08 for 2 iters).


# Ionic positions in lattice coordinates:
ion Li   0.000000000000000   0.000000000000000   0.000000000000000 0

# Forces in Lattice coordinates:
force Li  -0.000000000000000   0.000000000000000   0.000000000000000 0

# Energy components:
   Eewald =       -2.0053362333702967
       EH =        1.5306345189821593
     Eloc =       -6.1917324689314075
      Enl =       -3.5903615622964065
   Epulay =        0.0000032255226020
      Exc =       -1.5384375192655313
       KE =        4.7281741088559617
-------------------------------------
     Etot =       -7.0670559305029190
       TS =        0.0000007000776281
-------------------------------------
        F =       -7.0670566305805469

IonicMinimize: Iter:   0  F: -7.067056630580547  |grad|_K:  0.000e+00  t[s]:     55.99
IonicMinimize: Converged (|grad|_K<1.000000e-04).

#--- Lowdin population analysis ---
# oxidation-state Li +2.178
# magnetic-moments Li +0.249

End date and time: Sat Feb  5 23:02:00 2022  (Duration: 0-0:00:56.00)
Done!
