
*************** JDFTx 1.6.0 (git hash 42ebbcc2) ***************

Start date and time: Sat Feb  5 22:45:58 2022
Executable jdftx with command-line: -i Alkali.in
Running on hosts (process indices):  d-16-8-3 (0-18)
Divided in process groups (process indices):  0 (0)  1 (1)  2 (2)  3 (3)  4 (4)  5 (5)  6 (6)  7 (7)  8 (8)  9 (9)  10 (10)  11 (11)  12 (12)  13 (13)  14 (14)  15 (15)  16 (16)  17 (17)  18 (18)
Resource initialization completed at t[s]:      0.00
Run totals: 19 processes, 48 threads, 0 GPUs


Input parsed successfully to the following command list (including defaults):

basis kpoint-dependent
coords-type Lattice
core-overlap-check vector
coulomb-interaction Slab 001
davidson-band-ratio 1.1
dump End None
dump-name $INPUT.$VAR
elec-cutoff 20
elec-eigen-algo Davidson
elec-ex-corr gga-PBE
elec-initial-magnetization -0.620000 yes
elec-smearing Fermi 1e-05
electronic-minimize  \
	dirUpdateScheme      FletcherReeves \
	linminMethod         DirUpdateRecommended \
	nIterations          100 \
	history              15 \
	knormThreshold       0 \
	energyDiffThreshold  1e-08 \
	nEnergyDiff          2 \
	alphaTstart          1 \
	alphaTmin            1e-10 \
	updateTestStepSize   yes \
	alphaTreduceFactor   0.1 \
	alphaTincreaseFactor 3 \
	nAlphaAdjustMax      3 \
	wolfeEnergy          0.0001 \
	wolfeGradient        0.9 \
	fdTest               no
electronic-scf  \
	nIterations	10000 \
	energyDiffThreshold	1e-08 \
	residualThreshold	1e-07 \
	mixFraction	0.5 \
	qMetric	0.8 \
	history	10 \
	nEigSteps	2 \
	eigDiffThreshold	1e-08 \
	mixedVariable	Density \
	qKerker	0.8 \
	qKappa	-1 \
	verbose	no \
	mixFractionMag	1.5
exchange-regularization WignerSeitzTruncated
fluid None
fluid-ex-corr (null) lda-PZ
fluid-gummel-loop 10 1.000000e-05
fluid-minimize  \
	dirUpdateScheme      PolakRibiere \
	linminMethod         DirUpdateRecommended \
	nIterations          100 \
	history              15 \
	knormThreshold       0 \
	energyDiffThreshold  0 \
	nEnergyDiff          2 \
	alphaTstart          1 \
	alphaTmin            1e-10 \
	updateTestStepSize   yes \
	alphaTreduceFactor   0.1 \
	alphaTincreaseFactor 3 \
	nAlphaAdjustMax      3 \
	wolfeEnergy          0.0001 \
	wolfeGradient        0.9 \
	fdTest               no
fluid-solvent H2O 55.338 ScalarEOS \
	epsBulk 78.4 \
	pMol 0.92466 \
	epsInf 1.77 \
	Pvap 1.06736e-10 \
	sigmaBulk 4.62e-05 \
	Rvdw 2.61727 \
	Res 1.42 \
	tauNuc 343133 \
	poleEl 15 7 1
forces-output-coords Positions
ion Li   0.000000000000000   0.000000000000000   0.000000000000000 0
ion-species SG15/$ID_ONCV_PBE.upf
ion-width 0
ionic-minimize  \
	dirUpdateScheme      L-BFGS \
	linminMethod         DirUpdateRecommended \
	nIterations          0 \
	history              15 \
	knormThreshold       0.0001 \
	energyDiffThreshold  1e-06 \
	nEnergyDiff          2 \
	alphaTstart          1 \
	alphaTmin            1e-10 \
	updateTestStepSize   yes \
	alphaTreduceFactor   0.1 \
	alphaTincreaseFactor 3 \
	nAlphaAdjustMax      3 \
	wolfeEnergy          0.0001 \
	wolfeGradient        0.9 \
	fdTest               no
kpoint   0.000000000000   0.000000000000   0.000000000000  1.00000000000000
kpoint-folding 12 12 1 
latt-move-scale 1 1 1
latt-scale 2 2 1 
lattice  \
	   4.727486978767153   -2.363743489383575    0.000000000000000  \
	  -0.000000000000000    4.094123819672498    0.000000000000000  \
	   0.000000000000000    0.000000000000000   40.000000000000000 
lattice-minimize  \
	dirUpdateScheme      L-BFGS \
	linminMethod         DirUpdateRecommended \
	nIterations          0 \
	history              15 \
	knormThreshold       0 \
	energyDiffThreshold  1e-06 \
	nEnergyDiff          2 \
	alphaTstart          1 \
	alphaTmin            1e-10 \
	updateTestStepSize   yes \
	alphaTreduceFactor   0.1 \
	alphaTincreaseFactor 3 \
	nAlphaAdjustMax      3 \
	wolfeEnergy          0.0001 \
	wolfeGradient        0.9 \
	fdTest               no
lcao-params -1 1e-06 1e-05
pcm-variant GLSSA13
spintype z-spin
subspace-rotation-factor 1 yes
symmetries automatic
symmetry-threshold 0.0001



---------- Setting up symmetries ----------

Found 24 point-group symmetries of the bravais lattice
Found 24 space-group symmetries with basis
Applied RMS atom displacement 0 bohrs to make symmetries exact.

---------- Initializing the Grid ----------
R = 
[      9.45497     -4.72749            0  ]
[            0      8.18825            0  ]
[            0            0           40  ]
unit cell volume = 3096.79
G =
[   0.664538   0.383671         -0  ]
[          0   0.767342         -0  ]
[         -0         -0    0.15708  ]
Minimum fftbox size, Smin = [  40  40  164  ]
Chosen fftbox size, S = [  40  40  168  ]

---------- Exchange Correlation functional ----------
Initalized PBE GGA exchange.
Initalized PBE GGA correlation.

---------- Setting up pseudopotentials ----------
Width of ionic core gaussian charges (only for fluid interactions / plotting) set to 0

Reading pseudopotential file '/home/gridsan/aligho/DFT/build-Nov24/pseudopotentials/SG15/Li_ONCV_PBE.upf':
  'Li' pseudopotential, 'PBE' functional
  Generated using ONCVPSP code by D. R. Hamann
  Author: Martin Schlipf and Francois Gygi  Date: 150915.
  3 valence electrons, 2 orbitals, 4 projectors, 1328 radial grid points, with lMax = 1
  Transforming local potential to a uniform radial grid of dG=0.02 with 1489 points.
  Transforming nonlocal projectors to a uniform radial grid of dG=0.02 with 432 points.
    1S    l: 0   occupation:  2.0   eigenvalue: -1.905623
    2S    l: 0   occupation:  1.0   eigenvalue: -0.105624
  Transforming atomic orbitals to a uniform radial grid of dG=0.02 with 432 points.
  WARNING: large normalization error in atomic orbital 1s (integral: 0.000000).
  Core radius for overlap checks: 1.63 bohrs.
  Reading pulay file /home/gridsan/aligho/DFT/build-Nov24/pseudopotentials/SG15/Li_ONCV_PBE.pulay ... using dE_dnG = -1.230239e-02 computed for Ecut = 20.

Initialized 1 species with 1 total atoms.

Folded 1 k-points by 12x12x1 to 144 k-points.

---------- Setting up k-points, bands, fillings ----------
Reduced to 19 k-points under symmetry. 
Computing the number of bands and number of electrons
Calculating initial fillings.
nElectrons:   3.000000   nBands: 3   nStates: 38

----- Setting up reduced wavefunction bases (one per k-point) -----
average nbasis = 13230.521 , ideal nbasis = 13229.709

---------- Setting up coulomb interaction ----------
Initialized slab truncation along lattice direction 001

---------- Setting up 2D ewald sum ----------
Optimum gaussian width for ewald sums = 5.249020 bohr.
Real space sums over 289 unit cells with max indices [  8  8  0  ]
Reciprocal space sums over 81 terms with max indices [  4  4  0  ]

---------- Allocating electronic variables ----------
Initializing wave functions:  linear combination of atomic orbitals
Note: number of bands (3) exceeds available atomic orbitals (2)
Li pseudo-atom occupations:   s ( 2 1 )
	FillingsUpdate:  mu: +0.331010370  nElectrons: 3.000000  magneticMoment: [ Abs: 0.62000  Tot: -0.62000 ]
LCAOMinimize: Iter:   0  F: -1.1801672688337796  |grad|_K:  6.825e-05  alpha:  1.000e+00
	FillingsUpdate:  mu: +0.331009388  nElectrons: 3.000000  magneticMoment: [ Abs: 0.62000  Tot: -0.62000 ]
LCAOMinimize: Iter:   1  F: -1.1801681032831493  |grad|_K:  1.699e-06  alpha:  1.047e+00  linmin: -1.872e-03  cgtest:  2.555e-02  t[s]:      3.82
LCAOMinimize: Encountered beta<0, resetting CG.
	FillingsUpdate:  mu: +0.331009394  nElectrons: 3.000000  magneticMoment: [ Abs: 0.62000  Tot: -0.62000 ]
LCAOMinimize: Iter:   2  F: -1.1801681037899723  |grad|_K:  6.454e-08  alpha:  1.024e+00  linmin:  6.774e-04  cgtest: -1.770e-02  t[s]:      4.84
LCAOMinimize: Converged (|Delta F|<1.000000e-06 for 2 iters).


---- Citations for features of the code used in this run ----

   Software package:
      R. Sundararaman, K. Letchworth-Weaver, K.A. Schwarz, D. Gunceler, Y. Ozhabes and T.A. Arias, 'JDFTx: software for joint density-functional theory', SoftwareX 6, 278 (2017)

   gga-PBE exchange-correlation functional:
      J.P. Perdew, K. Burke and M. Ernzerhof, Phys. Rev. Lett. 77, 3865 (1996)

   Pseudopotentials:
      M Schlipf and F Gygi, Comput. Phys. Commun. 196, 36 (2015)

   Truncated Coulomb potentials:
      R. Sundararaman and T.A. Arias, Phys. Rev. B 87, 165122 (2013)

This list may not be complete. Please suggest additional citations or
report any other bugs at https://github.com/shankar1729/jdftx/issues

Initialization completed successfully at t[s]:      4.90


-------- Electronic minimization -----------
Will mix electronic density at each iteration.
	FillingsUpdate:  mu: +0.331009394  nElectrons: 3.000000  magneticMoment: [ Abs: 0.62000  Tot: -0.62000 ]
	FillingsUpdate:  mu: -0.971461560  nElectrons: 3.000000  magneticMoment: [ Abs: 0.62000  Tot: -0.62000 ]
SCF: Cycle:  0   F: -6.839877999032313   dF: -5.660e+00   |Residual|: 1.174e+00   |deigs|: 4.172e+00  t[s]:      6.54
	FillingsUpdate:  mu: -0.851810405  nElectrons: 3.000000  magneticMoment: [ Abs: 0.94374  Tot: -0.62000 ]
SCF: Cycle:  1   F: -6.935168659564162   dF: -9.529e-02   |Residual|: 7.756e-01   |deigs|: 2.372e-01  t[s]:      7.83
	FillingsUpdate:  mu: -0.653254180  nElectrons: 3.000000  magneticMoment: [ Abs: 1.22585  Tot: -0.62000 ]
SCF: Cycle:  2   F: -7.046681776765610   dF: -1.115e-01   |Residual|: 4.197e-01   |deigs|: 7.722e-01  t[s]:      9.10
	FillingsUpdate:  mu: -0.665953378  nElectrons: 3.000000  magneticMoment: [ Abs: 1.01891  Tot: -0.62000 ]
SCF: Cycle:  3   F: -7.054104572345203   dF: -7.423e-03   |Residual|: 1.980e-01   |deigs|: 1.264e-01  t[s]:     10.40
	FillingsUpdate:  mu: -0.616803447  nElectrons: 3.000000  magneticMoment: [ Abs: 0.79077  Tot: -0.62000 ]
SCF: Cycle:  4   F: -7.053680770019098   dF: +4.238e-04   |Residual|: 3.984e-02   |deigs|: 3.895e-02  t[s]:     11.73
	FillingsUpdate:  mu: -0.595357555  nElectrons: 3.000000  magneticMoment: [ Abs: 0.76536  Tot: -0.62000 ]
SCF: Cycle:  5   F: -7.053934135796341   dF: -2.534e-04   |Residual|: 8.237e-02   |deigs|: 1.721e-02  t[s]:     13.14
	FillingsUpdate:  mu: -0.466126874  nElectrons: 3.000000  magneticMoment: [ Abs: 0.86415  Tot: -0.62000 ]
SCF: Cycle:  6   F: -7.057840440590252   dF: -3.906e-03   |Residual|: 9.608e-02   |deigs|: 1.484e-01  t[s]:     14.51
	FillingsUpdate:  mu: -0.442490658  nElectrons: 3.000000  magneticMoment: [ Abs: 0.80536  Tot: -0.62000 ]
SCF: Cycle:  7   F: -7.058639747316298   dF: -7.993e-04   |Residual|: 4.891e-02   |deigs|: 5.615e-02  t[s]:     15.92
	FillingsUpdate:  mu: -0.405197895  nElectrons: 3.000000  magneticMoment: [ Abs: 0.76755  Tot: -0.62000 ]
SCF: Cycle:  8   F: -7.060423771579504   dF: -1.784e-03   |Residual|: 6.453e-02   |deigs|: 3.842e-02  t[s]:     17.33
	FillingsUpdate:  mu: -0.360843374  nElectrons: 3.000000  magneticMoment: [ Abs: 0.74042  Tot: -0.62000 ]
SCF: Cycle:  9   F: -7.062392613394006   dF: -1.969e-03   |Residual|: 2.141e-02   |deigs|: 3.527e-02  t[s]:     18.79
	FillingsUpdate:  mu: -0.326455836  nElectrons: 3.000000  magneticMoment: [ Abs: 0.74044  Tot: -0.62000 ]
SCF: Cycle: 10   F: -7.063273391478771   dF: -8.808e-04   |Residual|: 2.548e-02   |deigs|: 2.981e-02  t[s]:     20.30
	FillingsUpdate:  mu: -0.282658154  nElectrons: 3.000000  magneticMoment: [ Abs: 0.78606  Tot: -0.62000 ]
SCF: Cycle: 11   F: -7.063766290646311   dF: -4.929e-04   |Residual|: 1.858e-02   |deigs|: 4.689e-02  t[s]:     21.77
	FillingsUpdate:  mu: -0.241272246  nElectrons: 3.000000  magneticMoment: [ Abs: 0.79270  Tot: -0.62000 ]
SCF: Cycle: 12   F: -7.064075215154214   dF: -3.089e-04   |Residual|: 1.280e-02   |deigs|: 4.394e-02  t[s]:     23.23
	FillingsUpdate:  mu: -0.200658667  nElectrons: 3.000000  magneticMoment: [ Abs: 0.76806  Tot: -0.62000 ]
SCF: Cycle: 13   F: -7.064392645454908   dF: -3.174e-04   |Residual|: 1.184e-02   |deigs|: 4.115e-02  t[s]:     24.68
	FillingsUpdate:  mu: -0.168383745  nElectrons: 3.000000  magneticMoment: [ Abs: 0.72805  Tot: -0.62000 ]
SCF: Cycle: 14   F: -7.064502762757341   dF: -1.101e-04   |Residual|: 9.274e-03   |deigs|: 3.202e-02  t[s]:     26.17
	FillingsUpdate:  mu: -0.140056966  nElectrons: 3.000000  magneticMoment: [ Abs: 0.69759  Tot: -0.62000 ]
SCF: Cycle: 15   F: -7.064459410328040   dF: +4.335e-05   |Residual|: 7.236e-03   |deigs|: 2.835e-02  t[s]:     27.65
	FillingsUpdate:  mu: -0.121186306  nElectrons: 3.000000  magneticMoment: [ Abs: 0.68539  Tot: -0.62000 ]
SCF: Cycle: 16   F: -7.064703041099491   dF: -2.436e-04   |Residual|: 5.276e-03   |deigs|: 1.990e-02  t[s]:     29.09
	FillingsUpdate:  mu: -0.116792115  nElectrons: 3.000000  magneticMoment: [ Abs: 0.66062  Tot: -0.62000 ]
SCF: Cycle: 17   F: -7.064830785629920   dF: -1.277e-04   |Residual|: 3.299e-03   |deigs|: 4.782e-03  t[s]:     30.54
	FillingsUpdate:  mu: -0.114626395  nElectrons: 3.000000  magneticMoment: [ Abs: 0.64525  Tot: -0.62000 ]
SCF: Cycle: 18   F: -7.064894361835317   dF: -6.358e-05   |Residual|: 2.302e-03   |deigs|: 2.165e-03  t[s]:     32.09
	FillingsUpdate:  mu: -0.113982082  nElectrons: 3.000000  magneticMoment: [ Abs: 0.63692  Tot: -0.62000 ]
SCF: Cycle: 19   F: -7.064924782594668   dF: -3.042e-05   |Residual|: 1.570e-03   |deigs|: 1.128e-03  t[s]:     33.66
	FillingsUpdate:  mu: -0.113231208  nElectrons: 3.000000  magneticMoment: [ Abs: 0.63283  Tot: -0.62000 ]
SCF: Cycle: 20   F: -7.064940401385294   dF: -1.562e-05   |Residual|: 9.887e-04   |deigs|: 7.510e-04  t[s]:     35.15
	FillingsUpdate:  mu: -0.111743800  nElectrons: 3.000000  magneticMoment: [ Abs: 0.63013  Tot: -0.62000 ]
SCF: Cycle: 21   F: -7.064946392256733   dF: -5.991e-06   |Residual|: 6.147e-04   |deigs|: 1.525e-03  t[s]:     36.65
	FillingsUpdate:  mu: -0.110835015  nElectrons: 3.000000  magneticMoment: [ Abs: 0.62932  Tot: -0.62000 ]
SCF: Cycle: 22   F: -7.064948645489415   dF: -2.253e-06   |Residual|: 5.048e-04   |deigs|: 9.722e-04  t[s]:     38.08
	FillingsUpdate:  mu: -0.109762494  nElectrons: 3.000000  magneticMoment: [ Abs: 0.62796  Tot: -0.62000 ]
SCF: Cycle: 23   F: -7.064948835869695   dF: -1.904e-07   |Residual|: 3.961e-04   |deigs|: 1.180e-03  t[s]:     39.51
	FillingsUpdate:  mu: -0.108976246  nElectrons: 3.000000  magneticMoment: [ Abs: 0.62609  Tot: -0.62000 ]
SCF: Cycle: 24   F: -7.064949818700303   dF: -9.828e-07   |Residual|: 2.880e-04   |deigs|: 8.586e-04  t[s]:     40.96
	FillingsUpdate:  mu: -0.108927027  nElectrons: 3.000000  magneticMoment: [ Abs: 0.62476  Tot: -0.62000 ]
SCF: Cycle: 25   F: -7.064950092313759   dF: -2.736e-07   |Residual|: 2.258e-04   |deigs|: 5.229e-05  t[s]:     42.41
	FillingsUpdate:  mu: -0.109340115  nElectrons: 3.000000  magneticMoment: [ Abs: 0.62223  Tot: -0.62000 ]
SCF: Cycle: 26   F: -7.064950801123541   dF: -7.088e-07   |Residual|: 1.492e-04   |deigs|: 4.582e-04  t[s]:     43.86
	FillingsUpdate:  mu: -0.109754008  nElectrons: 3.000000  magneticMoment: [ Abs: 0.62100  Tot: -0.62000 ]
SCF: Cycle: 27   F: -7.064951214243856   dF: -4.131e-07   |Residual|: 7.990e-05   |deigs|: 4.362e-04  t[s]:     45.33
	FillingsUpdate:  mu: -0.109896965  nElectrons: 3.000000  magneticMoment: [ Abs: 0.62031  Tot: -0.62000 ]
SCF: Cycle: 28   F: -7.064951255897980   dF: -4.165e-08   |Residual|: 4.990e-05   |deigs|: 1.420e-04  t[s]:     46.80
	FillingsUpdate:  mu: -0.110009121  nElectrons: 3.000000  magneticMoment: [ Abs: 0.62004  Tot: -0.62000 ]
SCF: Cycle: 29   F: -7.064951276693200   dF: -2.080e-08   |Residual|: 3.111e-05   |deigs|: 1.141e-04  t[s]:     48.35
	FillingsUpdate:  mu: -0.110091121  nElectrons: 3.000000  magneticMoment: [ Abs: 0.62004  Tot: -0.62000 ]
SCF: Cycle: 30   F: -7.064951289043592   dF: -1.235e-08   |Residual|: 1.948e-05   |deigs|: 8.639e-05  t[s]:     49.82
	FillingsUpdate:  mu: -0.110122242  nElectrons: 3.000000  magneticMoment: [ Abs: 0.62000  Tot: -0.62000 ]
SCF: Cycle: 31   F: -7.064951296698365   dF: -7.655e-09   |Residual|: 1.272e-05   |deigs|: 4.443e-05  t[s]:     51.26
	FillingsUpdate:  mu: -0.110140072  nElectrons: 3.000000  magneticMoment: [ Abs: 0.62000  Tot: -0.62000 ]
SCF: Cycle: 32   F: -7.064951301065491   dF: -4.367e-09   |Residual|: 8.244e-06   |deigs|: 3.876e-05  t[s]:     52.72
SCF: Converged (|Delta E|<1.000000e-08 for 2 iters).


# Ionic positions in lattice coordinates:
ion Li   0.000000000000000   0.000000000000000   0.000000000000000 0

# Forces in Lattice coordinates:
force Li   0.000000000000000   0.000000000000000   0.000000000000000 0

# Energy components:
   Eewald =       -2.0053362333702967
       EH =        1.5365032260506040
     Eloc =       -6.1984950324090482
      Enl =       -3.5900555704181243
   Epulay =        0.0000032255226020
      Exc =       -1.5414432297483827
       KE =        4.7338733707856750
-------------------------------------
     Etot =       -7.0649502435869707
       TS =        0.0000010574785198
-------------------------------------
        F =       -7.0649513010654905

IonicMinimize: Iter:   0  F: -7.064951301065491  |grad|_K:  0.000e+00  t[s]:     52.79
IonicMinimize: Converged (|grad|_K<1.000000e-04).

#--- Lowdin population analysis ---
# oxidation-state Li +2.211
# magnetic-moments Li -0.431

End date and time: Sat Feb  5 22:46:51 2022  (Duration: 0-0:00:52.80)
Done!
