
*************** JDFTx 1.6.0 (git hash 42ebbcc2) ***************

Start date and time: Sat Feb  5 22:46:52 2022
Executable jdftx with command-line: -i Alkali.in
Running on hosts (process indices):  d-6-4-1 (0-18)
Divided in process groups (process indices):  0 (0)  1 (1)  2 (2)  3 (3)  4 (4)  5 (5)  6 (6)  7 (7)  8 (8)  9 (9)  10 (10)  11 (11)  12 (12)  13 (13)  14 (14)  15 (15)  16 (16)  17 (17)  18 (18)
Resource initialization completed at t[s]:      0.00
Run totals: 19 processes, 48 threads, 0 GPUs


Input parsed successfully to the following command list (including defaults):

basis kpoint-dependent
coords-type Lattice
core-overlap-check vector
coulomb-interaction Slab 001
davidson-band-ratio 1.1
dump End None
dump-name $INPUT.$VAR
elec-cutoff 20
elec-eigen-algo Davidson
elec-ex-corr gga-PBE
elec-initial-magnetization -0.780000 yes
elec-smearing Fermi 1e-05
electronic-minimize  \
	dirUpdateScheme      FletcherReeves \
	linminMethod         DirUpdateRecommended \
	nIterations          100 \
	history              15 \
	knormThreshold       0 \
	energyDiffThreshold  1e-08 \
	nEnergyDiff          2 \
	alphaTstart          1 \
	alphaTmin            1e-10 \
	updateTestStepSize   yes \
	alphaTreduceFactor   0.1 \
	alphaTincreaseFactor 3 \
	nAlphaAdjustMax      3 \
	wolfeEnergy          0.0001 \
	wolfeGradient        0.9 \
	fdTest               no
electronic-scf  \
	nIterations	10000 \
	energyDiffThreshold	1e-08 \
	residualThreshold	1e-07 \
	mixFraction	0.5 \
	qMetric	0.8 \
	history	10 \
	nEigSteps	2 \
	eigDiffThreshold	1e-08 \
	mixedVariable	Density \
	qKerker	0.8 \
	qKappa	-1 \
	verbose	no \
	mixFractionMag	1.5
exchange-regularization WignerSeitzTruncated
fluid None
fluid-ex-corr (null) lda-PZ
fluid-gummel-loop 10 1.000000e-05
fluid-minimize  \
	dirUpdateScheme      PolakRibiere \
	linminMethod         DirUpdateRecommended \
	nIterations          100 \
	history              15 \
	knormThreshold       0 \
	energyDiffThreshold  0 \
	nEnergyDiff          2 \
	alphaTstart          1 \
	alphaTmin            1e-10 \
	updateTestStepSize   yes \
	alphaTreduceFactor   0.1 \
	alphaTincreaseFactor 3 \
	nAlphaAdjustMax      3 \
	wolfeEnergy          0.0001 \
	wolfeGradient        0.9 \
	fdTest               no
fluid-solvent H2O 55.338 ScalarEOS \
	epsBulk 78.4 \
	pMol 0.92466 \
	epsInf 1.77 \
	Pvap 1.06736e-10 \
	sigmaBulk 4.62e-05 \
	Rvdw 2.61727 \
	Res 1.42 \
	tauNuc 343133 \
	poleEl 15 7 1
forces-output-coords Positions
ion Li   0.000000000000000   0.000000000000000   0.000000000000000 0
ion-species SG15/$ID_ONCV_PBE.upf
ion-width 0
ionic-minimize  \
	dirUpdateScheme      L-BFGS \
	linminMethod         DirUpdateRecommended \
	nIterations          0 \
	history              15 \
	knormThreshold       0.0001 \
	energyDiffThreshold  1e-06 \
	nEnergyDiff          2 \
	alphaTstart          1 \
	alphaTmin            1e-10 \
	updateTestStepSize   yes \
	alphaTreduceFactor   0.1 \
	alphaTincreaseFactor 3 \
	nAlphaAdjustMax      3 \
	wolfeEnergy          0.0001 \
	wolfeGradient        0.9 \
	fdTest               no
kpoint   0.000000000000   0.000000000000   0.000000000000  1.00000000000000
kpoint-folding 12 12 1 
latt-move-scale 1 1 1
latt-scale 3 3 1 
lattice  \
	   4.727486978767153   -2.363743489383575    0.000000000000000  \
	  -0.000000000000000    4.094123819672498    0.000000000000000  \
	   0.000000000000000    0.000000000000000   40.000000000000000 
lattice-minimize  \
	dirUpdateScheme      L-BFGS \
	linminMethod         DirUpdateRecommended \
	nIterations          0 \
	history              15 \
	knormThreshold       0 \
	energyDiffThreshold  1e-06 \
	nEnergyDiff          2 \
	alphaTstart          1 \
	alphaTmin            1e-10 \
	updateTestStepSize   yes \
	alphaTreduceFactor   0.1 \
	alphaTincreaseFactor 3 \
	nAlphaAdjustMax      3 \
	wolfeEnergy          0.0001 \
	wolfeGradient        0.9 \
	fdTest               no
lcao-params -1 1e-06 1e-05
pcm-variant GLSSA13
spintype z-spin
subspace-rotation-factor 1 yes
symmetries automatic
symmetry-threshold 0.0001



---------- Setting up symmetries ----------

Found 24 point-group symmetries of the bravais lattice
Found 24 space-group symmetries with basis
Applied RMS atom displacement 0 bohrs to make symmetries exact.

---------- Initializing the Grid ----------
R = 
[      14.1825     -7.09123            0  ]
[            0      12.2824            0  ]
[            0            0           40  ]
unit cell volume = 6967.77
G =
[   0.443025   0.255781         -0  ]
[          0   0.511561         -0  ]
[         -0         -0    0.15708  ]
Minimum fftbox size, Smin = [  60  60  164  ]
Chosen fftbox size, S = [  60  60  168  ]

---------- Exchange Correlation functional ----------
Initalized PBE GGA exchange.
Initalized PBE GGA correlation.

---------- Setting up pseudopotentials ----------
Width of ionic core gaussian charges (only for fluid interactions / plotting) set to 0

Reading pseudopotential file '/home/gridsan/aligho/DFT/build-Nov24/pseudopotentials/SG15/Li_ONCV_PBE.upf':
  'Li' pseudopotential, 'PBE' functional
  Generated using ONCVPSP code by D. R. Hamann
  Author: Martin Schlipf and Francois Gygi  Date: 150915.
  3 valence electrons, 2 orbitals, 4 projectors, 1328 radial grid points, with lMax = 1
  Transforming local potential to a uniform radial grid of dG=0.02 with 1489 points.
  Transforming nonlocal projectors to a uniform radial grid of dG=0.02 with 432 points.
    1S    l: 0   occupation:  2.0   eigenvalue: -1.905623
    2S    l: 0   occupation:  1.0   eigenvalue: -0.105624
  Transforming atomic orbitals to a uniform radial grid of dG=0.02 with 432 points.
  WARNING: large normalization error in atomic orbital 1s (integral: 0.000000).
  Core radius for overlap checks: 1.63 bohrs.
  Reading pulay file /home/gridsan/aligho/DFT/build-Nov24/pseudopotentials/SG15/Li_ONCV_PBE.pulay ... using dE_dnG = -1.230239e-02 computed for Ecut = 20.

Initialized 1 species with 1 total atoms.

Folded 1 k-points by 12x12x1 to 144 k-points.

---------- Setting up k-points, bands, fillings ----------
Reduced to 19 k-points under symmetry. 
Computing the number of bands and number of electrons
Calculating initial fillings.
nElectrons:   3.000000   nBands: 3   nStates: 38

----- Setting up reduced wavefunction bases (one per k-point) -----
average nbasis = 29766.104 , ideal nbasis = 29766.845

---------- Setting up coulomb interaction ----------
Initialized slab truncation along lattice direction 001

---------- Setting up 2D ewald sum ----------
Optimum gaussian width for ewald sums = 7.873530 bohr.
Real space sums over 289 unit cells with max indices [  8  8  0  ]
Reciprocal space sums over 81 terms with max indices [  4  4  0  ]

---------- Allocating electronic variables ----------
Initializing wave functions:  linear combination of atomic orbitals
Note: number of bands (3) exceeds available atomic orbitals (2)
Li pseudo-atom occupations:   s ( 2 1 )
	FillingsUpdate:  mu: +0.349727357  nElectrons: 3.000000  magneticMoment: [ Abs: 0.78000  Tot: -0.78000 ]
LCAOMinimize: Iter:   0  F: -1.2803099675224467  |grad|_K:  4.396e-05  alpha:  1.000e+00
	FillingsUpdate:  mu: +0.349726871  nElectrons: 3.000000  magneticMoment: [ Abs: 0.78000  Tot: -0.78000 ]
LCAOMinimize: Iter:   1  F: -1.2803103173642905  |grad|_K:  3.432e-07  alpha:  1.059e+00  linmin: -1.465e-03  cgtest:  7.251e-03  t[s]:      7.49
	FillingsUpdate:  mu: +0.349726871  nElectrons: 3.000000  magneticMoment: [ Abs: 0.78000  Tot: -0.78000 ]
LCAOMinimize: Iter:   2  F: -1.2803103173837425  |grad|_K:  7.146e-08  alpha:  1.238e+00  linmin:  2.594e-02  cgtest: -9.685e-01  t[s]:      9.48
LCAOMinimize: Converged (|Delta F|<1.000000e-06 for 2 iters).


---- Citations for features of the code used in this run ----

   Software package:
      R. Sundararaman, K. Letchworth-Weaver, K.A. Schwarz, D. Gunceler, Y. Ozhabes and T.A. Arias, 'JDFTx: software for joint density-functional theory', SoftwareX 6, 278 (2017)

   gga-PBE exchange-correlation functional:
      J.P. Perdew, K. Burke and M. Ernzerhof, Phys. Rev. Lett. 77, 3865 (1996)

   Pseudopotentials:
      M Schlipf and F Gygi, Comput. Phys. Commun. 196, 36 (2015)

   Truncated Coulomb potentials:
      R. Sundararaman and T.A. Arias, Phys. Rev. B 87, 165122 (2013)

This list may not be complete. Please suggest additional citations or
report any other bugs at https://github.com/shankar1729/jdftx/issues

Initialization completed successfully at t[s]:      9.57


-------- Electronic minimization -----------
Will mix electronic density at each iteration.
	FillingsUpdate:  mu: +0.349726871  nElectrons: 3.000000  magneticMoment: [ Abs: 0.78000  Tot: -0.78000 ]
	FillingsUpdate:  mu: -0.697967197  nElectrons: 3.000000  magneticMoment: [ Abs: 0.78000  Tot: -0.78000 ]
SCF: Cycle:  0   F: -6.886464990509091   dF: -5.606e+00   |Residual|: 1.224e+00   |deigs|: 4.156e+00  t[s]:     12.92
	FillingsUpdate:  mu: -0.571120117  nElectrons: 3.000000  magneticMoment: [ Abs: 1.23861  Tot: -0.78000 ]
SCF: Cycle:  1   F: -6.917833554728112   dF: -3.137e-02   |Residual|: 7.655e-01   |deigs|: 2.730e-01  t[s]:     15.63
	FillingsUpdate:  mu: -0.377236703  nElectrons: 3.000000  magneticMoment: [ Abs: 1.70576  Tot: -0.78000 ]
SCF: Cycle:  2   F: -7.038962041246713   dF: -1.211e-01   |Residual|: 3.321e-01   |deigs|: 7.081e-01  t[s]:     18.39
	FillingsUpdate:  mu: -0.384917038  nElectrons: 3.000000  magneticMoment: [ Abs: 1.50609  Tot: -0.78000 ]
SCF: Cycle:  3   F: -7.040531516246649   dF: -1.569e-03   |Residual|: 1.635e-01   |deigs|: 9.073e-02  t[s]:     21.17
	FillingsUpdate:  mu: -0.332861180  nElectrons: 3.000000  magneticMoment: [ Abs: 1.24386  Tot: -0.78000 ]
SCF: Cycle:  4   F: -7.044883757408378   dF: -4.352e-03   |Residual|: 3.737e-02   |deigs|: 4.626e-02  t[s]:     24.06
	FillingsUpdate:  mu: -0.311943966  nElectrons: 3.000000  magneticMoment: [ Abs: 1.15087  Tot: -0.78000 ]
SCF: Cycle:  5   F: -7.045277189018699   dF: -3.934e-04   |Residual|: 6.877e-02   |deigs|: 1.981e-02  t[s]:     27.03
	FillingsUpdate:  mu: -0.279434424  nElectrons: 3.000000  magneticMoment: [ Abs: 0.95564  Tot: -0.78000 ]
SCF: Cycle:  6   F: -7.047058391202572   dF: -1.781e-03   |Residual|: 3.615e-02   |deigs|: 5.753e-02  t[s]:     30.04
	FillingsUpdate:  mu: -0.262813754  nElectrons: 3.000000  magneticMoment: [ Abs: 0.92838  Tot: -0.78000 ]
SCF: Cycle:  7   F: -7.048746123440860   dF: -1.688e-03   |Residual|: 3.444e-02   |deigs|: 3.853e-02  t[s]:     33.09
	FillingsUpdate:  mu: -0.256325351  nElectrons: 3.000000  magneticMoment: [ Abs: 0.89843  Tot: -0.78000 ]
SCF: Cycle:  8   F: -7.049288626015100   dF: -5.425e-04   |Residual|: 4.527e-02   |deigs|: 7.653e-03  t[s]:     36.25
	FillingsUpdate:  mu: -0.235245316  nElectrons: 3.000000  magneticMoment: [ Abs: 0.85399  Tot: -0.78000 ]
SCF: Cycle:  9   F: -7.050282027430502   dF: -9.934e-04   |Residual|: 1.710e-02   |deigs|: 1.738e-02  t[s]:     39.42
	FillingsUpdate:  mu: -0.207712728  nElectrons: 3.000000  magneticMoment: [ Abs: 0.91960  Tot: -0.78000 ]
SCF: Cycle: 10   F: -7.050646099962931   dF: -3.641e-04   |Residual|: 6.035e-02   |deigs|: 2.360e-02  t[s]:     42.63
	FillingsUpdate:  mu: -0.193563143  nElectrons: 3.000000  magneticMoment: [ Abs: 0.96062  Tot: -0.78000 ]
SCF: Cycle: 11   F: -7.050922595129210   dF: -2.765e-04   |Residual|: 1.371e-02   |deigs|: 2.446e-02  t[s]:     45.81
	FillingsUpdate:  mu: -0.173922596  nElectrons: 3.000000  magneticMoment: [ Abs: 0.97934  Tot: -0.78000 ]
SCF: Cycle: 12   F: -7.051023102030516   dF: -1.005e-04   |Residual|: 9.850e-03   |deigs|: 2.031e-02  t[s]:     49.07
	FillingsUpdate:  mu: -0.153119084  nElectrons: 3.000000  magneticMoment: [ Abs: 0.97037  Tot: -0.78000 ]
SCF: Cycle: 13   F: -7.050915727287062   dF: +1.074e-04   |Residual|: 8.001e-03   |deigs|: 2.177e-02  t[s]:     52.30
	FillingsUpdate:  mu: -0.137042874  nElectrons: 3.000000  magneticMoment: [ Abs: 0.93330  Tot: -0.78000 ]
SCF: Cycle: 14   F: -7.050934745549124   dF: -1.902e-05   |Residual|: 7.959e-03   |deigs|: 1.675e-02  t[s]:     55.51
	FillingsUpdate:  mu: -0.124218253  nElectrons: 3.000000  magneticMoment: [ Abs: 0.90706  Tot: -0.78000 ]
SCF: Cycle: 15   F: -7.051076133518621   dF: -1.414e-04   |Residual|: 6.798e-03   |deigs|: 1.340e-02  t[s]:     58.73
	FillingsUpdate:  mu: -0.111370892  nElectrons: 3.000000  magneticMoment: [ Abs: 0.85474  Tot: -0.78000 ]
SCF: Cycle: 16   F: -7.051383333431900   dF: -3.072e-04   |Residual|: 4.387e-03   |deigs|: 1.388e-02  t[s]:     61.92
	FillingsUpdate:  mu: -0.103944521  nElectrons: 3.000000  magneticMoment: [ Abs: 0.82658  Tot: -0.78000 ]
SCF: Cycle: 17   F: -7.051539176698778   dF: -1.558e-04   |Residual|: 3.035e-03   |deigs|: 8.874e-03  t[s]:     65.12
	FillingsUpdate:  mu: -0.102260971  nElectrons: 3.000000  magneticMoment: [ Abs: 0.81101  Tot: -0.78000 ]
SCF: Cycle: 18   F: -7.051582887722803   dF: -4.371e-05   |Residual|: 2.032e-03   |deigs|: 2.239e-03  t[s]:     68.35
	FillingsUpdate:  mu: -0.101859619  nElectrons: 3.000000  magneticMoment: [ Abs: 0.80766  Tot: -0.78000 ]
SCF: Cycle: 19   F: -7.051614162962616   dF: -3.128e-05   |Residual|: 1.345e-03   |deigs|: 8.392e-04  t[s]:     71.62
	FillingsUpdate:  mu: -0.101578835  nElectrons: 3.000000  magneticMoment: [ Abs: 0.80380  Tot: -0.78000 ]
SCF: Cycle: 20   F: -7.051638201822400   dF: -2.404e-05   |Residual|: 8.966e-04   |deigs|: 7.447e-04  t[s]:     74.85
	FillingsUpdate:  mu: -0.101635997  nElectrons: 3.000000  magneticMoment: [ Abs: 0.79968  Tot: -0.78000 ]
SCF: Cycle: 21   F: -7.051651261097332   dF: -1.306e-05   |Residual|: 5.410e-04   |deigs|: 4.074e-04  t[s]:     78.05
	FillingsUpdate:  mu: -0.101619479  nElectrons: 3.000000  magneticMoment: [ Abs: 0.79613  Tot: -0.78000 ]
SCF: Cycle: 22   F: -7.051654630769878   dF: -3.370e-06   |Residual|: 3.878e-04   |deigs|: 2.551e-04  t[s]:     81.28
	FillingsUpdate:  mu: -0.101991624  nElectrons: 3.000000  magneticMoment: [ Abs: 0.78990  Tot: -0.78000 ]
SCF: Cycle: 23   F: -7.051656238149619   dF: -1.607e-06   |Residual|: 3.288e-04   |deigs|: 5.042e-04  t[s]:     84.48
	FillingsUpdate:  mu: -0.102377467  nElectrons: 3.000000  magneticMoment: [ Abs: 0.78517  Tot: -0.78000 ]
SCF: Cycle: 24   F: -7.051656252330042   dF: -1.418e-08   |Residual|: 2.565e-04   |deigs|: 4.475e-04  t[s]:     87.64
	FillingsUpdate:  mu: -0.102736646  nElectrons: 3.000000  magneticMoment: [ Abs: 0.78166  Tot: -0.78000 ]
SCF: Cycle: 25   F: -7.051656498233497   dF: -2.459e-07   |Residual|: 1.752e-04   |deigs|: 4.585e-04  t[s]:     90.90
	FillingsUpdate:  mu: -0.102951369  nElectrons: 3.000000  magneticMoment: [ Abs: 0.78053  Tot: -0.78000 ]
SCF: Cycle: 26   F: -7.051657428088248   dF: -9.299e-07   |Residual|: 1.127e-04   |deigs|: 2.709e-04  t[s]:     94.10
	FillingsUpdate:  mu: -0.103034533  nElectrons: 3.000000  magneticMoment: [ Abs: 0.78043  Tot: -0.78000 ]
SCF: Cycle: 27   F: -7.051657724047022   dF: -2.960e-07   |Residual|: 7.344e-05   |deigs|: 1.233e-04  t[s]:     97.34
	FillingsUpdate:  mu: -0.103026708  nElectrons: 3.000000  magneticMoment: [ Abs: 0.78026  Tot: -0.78000 ]
SCF: Cycle: 28   F: -7.051657976563680   dF: -2.525e-07   |Residual|: 5.364e-05   |deigs|: 7.052e-05  t[s]:    100.55
	FillingsUpdate:  mu: -0.103009988  nElectrons: 3.000000  magneticMoment: [ Abs: 0.78021  Tot: -0.78000 ]
SCF: Cycle: 29   F: -7.051657963677399   dF: +1.289e-08   |Residual|: 4.465e-05   |deigs|: 5.540e-05  t[s]:    103.77
	FillingsUpdate:  mu: -0.102941515  nElectrons: 3.000000  magneticMoment: [ Abs: 0.78015  Tot: -0.78000 ]
SCF: Cycle: 30   F: -7.051657940506384   dF: +2.317e-08   |Residual|: 3.614e-05   |deigs|: 8.099e-05  t[s]:    107.04
	FillingsUpdate:  mu: -0.102890267  nElectrons: 3.000000  magneticMoment: [ Abs: 0.78011  Tot: -0.78000 ]
SCF: Cycle: 31   F: -7.051657959062854   dF: -1.856e-08   |Residual|: 2.555e-05   |deigs|: 6.054e-05  t[s]:    110.18
	FillingsUpdate:  mu: -0.102866565  nElectrons: 3.000000  magneticMoment: [ Abs: 0.78004  Tot: -0.78000 ]
SCF: Cycle: 32   F: -7.051657939459446   dF: +1.960e-08   |Residual|: 1.969e-05   |deigs|: 2.807e-05  t[s]:    113.42
	FillingsUpdate:  mu: -0.102843447  nElectrons: 3.000000  magneticMoment: [ Abs: 0.78001  Tot: -0.78000 ]
SCF: Cycle: 33   F: -7.051658037441388   dF: -9.798e-08   |Residual|: 1.096e-05   |deigs|: 2.304e-05  t[s]:    116.68
	FillingsUpdate:  mu: -0.102831667  nElectrons: 3.000000  magneticMoment: [ Abs: 0.78001  Tot: -0.78000 ]
SCF: Cycle: 34   F: -7.051658054868258   dF: -1.743e-08   |Residual|: 7.475e-06   |deigs|: 1.314e-05  t[s]:    119.88
	FillingsUpdate:  mu: -0.102825894  nElectrons: 3.000000  magneticMoment: [ Abs: 0.78000  Tot: -0.78000 ]
SCF: Cycle: 35   F: -7.051658061578011   dF: -6.710e-09   |Residual|: 4.723e-06   |deigs|: 8.056e-06  t[s]:    123.12
	FillingsUpdate:  mu: -0.102823540  nElectrons: 3.000000  magneticMoment: [ Abs: 0.78000  Tot: -0.78000 ]
SCF: Cycle: 36   F: -7.051658065176698   dF: -3.599e-09   |Residual|: 3.099e-06   |deigs|: 5.387e-06  t[s]:    126.37
SCF: Converged (|Delta E|<1.000000e-08 for 2 iters).


# Ionic positions in lattice coordinates:
ion Li   0.000000000000000   0.000000000000000   0.000000000000000 0

# Forces in Lattice coordinates:
force Li  -0.000000000000000  -0.000000000000000   0.000000000000000 0

# Energy components:
   Eewald =       -1.3368908222468645
       EH =        2.2198442491406389
     Eloc =       -7.5649165674810108
      Enl =       -3.6044144596662271
   Epulay =       -0.0000013080581827
      Exc =       -1.5422248614065874
       KE =        4.7769462495964765
-------------------------------------
     Etot =       -7.0516575201217568
       TS =        0.0000005450549413
-------------------------------------
        F =       -7.0516580651766985

IonicMinimize: Iter:   0  F: -7.051658065176698  |grad|_K:  0.000e+00  t[s]:    126.51
IonicMinimize: Converged (|grad|_K<1.000000e-04).

#--- Lowdin population analysis ---
# oxidation-state Li +2.076
# magnetic-moments Li -0.720

End date and time: Sat Feb  5 22:48:58 2022  (Duration: 0-0:02:06.53)
Done!
