
*************** JDFTx 1.6.0 (git hash 42ebbcc2) ***************

Start date and time: Sat Feb  5 22:46:53 2022
Executable jdftx with command-line: -i Alkali.in
Running on hosts (process indices):  d-16-12-1 (0-18)
Divided in process groups (process indices):  0 (0)  1 (1)  2 (2)  3 (3)  4 (4)  5 (5)  6 (6)  7 (7)  8 (8)  9 (9)  10 (10)  11 (11)  12 (12)  13 (13)  14 (14)  15 (15)  16 (16)  17 (17)  18 (18)
Resource initialization completed at t[s]:      0.00
Run totals: 19 processes, 48 threads, 0 GPUs


Input parsed successfully to the following command list (including defaults):

basis kpoint-dependent
coords-type Lattice
core-overlap-check vector
coulomb-interaction Slab 001
davidson-band-ratio 1.1
dump End None
dump-name $INPUT.$VAR
elec-cutoff 20
elec-eigen-algo Davidson
elec-ex-corr gga-PBE
elec-initial-magnetization -0.600000 yes
elec-smearing Fermi 1e-05
electronic-minimize  \
	dirUpdateScheme      FletcherReeves \
	linminMethod         DirUpdateRecommended \
	nIterations          100 \
	history              15 \
	knormThreshold       0 \
	energyDiffThreshold  1e-08 \
	nEnergyDiff          2 \
	alphaTstart          1 \
	alphaTmin            1e-10 \
	updateTestStepSize   yes \
	alphaTreduceFactor   0.1 \
	alphaTincreaseFactor 3 \
	nAlphaAdjustMax      3 \
	wolfeEnergy          0.0001 \
	wolfeGradient        0.9 \
	fdTest               no
electronic-scf  \
	nIterations	10000 \
	energyDiffThreshold	1e-08 \
	residualThreshold	1e-07 \
	mixFraction	0.5 \
	qMetric	0.8 \
	history	10 \
	nEigSteps	2 \
	eigDiffThreshold	1e-08 \
	mixedVariable	Density \
	qKerker	0.8 \
	qKappa	-1 \
	verbose	no \
	mixFractionMag	1.5
exchange-regularization WignerSeitzTruncated
fluid None
fluid-ex-corr (null) lda-PZ
fluid-gummel-loop 10 1.000000e-05
fluid-minimize  \
	dirUpdateScheme      PolakRibiere \
	linminMethod         DirUpdateRecommended \
	nIterations          100 \
	history              15 \
	knormThreshold       0 \
	energyDiffThreshold  0 \
	nEnergyDiff          2 \
	alphaTstart          1 \
	alphaTmin            1e-10 \
	updateTestStepSize   yes \
	alphaTreduceFactor   0.1 \
	alphaTincreaseFactor 3 \
	nAlphaAdjustMax      3 \
	wolfeEnergy          0.0001 \
	wolfeGradient        0.9 \
	fdTest               no
fluid-solvent H2O 55.338 ScalarEOS \
	epsBulk 78.4 \
	pMol 0.92466 \
	epsInf 1.77 \
	Pvap 1.06736e-10 \
	sigmaBulk 4.62e-05 \
	Rvdw 2.61727 \
	Res 1.42 \
	tauNuc 343133 \
	poleEl 15 7 1
forces-output-coords Positions
ion Li   0.000000000000000   0.000000000000000   0.000000000000000 0
ion-species SG15/$ID_ONCV_PBE.upf
ion-width 0
ionic-minimize  \
	dirUpdateScheme      L-BFGS \
	linminMethod         DirUpdateRecommended \
	nIterations          0 \
	history              15 \
	knormThreshold       0.0001 \
	energyDiffThreshold  1e-06 \
	nEnergyDiff          2 \
	alphaTstart          1 \
	alphaTmin            1e-10 \
	updateTestStepSize   yes \
	alphaTreduceFactor   0.1 \
	alphaTincreaseFactor 3 \
	nAlphaAdjustMax      3 \
	wolfeEnergy          0.0001 \
	wolfeGradient        0.9 \
	fdTest               no
kpoint   0.000000000000   0.000000000000   0.000000000000  1.00000000000000
kpoint-folding 12 12 1 
latt-move-scale 1 1 1
latt-scale 3 3 1 
lattice  \
	   4.727486978767153   -2.363743489383575    0.000000000000000  \
	  -0.000000000000000    4.094123819672498    0.000000000000000  \
	   0.000000000000000    0.000000000000000   40.000000000000000 
lattice-minimize  \
	dirUpdateScheme      L-BFGS \
	linminMethod         DirUpdateRecommended \
	nIterations          0 \
	history              15 \
	knormThreshold       0 \
	energyDiffThreshold  1e-06 \
	nEnergyDiff          2 \
	alphaTstart          1 \
	alphaTmin            1e-10 \
	updateTestStepSize   yes \
	alphaTreduceFactor   0.1 \
	alphaTincreaseFactor 3 \
	nAlphaAdjustMax      3 \
	wolfeEnergy          0.0001 \
	wolfeGradient        0.9 \
	fdTest               no
lcao-params -1 1e-06 1e-05
pcm-variant GLSSA13
spintype z-spin
subspace-rotation-factor 1 yes
symmetries automatic
symmetry-threshold 0.0001



---------- Setting up symmetries ----------

Found 24 point-group symmetries of the bravais lattice
Found 24 space-group symmetries with basis
Applied RMS atom displacement 0 bohrs to make symmetries exact.

---------- Initializing the Grid ----------
R = 
[      14.1825     -7.09123            0  ]
[            0      12.2824            0  ]
[            0            0           40  ]
unit cell volume = 6967.77
G =
[   0.443025   0.255781         -0  ]
[          0   0.511561         -0  ]
[         -0         -0    0.15708  ]
Minimum fftbox size, Smin = [  60  60  164  ]
Chosen fftbox size, S = [  60  60  168  ]

---------- Exchange Correlation functional ----------
Initalized PBE GGA exchange.
Initalized PBE GGA correlation.

---------- Setting up pseudopotentials ----------
Width of ionic core gaussian charges (only for fluid interactions / plotting) set to 0

Reading pseudopotential file '/home/gridsan/aligho/DFT/build-Nov24/pseudopotentials/SG15/Li_ONCV_PBE.upf':
  'Li' pseudopotential, 'PBE' functional
  Generated using ONCVPSP code by D. R. Hamann
  Author: Martin Schlipf and Francois Gygi  Date: 150915.
  3 valence electrons, 2 orbitals, 4 projectors, 1328 radial grid points, with lMax = 1
  Transforming local potential to a uniform radial grid of dG=0.02 with 1489 points.
  Transforming nonlocal projectors to a uniform radial grid of dG=0.02 with 432 points.
    1S    l: 0   occupation:  2.0   eigenvalue: -1.905623
    2S    l: 0   occupation:  1.0   eigenvalue: -0.105624
  Transforming atomic orbitals to a uniform radial grid of dG=0.02 with 432 points.
  WARNING: large normalization error in atomic orbital 1s (integral: 0.000000).
  Core radius for overlap checks: 1.63 bohrs.
  Reading pulay file /home/gridsan/aligho/DFT/build-Nov24/pseudopotentials/SG15/Li_ONCV_PBE.pulay ... using dE_dnG = -1.230239e-02 computed for Ecut = 20.

Initialized 1 species with 1 total atoms.

Folded 1 k-points by 12x12x1 to 144 k-points.

---------- Setting up k-points, bands, fillings ----------
Reduced to 19 k-points under symmetry. 
Computing the number of bands and number of electrons
Calculating initial fillings.
nElectrons:   3.000000   nBands: 3   nStates: 38

----- Setting up reduced wavefunction bases (one per k-point) -----
average nbasis = 29766.104 , ideal nbasis = 29766.845

---------- Setting up coulomb interaction ----------
Initialized slab truncation along lattice direction 001

---------- Setting up 2D ewald sum ----------
Optimum gaussian width for ewald sums = 7.873530 bohr.
Real space sums over 289 unit cells with max indices [  8  8  0  ]
Reciprocal space sums over 81 terms with max indices [  4  4  0  ]

---------- Allocating electronic variables ----------
Initializing wave functions:  linear combination of atomic orbitals
Note: number of bands (3) exceeds available atomic orbitals (2)
Li pseudo-atom occupations:   s ( 2 1 )
	FillingsUpdate:  mu: +0.348574705  nElectrons: 3.000000  magneticMoment: [ Abs: 0.60008  Tot: -0.60000 ]
LCAOMinimize: Iter:   0  F: -1.2840823023188226  |grad|_K:  4.719e-05  alpha:  1.000e+00
	FillingsUpdate:  mu: +0.348574179  nElectrons: 3.000000  magneticMoment: [ Abs: 0.60008  Tot: -0.60000 ]
LCAOMinimize: Iter:   1  F: -1.2840827051081265  |grad|_K:  4.330e-07  alpha:  1.058e+00  linmin: -1.341e-03  cgtest:  8.935e-03  t[s]:      7.62
	FillingsUpdate:  mu: +0.348574181  nElectrons: 3.000000  magneticMoment: [ Abs: 0.60008  Tot: -0.60000 ]
LCAOMinimize: Iter:   2  F: -1.2840827051385300  |grad|_K:  2.280e-08  alpha:  9.681e-01  linmin: -2.352e-02  cgtest:  8.320e-01  t[s]:      9.65
LCAOMinimize: Encountered beta<0, resetting CG.
LCAOMinimize: Converged (|Delta F|<1.000000e-06 for 2 iters).


---- Citations for features of the code used in this run ----

   Software package:
      R. Sundararaman, K. Letchworth-Weaver, K.A. Schwarz, D. Gunceler, Y. Ozhabes and T.A. Arias, 'JDFTx: software for joint density-functional theory', SoftwareX 6, 278 (2017)

   gga-PBE exchange-correlation functional:
      J.P. Perdew, K. Burke and M. Ernzerhof, Phys. Rev. Lett. 77, 3865 (1996)

   Pseudopotentials:
      M Schlipf and F Gygi, Comput. Phys. Commun. 196, 36 (2015)

   Truncated Coulomb potentials:
      R. Sundararaman and T.A. Arias, Phys. Rev. B 87, 165122 (2013)

This list may not be complete. Please suggest additional citations or
report any other bugs at https://github.com/shankar1729/jdftx/issues

Initialization completed successfully at t[s]:      9.75


-------- Electronic minimization -----------
Will mix electronic density at each iteration.
	FillingsUpdate:  mu: +0.348574181  nElectrons: 3.000000  magneticMoment: [ Abs: 0.60008  Tot: -0.60000 ]
	FillingsUpdate:  mu: -0.694955554  nElectrons: 3.000000  magneticMoment: [ Abs: 0.60008  Tot: -0.60000 ]
SCF: Cycle:  0   F: -6.879783881232032   dF: -5.596e+00   |Residual|: 1.224e+00   |deigs|: 4.156e+00  t[s]:     13.20
	FillingsUpdate:  mu: -0.569446934  nElectrons: 3.000000  magneticMoment: [ Abs: 0.94958  Tot: -0.60000 ]
SCF: Cycle:  1   F: -6.918490553647644   dF: -3.871e-02   |Residual|: 7.636e-01   |deigs|: 2.738e-01  t[s]:     15.96
	FillingsUpdate:  mu: -0.365331895  nElectrons: 3.000000  magneticMoment: [ Abs: 1.30739  Tot: -0.60000 ]
SCF: Cycle:  2   F: -7.038463896784610   dF: -1.200e-01   |Residual|: 3.297e-01   |deigs|: 7.081e-01  t[s]:     18.76
	FillingsUpdate:  mu: -0.374345424  nElectrons: 3.000000  magneticMoment: [ Abs: 1.18286  Tot: -0.60000 ]
SCF: Cycle:  3   F: -7.040050506263266   dF: -1.587e-03   |Residual|: 1.771e-01   |deigs|: 8.314e-02  t[s]:     21.58
	FillingsUpdate:  mu: -0.327383216  nElectrons: 3.000000  magneticMoment: [ Abs: 1.00460  Tot: -0.60000 ]
SCF: Cycle:  4   F: -7.043091654777613   dF: -3.041e-03   |Residual|: 4.241e-02   |deigs|: 3.809e-02  t[s]:     24.56
	FillingsUpdate:  mu: -0.309705495  nElectrons: 3.000000  magneticMoment: [ Abs: 0.93406  Tot: -0.60000 ]
SCF: Cycle:  5   F: -7.042982521858392   dF: +1.091e-04   |Residual|: 8.388e-02   |deigs|: 1.684e-02  t[s]:     27.57
	FillingsUpdate:  mu: -0.274183240  nElectrons: 3.000000  magneticMoment: [ Abs: 0.74488  Tot: -0.60000 ]
SCF: Cycle:  6   F: -7.045375799868757   dF: -2.393e-03   |Residual|: 3.679e-02   |deigs|: 6.956e-02  t[s]:     30.66
	FillingsUpdate:  mu: -0.257564519  nElectrons: 3.000000  magneticMoment: [ Abs: 0.71312  Tot: -0.60000 ]
SCF: Cycle:  7   F: -7.046939485571792   dF: -1.564e-03   |Residual|: 6.043e-02   |deigs|: 4.564e-02  t[s]:     33.80
	FillingsUpdate:  mu: -0.256105953  nElectrons: 3.000000  magneticMoment: [ Abs: 0.67813  Tot: -0.60000 ]
SCF: Cycle:  8   F: -7.047167761132362   dF: -2.283e-04   |Residual|: 5.115e-02   |deigs|: 5.736e-03  t[s]:     37.06
	FillingsUpdate:  mu: -0.230266284  nElectrons: 3.000000  magneticMoment: [ Abs: 0.66777  Tot: -0.60000 ]
SCF: Cycle:  9   F: -7.048323697562667   dF: -1.156e-03   |Residual|: 3.136e-02   |deigs|: 2.540e-02  t[s]:     40.42
	FillingsUpdate:  mu: -0.203068454  nElectrons: 3.000000  magneticMoment: [ Abs: 0.72357  Tot: -0.60000 ]
SCF: Cycle: 10   F: -7.048737343568069   dF: -4.136e-04   |Residual|: 5.116e-02   |deigs|: 2.179e-02  t[s]:     43.78
	FillingsUpdate:  mu: -0.184406781  nElectrons: 3.000000  magneticMoment: [ Abs: 0.77219  Tot: -0.60000 ]
SCF: Cycle: 11   F: -7.049112149038788   dF: -3.748e-04   |Residual|: 1.267e-02   |deigs|: 2.467e-02  t[s]:     47.13
	FillingsUpdate:  mu: -0.170566470  nElectrons: 3.000000  magneticMoment: [ Abs: 0.77275  Tot: -0.60000 ]
SCF: Cycle: 12   F: -7.049335086970719   dF: -2.229e-04   |Residual|: 1.096e-02   |deigs|: 1.569e-02  t[s]:     50.41
	FillingsUpdate:  mu: -0.146056370  nElectrons: 3.000000  magneticMoment: [ Abs: 0.77039  Tot: -0.60000 ]
SCF: Cycle: 13   F: -7.049123595117832   dF: +2.115e-04   |Residual|: 7.928e-03   |deigs|: 2.679e-02  t[s]:     53.77
	FillingsUpdate:  mu: -0.136536583  nElectrons: 3.000000  magneticMoment: [ Abs: 0.74254  Tot: -0.60000 ]
SCF: Cycle: 14   F: -7.049117604984134   dF: +5.990e-06   |Residual|: 7.148e-03   |deigs|: 8.572e-03  t[s]:     57.20
	FillingsUpdate:  mu: -0.123879507  nElectrons: 3.000000  magneticMoment: [ Abs: 0.71565  Tot: -0.60000 ]
SCF: Cycle: 15   F: -7.049213305124070   dF: -9.570e-05   |Residual|: 6.422e-03   |deigs|: 1.339e-02  t[s]:     60.55
	FillingsUpdate:  mu: -0.115099661  nElectrons: 3.000000  magneticMoment: [ Abs: 0.68035  Tot: -0.60000 ]
SCF: Cycle: 16   F: -7.049484719375526   dF: -2.714e-04   |Residual|: 4.488e-03   |deigs|: 9.452e-03  t[s]:     63.83
	FillingsUpdate:  mu: -0.106549515  nElectrons: 3.000000  magneticMoment: [ Abs: 0.64996  Tot: -0.60000 ]
SCF: Cycle: 17   F: -7.049716803905115   dF: -2.321e-04   |Residual|: 3.043e-03   |deigs|: 9.932e-03  t[s]:     67.20
	FillingsUpdate:  mu: -0.105130145  nElectrons: 3.000000  magneticMoment: [ Abs: 0.63492  Tot: -0.60000 ]
SCF: Cycle: 18   F: -7.049789385900538   dF: -7.258e-05   |Residual|: 2.019e-03   |deigs|: 2.064e-03  t[s]:     70.50
	FillingsUpdate:  mu: -0.105256634  nElectrons: 3.000000  magneticMoment: [ Abs: 0.62292  Tot: -0.60000 ]
SCF: Cycle: 19   F: -7.049830347203796   dF: -4.096e-05   |Residual|: 1.170e-03   |deigs|: 7.714e-04  t[s]:     73.84
	FillingsUpdate:  mu: -0.105356297  nElectrons: 3.000000  magneticMoment: [ Abs: 0.61532  Tot: -0.60000 ]
SCF: Cycle: 20   F: -7.049842329735426   dF: -1.198e-05   |Residual|: 7.172e-04   |deigs|: 3.672e-04  t[s]:     77.11
	FillingsUpdate:  mu: -0.105290083  nElectrons: 3.000000  magneticMoment: [ Abs: 0.61055  Tot: -0.60000 ]
SCF: Cycle: 21   F: -7.049847481434713   dF: -5.152e-06   |Residual|: 4.716e-04   |deigs|: 2.134e-04  t[s]:     80.43
	FillingsUpdate:  mu: -0.105368906  nElectrons: 3.000000  magneticMoment: [ Abs: 0.60735  Tot: -0.60000 ]
SCF: Cycle: 22   F: -7.049849745415888   dF: -2.264e-06   |Residual|: 3.200e-04   |deigs|: 1.808e-04  t[s]:     83.80
	FillingsUpdate:  mu: -0.105266108  nElectrons: 3.000000  magneticMoment: [ Abs: 0.60528  Tot: -0.60000 ]
SCF: Cycle: 23   F: -7.049850756508190   dF: -1.011e-06   |Residual|: 2.658e-04   |deigs|: 2.187e-04  t[s]:     87.16
	FillingsUpdate:  mu: -0.105241955  nElectrons: 3.000000  magneticMoment: [ Abs: 0.60372  Tot: -0.60000 ]
SCF: Cycle: 24   F: -7.049850998788758   dF: -2.423e-07   |Residual|: 2.025e-04   |deigs|: 1.161e-04  t[s]:     90.44
	FillingsUpdate:  mu: -0.105093048  nElectrons: 3.000000  magneticMoment: [ Abs: 0.60248  Tot: -0.60000 ]
SCF: Cycle: 25   F: -7.049850919947043   dF: +7.884e-08   |Residual|: 1.522e-04   |deigs|: 1.589e-04  t[s]:     93.76
	FillingsUpdate:  mu: -0.105027533  nElectrons: 3.000000  magneticMoment: [ Abs: 0.60150  Tot: -0.60000 ]
SCF: Cycle: 26   F: -7.049851035522744   dF: -1.156e-07   |Residual|: 1.119e-04   |deigs|: 1.212e-04  t[s]:     97.09
	FillingsUpdate:  mu: -0.104965856  nElectrons: 3.000000  magneticMoment: [ Abs: 0.60092  Tot: -0.60000 ]
SCF: Cycle: 27   F: -7.049851320893011   dF: -2.854e-07   |Residual|: 6.675e-05   |deigs|: 1.201e-04  t[s]:    100.46
	FillingsUpdate:  mu: -0.104941672  nElectrons: 3.000000  magneticMoment: [ Abs: 0.60058  Tot: -0.60000 ]
SCF: Cycle: 28   F: -7.049851609106168   dF: -2.882e-07   |Residual|: 4.136e-05   |deigs|: 9.906e-05  t[s]:    103.79
	FillingsUpdate:  mu: -0.104943655  nElectrons: 3.000000  magneticMoment: [ Abs: 0.60026  Tot: -0.60000 ]
SCF: Cycle: 29   F: -7.049851645165865   dF: -3.606e-08   |Residual|: 2.873e-05   |deigs|: 8.556e-05  t[s]:    106.99
	FillingsUpdate:  mu: -0.104953364  nElectrons: 3.000000  magneticMoment: [ Abs: 0.60013  Tot: -0.60000 ]
SCF: Cycle: 30   F: -7.049851660007390   dF: -1.484e-08   |Residual|: 2.252e-05   |deigs|: 6.576e-05  t[s]:    110.37
	FillingsUpdate:  mu: -0.104965872  nElectrons: 3.000000  magneticMoment: [ Abs: 0.60010  Tot: -0.60000 ]
SCF: Cycle: 31   F: -7.049851664983879   dF: -4.976e-09   |Residual|: 1.812e-05   |deigs|: 5.091e-05  t[s]:    113.71
	FillingsUpdate:  mu: -0.104999658  nElectrons: 3.000000  magneticMoment: [ Abs: 0.60006  Tot: -0.60000 ]
SCF: Cycle: 32   F: -7.049851670017025   dF: -5.033e-09   |Residual|: 1.443e-05   |deigs|: 5.599e-05  t[s]:    117.03
SCF: Converged (|Delta E|<1.000000e-08 for 2 iters).


# Ionic positions in lattice coordinates:
ion Li   0.000000000000000   0.000000000000000   0.000000000000000 0

# Forces in Lattice coordinates:
force Li   0.000000000000000   0.000000000000000   0.000000000000000 0

# Energy components:
   Eewald =       -1.3368908222468645
       EH =        2.2102356300079822
     Eloc =       -7.5527212377061934
      Enl =       -3.6029155539817292
   Epulay =       -0.0000013080581827
      Exc =       -1.5374101187005280
       KE =        4.7698527401830146
-------------------------------------
     Etot =       -7.0498506705024999
       TS =        0.0000009995145253
-------------------------------------
        F =       -7.0498516700170253

IonicMinimize: Iter:   0  F: -7.049851670017025  |grad|_K:  0.000e+00  t[s]:    117.19
IonicMinimize: Converged (|grad|_K<1.000000e-04).

#--- Lowdin population analysis ---
# oxidation-state Li +2.087
# magnetic-moments Li -0.553

End date and time: Sat Feb  5 22:48:51 2022  (Duration: 0-0:01:57.21)
Done!
