
*************** JDFTx 1.6.0 (git hash 42ebbcc2) ***************

Start date and time: Sat Feb  5 23:07:44 2022
Executable jdftx with command-line: -i Alkali.in
Running on hosts (process indices):  d-4-6-3 (0-18)
Divided in process groups (process indices):  0 (0)  1 (1)  2 (2)  3 (3)  4 (4)  5 (5)  6 (6)  7 (7)  8 (8)  9 (9)  10 (10)  11 (11)  12 (12)  13 (13)  14 (14)  15 (15)  16 (16)  17 (17)  18 (18)
Resource initialization completed at t[s]:      0.00
Run totals: 19 processes, 48 threads, 0 GPUs


Input parsed successfully to the following command list (including defaults):

basis kpoint-dependent
coords-type Lattice
core-overlap-check vector
coulomb-interaction Slab 001
davidson-band-ratio 1.1
dump End None
dump-name $INPUT.$VAR
elec-cutoff 20
elec-eigen-algo Davidson
elec-ex-corr gga-PBE
elec-initial-magnetization 0.600000 yes
elec-smearing Fermi 1e-05
electronic-minimize  \
	dirUpdateScheme      FletcherReeves \
	linminMethod         DirUpdateRecommended \
	nIterations          100 \
	history              15 \
	knormThreshold       0 \
	energyDiffThreshold  1e-08 \
	nEnergyDiff          2 \
	alphaTstart          1 \
	alphaTmin            1e-10 \
	updateTestStepSize   yes \
	alphaTreduceFactor   0.1 \
	alphaTincreaseFactor 3 \
	nAlphaAdjustMax      3 \
	wolfeEnergy          0.0001 \
	wolfeGradient        0.9 \
	fdTest               no
electronic-scf  \
	nIterations	10000 \
	energyDiffThreshold	1e-08 \
	residualThreshold	1e-07 \
	mixFraction	0.5 \
	qMetric	0.8 \
	history	10 \
	nEigSteps	2 \
	eigDiffThreshold	1e-08 \
	mixedVariable	Density \
	qKerker	0.8 \
	qKappa	-1 \
	verbose	no \
	mixFractionMag	1.5
exchange-regularization WignerSeitzTruncated
fluid None
fluid-ex-corr (null) lda-PZ
fluid-gummel-loop 10 1.000000e-05
fluid-minimize  \
	dirUpdateScheme      PolakRibiere \
	linminMethod         DirUpdateRecommended \
	nIterations          100 \
	history              15 \
	knormThreshold       0 \
	energyDiffThreshold  0 \
	nEnergyDiff          2 \
	alphaTstart          1 \
	alphaTmin            1e-10 \
	updateTestStepSize   yes \
	alphaTreduceFactor   0.1 \
	alphaTincreaseFactor 3 \
	nAlphaAdjustMax      3 \
	wolfeEnergy          0.0001 \
	wolfeGradient        0.9 \
	fdTest               no
fluid-solvent H2O 55.338 ScalarEOS \
	epsBulk 78.4 \
	pMol 0.92466 \
	epsInf 1.77 \
	Pvap 1.06736e-10 \
	sigmaBulk 4.62e-05 \
	Rvdw 2.61727 \
	Res 1.42 \
	tauNuc 343133 \
	poleEl 15 7 1
forces-output-coords Positions
ion Li   0.000000000000000   0.000000000000000   0.000000000000000 0
ion-species SG15/$ID_ONCV_PBE.upf
ion-width 0
ionic-minimize  \
	dirUpdateScheme      L-BFGS \
	linminMethod         DirUpdateRecommended \
	nIterations          0 \
	history              15 \
	knormThreshold       0.0001 \
	energyDiffThreshold  1e-06 \
	nEnergyDiff          2 \
	alphaTstart          1 \
	alphaTmin            1e-10 \
	updateTestStepSize   yes \
	alphaTreduceFactor   0.1 \
	alphaTincreaseFactor 3 \
	nAlphaAdjustMax      3 \
	wolfeEnergy          0.0001 \
	wolfeGradient        0.9 \
	fdTest               no
kpoint   0.000000000000   0.000000000000   0.000000000000  1.00000000000000
kpoint-folding 12 12 1 
latt-move-scale 1 1 1
latt-scale 3 3 1 
lattice  \
	   4.727486978767153   -2.363743489383575    0.000000000000000  \
	  -0.000000000000000    4.094123819672498    0.000000000000000  \
	   0.000000000000000    0.000000000000000   40.000000000000000 
lattice-minimize  \
	dirUpdateScheme      L-BFGS \
	linminMethod         DirUpdateRecommended \
	nIterations          0 \
	history              15 \
	knormThreshold       0 \
	energyDiffThreshold  1e-06 \
	nEnergyDiff          2 \
	alphaTstart          1 \
	alphaTmin            1e-10 \
	updateTestStepSize   yes \
	alphaTreduceFactor   0.1 \
	alphaTincreaseFactor 3 \
	nAlphaAdjustMax      3 \
	wolfeEnergy          0.0001 \
	wolfeGradient        0.9 \
	fdTest               no
lcao-params -1 1e-06 1e-05
pcm-variant GLSSA13
spintype z-spin
subspace-rotation-factor 1 yes
symmetries automatic
symmetry-threshold 0.0001



---------- Setting up symmetries ----------

Found 24 point-group symmetries of the bravais lattice
Found 24 space-group symmetries with basis
Applied RMS atom displacement 0 bohrs to make symmetries exact.

---------- Initializing the Grid ----------
R = 
[      14.1825     -7.09123            0  ]
[            0      12.2824            0  ]
[            0            0           40  ]
unit cell volume = 6967.77
G =
[   0.443025   0.255781         -0  ]
[          0   0.511561         -0  ]
[         -0         -0    0.15708  ]
Minimum fftbox size, Smin = [  60  60  164  ]
Chosen fftbox size, S = [  60  60  168  ]

---------- Exchange Correlation functional ----------
Initalized PBE GGA exchange.
Initalized PBE GGA correlation.

---------- Setting up pseudopotentials ----------
Width of ionic core gaussian charges (only for fluid interactions / plotting) set to 0

Reading pseudopotential file '/home/gridsan/aligho/DFT/build-Nov24/pseudopotentials/SG15/Li_ONCV_PBE.upf':
  'Li' pseudopotential, 'PBE' functional
  Generated using ONCVPSP code by D. R. Hamann
  Author: Martin Schlipf and Francois Gygi  Date: 150915.
  3 valence electrons, 2 orbitals, 4 projectors, 1328 radial grid points, with lMax = 1
  Transforming local potential to a uniform radial grid of dG=0.02 with 1489 points.
  Transforming nonlocal projectors to a uniform radial grid of dG=0.02 with 432 points.
    1S    l: 0   occupation:  2.0   eigenvalue: -1.905623
    2S    l: 0   occupation:  1.0   eigenvalue: -0.105624
  Transforming atomic orbitals to a uniform radial grid of dG=0.02 with 432 points.
  WARNING: large normalization error in atomic orbital 1s (integral: 0.000000).
  Core radius for overlap checks: 1.63 bohrs.
  Reading pulay file /home/gridsan/aligho/DFT/build-Nov24/pseudopotentials/SG15/Li_ONCV_PBE.pulay ... using dE_dnG = -1.230239e-02 computed for Ecut = 20.

Initialized 1 species with 1 total atoms.

Folded 1 k-points by 12x12x1 to 144 k-points.

---------- Setting up k-points, bands, fillings ----------
Reduced to 19 k-points under symmetry. 
Computing the number of bands and number of electrons
Calculating initial fillings.
nElectrons:   3.000000   nBands: 3   nStates: 38

----- Setting up reduced wavefunction bases (one per k-point) -----
average nbasis = 29766.104 , ideal nbasis = 29766.845

---------- Setting up coulomb interaction ----------
Initialized slab truncation along lattice direction 001

---------- Setting up 2D ewald sum ----------
Optimum gaussian width for ewald sums = 7.873530 bohr.
Real space sums over 289 unit cells with max indices [  8  8  0  ]
Reciprocal space sums over 81 terms with max indices [  4  4  0  ]

---------- Allocating electronic variables ----------
Initializing wave functions:  linear combination of atomic orbitals
Note: number of bands (3) exceeds available atomic orbitals (2)
Li pseudo-atom occupations:   s ( 2 1 )
	FillingsUpdate:  mu: +0.356747246  nElectrons: 3.000000  magneticMoment: [ Abs: 0.60000  Tot: +0.60000 ]
LCAOMinimize: Iter:   0  F: -1.2861237717811385  |grad|_K:  4.765e-05  alpha:  1.000e+00
	FillingsUpdate:  mu: +0.356746784  nElectrons: 3.000000  magneticMoment: [ Abs: 0.60000  Tot: +0.60000 ]
LCAOMinimize: Iter:   1  F: -1.2861241826792111  |grad|_K:  3.905e-07  alpha:  1.058e+00  linmin: -1.731e-03  cgtest:  1.005e-02  t[s]:      7.45
LCAOMinimize: Encountered beta<0, resetting CG.
	FillingsUpdate:  mu: +0.356746786  nElectrons: 3.000000  magneticMoment: [ Abs: 0.60000  Tot: +0.60000 ]
LCAOMinimize: Iter:   2  F: -1.2861241827017726  |grad|_K:  3.388e-08  alpha:  1.099e+00  linmin:  2.041e-02  cgtest: -8.780e-01  t[s]:      9.53
LCAOMinimize: Converged (|Delta F|<1.000000e-06 for 2 iters).


---- Citations for features of the code used in this run ----

   Software package:
      R. Sundararaman, K. Letchworth-Weaver, K.A. Schwarz, D. Gunceler, Y. Ozhabes and T.A. Arias, 'JDFTx: software for joint density-functional theory', SoftwareX 6, 278 (2017)

   gga-PBE exchange-correlation functional:
      J.P. Perdew, K. Burke and M. Ernzerhof, Phys. Rev. Lett. 77, 3865 (1996)

   Pseudopotentials:
      M Schlipf and F Gygi, Comput. Phys. Commun. 196, 36 (2015)

   Truncated Coulomb potentials:
      R. Sundararaman and T.A. Arias, Phys. Rev. B 87, 165122 (2013)

This list may not be complete. Please suggest additional citations or
report any other bugs at https://github.com/shankar1729/jdftx/issues

Initialization completed successfully at t[s]:      9.62


-------- Electronic minimization -----------
Will mix electronic density at each iteration.
	FillingsUpdate:  mu: +0.356746786  nElectrons: 3.000000  magneticMoment: [ Abs: 0.60000  Tot: +0.60000 ]
	FillingsUpdate:  mu: -0.695348155  nElectrons: 3.000000  magneticMoment: [ Abs: 0.60000  Tot: +0.60000 ]
SCF: Cycle:  0   F: -6.876869721607883   dF: -5.591e+00   |Residual|: 1.225e+00   |deigs|: 4.156e+00  t[s]:     13.07
	FillingsUpdate:  mu: -0.568209800  nElectrons: 3.000000  magneticMoment: [ Abs: 0.96178  Tot: +0.60000 ]
SCF: Cycle:  1   F: -6.917384703141126   dF: -4.051e-02   |Residual|: 7.638e-01   |deigs|: 2.744e-01  t[s]:     15.80
	FillingsUpdate:  mu: -0.365345038  nElectrons: 3.000000  magneticMoment: [ Abs: 1.31569  Tot: +0.60000 ]
SCF: Cycle:  2   F: -7.038851242753510   dF: -1.215e-01   |Residual|: 3.312e-01   |deigs|: 7.078e-01  t[s]:     18.58
	FillingsUpdate:  mu: -0.374023606  nElectrons: 3.000000  magneticMoment: [ Abs: 1.18576  Tot: +0.60000 ]
SCF: Cycle:  3   F: -7.040403019499687   dF: -1.552e-03   |Residual|: 1.815e-01   |deigs|: 8.109e-02  t[s]:     21.46
	FillingsUpdate:  mu: -0.329739581  nElectrons: 3.000000  magneticMoment: [ Abs: 0.99600  Tot: +0.60000 ]
SCF: Cycle:  4   F: -7.042755277627631   dF: -2.352e-03   |Residual|: 3.955e-02   |deigs|: 3.480e-02  t[s]:     24.45
	FillingsUpdate:  mu: -0.310628771  nElectrons: 3.000000  magneticMoment: [ Abs: 0.92903  Tot: +0.60000 ]
SCF: Cycle:  5   F: -7.042930401000804   dF: -1.751e-04   |Residual|: 7.988e-02   |deigs|: 1.909e-02  t[s]:     27.40
	FillingsUpdate:  mu: -0.275192673  nElectrons: 3.000000  magneticMoment: [ Abs: 0.76196  Tot: +0.60000 ]
SCF: Cycle:  6   F: -7.045396508687192   dF: -2.466e-03   |Residual|: 4.601e-02   |deigs|: 6.683e-02  t[s]:     30.43
	FillingsUpdate:  mu: -0.258099260  nElectrons: 3.000000  magneticMoment: [ Abs: 0.71392  Tot: +0.60000 ]
SCF: Cycle:  7   F: -7.046914401783577   dF: -1.518e-03   |Residual|: 5.078e-02   |deigs|: 4.553e-02  t[s]:     33.56
	FillingsUpdate:  mu: -0.255531266  nElectrons: 3.000000  magneticMoment: [ Abs: 0.67780  Tot: +0.60000 ]
SCF: Cycle:  8   F: -7.047162290910395   dF: -2.479e-04   |Residual|: 6.042e-02   |deigs|: 2.766e-03  t[s]:     36.73
	FillingsUpdate:  mu: -0.230323926  nElectrons: 3.000000  magneticMoment: [ Abs: 0.67233  Tot: +0.60000 ]
SCF: Cycle:  9   F: -7.048275148447462   dF: -1.113e-03   |Residual|: 4.133e-02   |deigs|: 2.876e-02  t[s]:     39.93
	FillingsUpdate:  mu: -0.200978574  nElectrons: 3.000000  magneticMoment: [ Abs: 0.73882  Tot: +0.60000 ]
SCF: Cycle: 10   F: -7.048726058442875   dF: -4.509e-04   |Residual|: 5.823e-02   |deigs|: 2.454e-02  t[s]:     43.20
	FillingsUpdate:  mu: -0.182785435  nElectrons: 3.000000  magneticMoment: [ Abs: 0.77060  Tot: +0.60000 ]
SCF: Cycle: 11   F: -7.049027325782839   dF: -3.013e-04   |Residual|: 1.123e-02   |deigs|: 2.627e-02  t[s]:     46.44
	FillingsUpdate:  mu: -0.170370952  nElectrons: 3.000000  magneticMoment: [ Abs: 0.77073  Tot: +0.60000 ]
SCF: Cycle: 12   F: -7.049323075248354   dF: -2.957e-04   |Residual|: 1.214e-02   |deigs|: 1.277e-02  t[s]:     49.70
	FillingsUpdate:  mu: -0.144462569  nElectrons: 3.000000  magneticMoment: [ Abs: 0.76853  Tot: +0.60000 ]
SCF: Cycle: 13   F: -7.049124512580256   dF: +1.986e-04   |Residual|: 8.094e-03   |deigs|: 2.916e-02  t[s]:     52.94
	FillingsUpdate:  mu: -0.135841806  nElectrons: 3.000000  magneticMoment: [ Abs: 0.74418  Tot: +0.60000 ]
SCF: Cycle: 14   F: -7.049106318118024   dF: +1.819e-05   |Residual|: 7.085e-03   |deigs|: 7.434e-03  t[s]:     56.24
	FillingsUpdate:  mu: -0.124278655  nElectrons: 3.000000  magneticMoment: [ Abs: 0.71445  Tot: +0.60000 ]
SCF: Cycle: 15   F: -7.049221178565595   dF: -1.149e-04   |Residual|: 6.430e-03   |deigs|: 1.189e-02  t[s]:     59.52
	FillingsUpdate:  mu: -0.115328331  nElectrons: 3.000000  magneticMoment: [ Abs: 0.67904  Tot: +0.60000 ]
SCF: Cycle: 16   F: -7.049496650299249   dF: -2.755e-04   |Residual|: 4.535e-03   |deigs|: 9.574e-03  t[s]:     62.81
	FillingsUpdate:  mu: -0.106418712  nElectrons: 3.000000  magneticMoment: [ Abs: 0.65074  Tot: +0.60000 ]
SCF: Cycle: 17   F: -7.049713780304032   dF: -2.171e-04   |Residual|: 3.061e-03   |deigs|: 1.050e-02  t[s]:     66.13
	FillingsUpdate:  mu: -0.105166416  nElectrons: 3.000000  magneticMoment: [ Abs: 0.63541  Tot: +0.60000 ]
SCF: Cycle: 18   F: -7.049786277502369   dF: -7.250e-05   |Residual|: 2.035e-03   |deigs|: 1.929e-03  t[s]:     69.37
	FillingsUpdate:  mu: -0.105304433  nElectrons: 3.000000  magneticMoment: [ Abs: 0.62266  Tot: +0.60000 ]
SCF: Cycle: 19   F: -7.049830057756721   dF: -4.378e-05   |Residual|: 1.199e-03   |deigs|: 8.223e-04  t[s]:     72.66
	FillingsUpdate:  mu: -0.105294854  nElectrons: 3.000000  magneticMoment: [ Abs: 0.61572  Tot: +0.60000 ]
SCF: Cycle: 20   F: -7.049842235082985   dF: -1.218e-05   |Residual|: 7.743e-04   |deigs|: 2.606e-04  t[s]:     75.90
	FillingsUpdate:  mu: -0.105223457  nElectrons: 3.000000  magneticMoment: [ Abs: 0.61094  Tot: +0.60000 ]
SCF: Cycle: 21   F: -7.049847693520566   dF: -5.458e-06   |Residual|: 4.611e-04   |deigs|: 2.946e-04  t[s]:     79.24
	FillingsUpdate:  mu: -0.105288299  nElectrons: 3.000000  magneticMoment: [ Abs: 0.60767  Tot: +0.60000 ]
SCF: Cycle: 22   F: -7.049849701166187   dF: -2.008e-06   |Residual|: 3.171e-04   |deigs|: 1.842e-04  t[s]:     82.46
	FillingsUpdate:  mu: -0.105200922  nElectrons: 3.000000  magneticMoment: [ Abs: 0.60571  Tot: +0.60000 ]
SCF: Cycle: 23   F: -7.049850639966480   dF: -9.388e-07   |Residual|: 2.660e-04   |deigs|: 1.701e-04  t[s]:     85.74
	FillingsUpdate:  mu: -0.105199569  nElectrons: 3.000000  magneticMoment: [ Abs: 0.60358  Tot: +0.60000 ]
SCF: Cycle: 24   F: -7.049851021835376   dF: -3.819e-07   |Residual|: 2.091e-04   |deigs|: 1.168e-04  t[s]:     89.02
	FillingsUpdate:  mu: -0.105110340  nElectrons: 3.000000  magneticMoment: [ Abs: 0.60205  Tot: +0.60000 ]
SCF: Cycle: 25   F: -7.049850806936774   dF: +2.149e-07   |Residual|: 1.623e-04   |deigs|: 1.267e-04  t[s]:     92.23
	FillingsUpdate:  mu: -0.105077794  nElectrons: 3.000000  magneticMoment: [ Abs: 0.60113  Tot: +0.60000 ]
SCF: Cycle: 26   F: -7.049850923735123   dF: -1.168e-07   |Residual|: 1.101e-04   |deigs|: 9.746e-05  t[s]:     95.50
	FillingsUpdate:  mu: -0.105031824  nElectrons: 3.000000  magneticMoment: [ Abs: 0.60068  Tot: +0.60000 ]
SCF: Cycle: 27   F: -7.049851346640266   dF: -4.229e-07   |Residual|: 6.658e-05   |deigs|: 1.055e-04  t[s]:     98.74
	FillingsUpdate:  mu: -0.105018019  nElectrons: 3.000000  magneticMoment: [ Abs: 0.60043  Tot: +0.60000 ]
SCF: Cycle: 28   F: -7.049851598087316   dF: -2.514e-07   |Residual|: 3.988e-05   |deigs|: 9.410e-05  t[s]:    101.99
	FillingsUpdate:  mu: -0.105010492  nElectrons: 3.000000  magneticMoment: [ Abs: 0.60019  Tot: +0.60000 ]
SCF: Cycle: 29   F: -7.049851640362377   dF: -4.228e-08   |Residual|: 2.659e-05   |deigs|: 8.291e-05  t[s]:    105.24
	FillingsUpdate:  mu: -0.105010592  nElectrons: 3.000000  magneticMoment: [ Abs: 0.60008  Tot: +0.60000 ]
SCF: Cycle: 30   F: -7.049851662243104   dF: -2.188e-08   |Residual|: 2.020e-05   |deigs|: 6.367e-05  t[s]:    108.49
	FillingsUpdate:  mu: -0.105016425  nElectrons: 3.000000  magneticMoment: [ Abs: 0.60006  Tot: +0.60000 ]
SCF: Cycle: 31   F: -7.049851655144071   dF: +7.099e-09   |Residual|: 1.370e-05   |deigs|: 4.883e-05  t[s]:    111.83
	FillingsUpdate:  mu: -0.105026935  nElectrons: 3.000000  magneticMoment: [ Abs: 0.60003  Tot: +0.60000 ]
SCF: Cycle: 32   F: -7.049851668228123   dF: -1.308e-08   |Residual|: 9.771e-06   |deigs|: 3.813e-05  t[s]:    115.04
	FillingsUpdate:  mu: -0.105036371  nElectrons: 3.000000  magneticMoment: [ Abs: 0.60001  Tot: +0.60000 ]
SCF: Cycle: 33   F: -7.049851678563077   dF: -1.033e-08   |Residual|: 7.729e-06   |deigs|: 2.945e-05  t[s]:    118.26
	FillingsUpdate:  mu: -0.105048785  nElectrons: 3.000000  magneticMoment: [ Abs: 0.60001  Tot: +0.60000 ]
SCF: Cycle: 34   F: -7.049851682935999   dF: -4.373e-09   |Residual|: 7.091e-06   |deigs|: 2.403e-05  t[s]:    121.56
	FillingsUpdate:  mu: -0.105068440  nElectrons: 3.000000  magneticMoment: [ Abs: 0.60001  Tot: +0.60000 ]
SCF: Cycle: 35   F: -7.049851682055052   dF: +8.809e-10   |Residual|: 6.788e-06   |deigs|: 2.488e-05  t[s]:    124.80
	FillingsUpdate:  mu: -0.105084435  nElectrons: 3.000000  magneticMoment: [ Abs: 0.60001  Tot: +0.60000 ]
SCF: Cycle: 36   F: -7.049851682883649   dF: -8.286e-10   |Residual|: 5.347e-06   |deigs|: 1.926e-05  t[s]:    128.07
	FillingsUpdate:  mu: -0.105094432  nElectrons: 3.000000  magneticMoment: [ Abs: 0.60000  Tot: +0.60000 ]
SCF: Cycle: 37   F: -7.049851684161893   dF: -1.278e-09   |Residual|: 3.659e-06   |deigs|: 1.262e-05  t[s]:    131.44
SCF: Converged (|Delta E|<1.000000e-08 for 2 iters).


# Ionic positions in lattice coordinates:
ion Li   0.000000000000000   0.000000000000000   0.000000000000000 0

# Forces in Lattice coordinates:
force Li   0.000000000000000  -0.000000000000000   0.000000000000000 0

# Energy components:
   Eewald =       -1.3368908222468645
       EH =        2.2103098665316283
     Eloc =       -7.5528098360788434
      Enl =       -3.6029230720867167
   Epulay =       -0.0000013080581827
      Exc =       -1.5374220473663083
       KE =        4.7698865346785926
-------------------------------------
     Etot =       -7.0498506846266942
       TS =        0.0000009995351983
-------------------------------------
        F =       -7.0498516841618928

IonicMinimize: Iter:   0  F: -7.049851684161893  |grad|_K:  0.000e+00  t[s]:    131.58
IonicMinimize: Converged (|grad|_K<1.000000e-04).

#--- Lowdin population analysis ---
# oxidation-state Li +2.087
# magnetic-moments Li +0.553

End date and time: Sat Feb  5 23:09:56 2022  (Duration: 0-0:02:11.60)
Done!
