
*************** JDFTx 1.6.0 (git hash 42ebbcc2) ***************

Start date and time: Sat Feb  5 23:06:56 2022
Executable jdftx with command-line: -i Alkali.in
Running on hosts (process indices):  d-16-1-2 (0-18)
Divided in process groups (process indices):  0 (0)  1 (1)  2 (2)  3 (3)  4 (4)  5 (5)  6 (6)  7 (7)  8 (8)  9 (9)  10 (10)  11 (11)  12 (12)  13 (13)  14 (14)  15 (15)  16 (16)  17 (17)  18 (18)
Resource initialization completed at t[s]:      0.00
Run totals: 19 processes, 48 threads, 0 GPUs


Input parsed successfully to the following command list (including defaults):

basis kpoint-dependent
coords-type Lattice
core-overlap-check vector
coulomb-interaction Slab 001
davidson-band-ratio 1.1
dump End None
dump-name $INPUT.$VAR
elec-cutoff 20
elec-eigen-algo Davidson
elec-ex-corr gga-PBE
elec-initial-magnetization 0.460000 yes
elec-smearing Fermi 1e-05
electronic-minimize  \
	dirUpdateScheme      FletcherReeves \
	linminMethod         DirUpdateRecommended \
	nIterations          100 \
	history              15 \
	knormThreshold       0 \
	energyDiffThreshold  1e-08 \
	nEnergyDiff          2 \
	alphaTstart          1 \
	alphaTmin            1e-10 \
	updateTestStepSize   yes \
	alphaTreduceFactor   0.1 \
	alphaTincreaseFactor 3 \
	nAlphaAdjustMax      3 \
	wolfeEnergy          0.0001 \
	wolfeGradient        0.9 \
	fdTest               no
electronic-scf  \
	nIterations	10000 \
	energyDiffThreshold	1e-08 \
	residualThreshold	1e-07 \
	mixFraction	0.5 \
	qMetric	0.8 \
	history	10 \
	nEigSteps	2 \
	eigDiffThreshold	1e-08 \
	mixedVariable	Density \
	qKerker	0.8 \
	qKappa	-1 \
	verbose	no \
	mixFractionMag	1.5
exchange-regularization WignerSeitzTruncated
fluid None
fluid-ex-corr (null) lda-PZ
fluid-gummel-loop 10 1.000000e-05
fluid-minimize  \
	dirUpdateScheme      PolakRibiere \
	linminMethod         DirUpdateRecommended \
	nIterations          100 \
	history              15 \
	knormThreshold       0 \
	energyDiffThreshold  0 \
	nEnergyDiff          2 \
	alphaTstart          1 \
	alphaTmin            1e-10 \
	updateTestStepSize   yes \
	alphaTreduceFactor   0.1 \
	alphaTincreaseFactor 3 \
	nAlphaAdjustMax      3 \
	wolfeEnergy          0.0001 \
	wolfeGradient        0.9 \
	fdTest               no
fluid-solvent H2O 55.338 ScalarEOS \
	epsBulk 78.4 \
	pMol 0.92466 \
	epsInf 1.77 \
	Pvap 1.06736e-10 \
	sigmaBulk 4.62e-05 \
	Rvdw 2.61727 \
	Res 1.42 \
	tauNuc 343133 \
	poleEl 15 7 1
forces-output-coords Positions
ion Li   0.000000000000000   0.000000000000000   0.000000000000000 0
ion-species SG15/$ID_ONCV_PBE.upf
ion-width 0
ionic-minimize  \
	dirUpdateScheme      L-BFGS \
	linminMethod         DirUpdateRecommended \
	nIterations          0 \
	history              15 \
	knormThreshold       0.0001 \
	energyDiffThreshold  1e-06 \
	nEnergyDiff          2 \
	alphaTstart          1 \
	alphaTmin            1e-10 \
	updateTestStepSize   yes \
	alphaTreduceFactor   0.1 \
	alphaTincreaseFactor 3 \
	nAlphaAdjustMax      3 \
	wolfeEnergy          0.0001 \
	wolfeGradient        0.9 \
	fdTest               no
kpoint   0.000000000000   0.000000000000   0.000000000000  1.00000000000000
kpoint-folding 12 12 1 
latt-move-scale 1 1 1
latt-scale 3 3 1 
lattice  \
	   4.727486978767153   -2.363743489383575    0.000000000000000  \
	  -0.000000000000000    4.094123819672498    0.000000000000000  \
	   0.000000000000000    0.000000000000000   40.000000000000000 
lattice-minimize  \
	dirUpdateScheme      L-BFGS \
	linminMethod         DirUpdateRecommended \
	nIterations          0 \
	history              15 \
	knormThreshold       0 \
	energyDiffThreshold  1e-06 \
	nEnergyDiff          2 \
	alphaTstart          1 \
	alphaTmin            1e-10 \
	updateTestStepSize   yes \
	alphaTreduceFactor   0.1 \
	alphaTincreaseFactor 3 \
	nAlphaAdjustMax      3 \
	wolfeEnergy          0.0001 \
	wolfeGradient        0.9 \
	fdTest               no
lcao-params -1 1e-06 1e-05
pcm-variant GLSSA13
spintype z-spin
subspace-rotation-factor 1 yes
symmetries automatic
symmetry-threshold 0.0001



---------- Setting up symmetries ----------

Found 24 point-group symmetries of the bravais lattice
Found 24 space-group symmetries with basis
Applied RMS atom displacement 0 bohrs to make symmetries exact.

---------- Initializing the Grid ----------
R = 
[      14.1825     -7.09123            0  ]
[            0      12.2824            0  ]
[            0            0           40  ]
unit cell volume = 6967.77
G =
[   0.443025   0.255781         -0  ]
[          0   0.511561         -0  ]
[         -0         -0    0.15708  ]
Minimum fftbox size, Smin = [  60  60  164  ]
Chosen fftbox size, S = [  60  60  168  ]

---------- Exchange Correlation functional ----------
Initalized PBE GGA exchange.
Initalized PBE GGA correlation.

---------- Setting up pseudopotentials ----------
Width of ionic core gaussian charges (only for fluid interactions / plotting) set to 0

Reading pseudopotential file '/home/gridsan/aligho/DFT/build-Nov24/pseudopotentials/SG15/Li_ONCV_PBE.upf':
  'Li' pseudopotential, 'PBE' functional
  Generated using ONCVPSP code by D. R. Hamann
  Author: Martin Schlipf and Francois Gygi  Date: 150915.
  3 valence electrons, 2 orbitals, 4 projectors, 1328 radial grid points, with lMax = 1
  Transforming local potential to a uniform radial grid of dG=0.02 with 1489 points.
  Transforming nonlocal projectors to a uniform radial grid of dG=0.02 with 432 points.
    1S    l: 0   occupation:  2.0   eigenvalue: -1.905623
    2S    l: 0   occupation:  1.0   eigenvalue: -0.105624
  Transforming atomic orbitals to a uniform radial grid of dG=0.02 with 432 points.
  WARNING: large normalization error in atomic orbital 1s (integral: 0.000000).
  Core radius for overlap checks: 1.63 bohrs.
  Reading pulay file /home/gridsan/aligho/DFT/build-Nov24/pseudopotentials/SG15/Li_ONCV_PBE.pulay ... using dE_dnG = -1.230239e-02 computed for Ecut = 20.

Initialized 1 species with 1 total atoms.

Folded 1 k-points by 12x12x1 to 144 k-points.

---------- Setting up k-points, bands, fillings ----------
Reduced to 19 k-points under symmetry. 
Computing the number of bands and number of electrons
Calculating initial fillings.
nElectrons:   3.000000   nBands: 3   nStates: 38

----- Setting up reduced wavefunction bases (one per k-point) -----
average nbasis = 29766.104 , ideal nbasis = 29766.845

---------- Setting up coulomb interaction ----------
Initialized slab truncation along lattice direction 001

---------- Setting up 2D ewald sum ----------
Optimum gaussian width for ewald sums = 7.873530 bohr.
Real space sums over 289 unit cells with max indices [  8  8  0  ]
Reciprocal space sums over 81 terms with max indices [  4  4  0  ]

---------- Allocating electronic variables ----------
Initializing wave functions:  linear combination of atomic orbitals
Note: number of bands (3) exceeds available atomic orbitals (2)
Li pseudo-atom occupations:   s ( 2 1 )
	FillingsUpdate:  mu: +0.349598401  nElectrons: 3.000000  magneticMoment: [ Abs: 0.46000  Tot: +0.46000 ]
LCAOMinimize: Iter:   0  F: -1.2881229054128760  |grad|_K:  4.815e-05  alpha:  1.000e+00
	FillingsUpdate:  mu: +0.349597935  nElectrons: 3.000000  magneticMoment: [ Abs: 0.46000  Tot: +0.46000 ]
LCAOMinimize: Iter:   1  F: -1.2881233247453487  |grad|_K:  4.490e-07  alpha:  1.058e+00  linmin: -1.365e-03  cgtest:  9.990e-03  t[s]:      7.35
LCAOMinimize: Encountered beta<0, resetting CG.
	FillingsUpdate:  mu: +0.349597936  nElectrons: 3.000000  magneticMoment: [ Abs: 0.46000  Tot: +0.46000 ]
LCAOMinimize: Iter:   2  F: -1.2881233247814576  |grad|_K:  1.641e-08  alpha:  9.822e-01  linmin: -1.881e-02  cgtest:  7.217e-01  t[s]:      9.35
LCAOMinimize: Encountered beta<0, resetting CG.
LCAOMinimize: Converged (|Delta F|<1.000000e-06 for 2 iters).


---- Citations for features of the code used in this run ----

   Software package:
      R. Sundararaman, K. Letchworth-Weaver, K.A. Schwarz, D. Gunceler, Y. Ozhabes and T.A. Arias, 'JDFTx: software for joint density-functional theory', SoftwareX 6, 278 (2017)

   gga-PBE exchange-correlation functional:
      J.P. Perdew, K. Burke and M. Ernzerhof, Phys. Rev. Lett. 77, 3865 (1996)

   Pseudopotentials:
      M Schlipf and F Gygi, Comput. Phys. Commun. 196, 36 (2015)

   Truncated Coulomb potentials:
      R. Sundararaman and T.A. Arias, Phys. Rev. B 87, 165122 (2013)

This list may not be complete. Please suggest additional citations or
report any other bugs at https://github.com/shankar1729/jdftx/issues

Initialization completed successfully at t[s]:      9.44


-------- Electronic minimization -----------
Will mix electronic density at each iteration.
	FillingsUpdate:  mu: +0.349597936  nElectrons: 3.000000  magneticMoment: [ Abs: 0.46000  Tot: +0.46000 ]
	FillingsUpdate:  mu: -0.695001004  nElectrons: 3.000000  magneticMoment: [ Abs: 0.46000  Tot: +0.46000 ]
SCF: Cycle:  0   F: -6.873152009388241   dF: -5.585e+00   |Residual|: 1.225e+00   |deigs|: 4.156e+00  t[s]:     12.74
	FillingsUpdate:  mu: -0.569898705  nElectrons: 3.000000  magneticMoment: [ Abs: 0.73913  Tot: +0.46000 ]
SCF: Cycle:  1   F: -6.917069665128927   dF: -4.392e-02   |Residual|: 7.630e-01   |deigs|: 2.743e-01  t[s]:     15.42
	FillingsUpdate:  mu: -0.353951305  nElectrons: 3.000000  magneticMoment: [ Abs: 1.00531  Tot: +0.46000 ]
SCF: Cycle:  2   F: -7.039058064315064   dF: -1.220e-01   |Residual|: 3.307e-01   |deigs|: 7.098e-01  t[s]:     18.21
	FillingsUpdate:  mu: -0.365026222  nElectrons: 3.000000  magneticMoment: [ Abs: 0.92432  Tot: +0.46000 ]
SCF: Cycle:  3   F: -7.040589614990870   dF: -1.532e-03   |Residual|: 1.877e-01   |deigs|: 7.815e-02  t[s]:     20.98
	FillingsUpdate:  mu: -0.326763399  nElectrons: 3.000000  magneticMoment: [ Abs: 0.82251  Tot: +0.46000 ]
SCF: Cycle:  4   F: -7.041761417330346   dF: -1.172e-03   |Residual|: 4.274e-02   |deigs|: 2.987e-02  t[s]:     23.88
	FillingsUpdate:  mu: -0.311039625  nElectrons: 3.000000  magneticMoment: [ Abs: 0.76529  Tot: +0.46000 ]
SCF: Cycle:  5   F: -7.041294710006112   dF: +4.667e-04   |Residual|: 9.317e-02   |deigs|: 1.581e-02  t[s]:     26.77
	FillingsUpdate:  mu: -0.269324504  nElectrons: 3.000000  magneticMoment: [ Abs: 0.60359  Tot: +0.46000 ]
SCF: Cycle:  6   F: -7.044656611474615   dF: -3.362e-03   |Residual|: 5.227e-02   |deigs|: 7.800e-02  t[s]:     29.75
	FillingsUpdate:  mu: -0.246642466  nElectrons: 3.000000  magneticMoment: [ Abs: 0.55281  Tot: +0.46000 ]
SCF: Cycle:  7   F: -7.046186436390758   dF: -1.530e-03   |Residual|: 8.896e-02   |deigs|: 6.533e-02  t[s]:     32.85
	FillingsUpdate:  mu: -0.248885878  nElectrons: 3.000000  magneticMoment: [ Abs: 0.52700  Tot: +0.46000 ]
SCF: Cycle:  8   F: -7.046118951107194   dF: +6.749e-05   |Residual|: 7.804e-02   |deigs|: 9.576e-03  t[s]:     35.91
	FillingsUpdate:  mu: -0.226330373  nElectrons: 3.000000  magneticMoment: [ Abs: 0.54666  Tot: +0.46000 ]
SCF: Cycle:  9   F: -7.046894439265986   dF: -7.755e-04   |Residual|: 9.288e-02   |deigs|: 5.392e-02  t[s]:     39.08
	FillingsUpdate:  mu: -0.195783527  nElectrons: 3.000000  magneticMoment: [ Abs: 0.57328  Tot: +0.46000 ]
SCF: Cycle: 10   F: -7.047711761578103   dF: -8.173e-04   |Residual|: 2.412e-02   |deigs|: 4.778e-02  t[s]:     42.40
	FillingsUpdate:  mu: -0.175136315  nElectrons: 3.000000  magneticMoment: [ Abs: 0.60480  Tot: +0.46000 ]
SCF: Cycle: 11   F: -7.048194527247648   dF: -4.828e-04   |Residual|: 3.023e-02   |deigs|: 2.615e-02  t[s]:     45.62
	FillingsUpdate:  mu: -0.168671355  nElectrons: 3.000000  magneticMoment: [ Abs: 0.60447  Tot: +0.46000 ]
SCF: Cycle: 12   F: -7.048352315220766   dF: -1.578e-04   |Residual|: 1.007e-02   |deigs|: 7.356e-03  t[s]:     48.82
	FillingsUpdate:  mu: -0.146168648  nElectrons: 3.000000  magneticMoment: [ Abs: 0.60707  Tot: +0.46000 ]
SCF: Cycle: 13   F: -7.048321539733340   dF: +3.078e-05   |Residual|: 7.649e-03   |deigs|: 2.258e-02  t[s]:     51.97
	FillingsUpdate:  mu: -0.134363931  nElectrons: 3.000000  magneticMoment: [ Abs: 0.58941  Tot: +0.46000 ]
SCF: Cycle: 14   F: -7.048223603723150   dF: +9.794e-05   |Residual|: 6.979e-03   |deigs|: 1.194e-02  t[s]:     55.26
	FillingsUpdate:  mu: -0.121397774  nElectrons: 3.000000  magneticMoment: [ Abs: 0.55701  Tot: +0.46000 ]
SCF: Cycle: 15   F: -7.048253893869930   dF: -3.029e-05   |Residual|: 6.150e-03   |deigs|: 1.334e-02  t[s]:     58.50
	FillingsUpdate:  mu: -0.113375695  nElectrons: 3.000000  magneticMoment: [ Abs: 0.52384  Tot: +0.46000 ]
SCF: Cycle: 16   F: -7.048505201467528   dF: -2.513e-04   |Residual|: 4.192e-03   |deigs|: 8.263e-03  t[s]:     61.79
	FillingsUpdate:  mu: -0.108271401  nElectrons: 3.000000  magneticMoment: [ Abs: 0.50511  Tot: +0.46000 ]
SCF: Cycle: 17   F: -7.048679158538452   dF: -1.740e-04   |Residual|: 2.747e-03   |deigs|: 5.882e-03  t[s]:     65.01
	FillingsUpdate:  mu: -0.106099804  nElectrons: 3.000000  magneticMoment: [ Abs: 0.48944  Tot: +0.46000 ]
SCF: Cycle: 18   F: -7.048760837180840   dF: -8.168e-05   |Residual|: 1.784e-03   |deigs|: 2.888e-03  t[s]:     68.24
	FillingsUpdate:  mu: -0.105255097  nElectrons: 3.000000  magneticMoment: [ Abs: 0.48136  Tot: +0.46000 ]
SCF: Cycle: 19   F: -7.048801098340201   dF: -4.026e-05   |Residual|: 1.116e-03   |deigs|: 1.027e-03  t[s]:     71.49
	FillingsUpdate:  mu: -0.104563159  nElectrons: 3.000000  magneticMoment: [ Abs: 0.47737  Tot: +0.46000 ]
SCF: Cycle: 20   F: -7.048817158794731   dF: -1.606e-05   |Residual|: 5.995e-04   |deigs|: 6.882e-04  t[s]:     74.77
	FillingsUpdate:  mu: -0.104348665  nElectrons: 3.000000  magneticMoment: [ Abs: 0.47453  Tot: +0.46000 ]
SCF: Cycle: 21   F: -7.048823171781497   dF: -6.013e-06   |Residual|: 3.807e-04   |deigs|: 2.369e-04  t[s]:     77.95
	FillingsUpdate:  mu: -0.104346687  nElectrons: 3.000000  magneticMoment: [ Abs: 0.47201  Tot: +0.46000 ]
SCF: Cycle: 22   F: -7.048824377504910   dF: -1.206e-06   |Residual|: 3.058e-04   |deigs|: 1.035e-04  t[s]:     81.18
	FillingsUpdate:  mu: -0.104533783  nElectrons: 3.000000  magneticMoment: [ Abs: 0.46786  Tot: +0.46000 ]
SCF: Cycle: 23   F: -7.048825493591476   dF: -1.116e-06   |Residual|: 2.093e-04   |deigs|: 2.285e-04  t[s]:     84.51
	FillingsUpdate:  mu: -0.104848682  nElectrons: 3.000000  magneticMoment: [ Abs: 0.46533  Tot: +0.46000 ]
SCF: Cycle: 24   F: -7.048825364103428   dF: +1.295e-07   |Residual|: 1.963e-04   |deigs|: 3.359e-04  t[s]:     87.75
	FillingsUpdate:  mu: -0.105114890  nElectrons: 3.000000  magneticMoment: [ Abs: 0.46257  Tot: +0.46000 ]
SCF: Cycle: 25   F: -7.048825822561366   dF: -4.585e-07   |Residual|: 1.474e-04   |deigs|: 2.891e-04  t[s]:     91.00
	FillingsUpdate:  mu: -0.105373055  nElectrons: 3.000000  magneticMoment: [ Abs: 0.46124  Tot: +0.46000 ]
SCF: Cycle: 26   F: -7.048826290419868   dF: -4.679e-07   |Residual|: 8.675e-05   |deigs|: 2.811e-04  t[s]:     94.21
	FillingsUpdate:  mu: -0.105455663  nElectrons: 3.000000  magneticMoment: [ Abs: 0.46073  Tot: +0.46000 ]
SCF: Cycle: 27   F: -7.048826423869346   dF: -1.334e-07   |Residual|: 6.084e-05   |deigs|: 1.291e-04  t[s]:     97.43
	FillingsUpdate:  mu: -0.105508459  nElectrons: 3.000000  magneticMoment: [ Abs: 0.46026  Tot: +0.46000 ]
SCF: Cycle: 28   F: -7.048826518161039   dF: -9.429e-08   |Residual|: 3.414e-05   |deigs|: 1.103e-04  t[s]:    100.68
	FillingsUpdate:  mu: -0.105523255  nElectrons: 3.000000  magneticMoment: [ Abs: 0.46019  Tot: +0.46000 ]
SCF: Cycle: 29   F: -7.048826566836175   dF: -4.868e-08   |Residual|: 2.255e-05   |deigs|: 8.719e-05  t[s]:    103.91
	FillingsUpdate:  mu: -0.105514000  nElectrons: 3.000000  magneticMoment: [ Abs: 0.46015  Tot: +0.46000 ]
SCF: Cycle: 30   F: -7.048826583028634   dF: -1.619e-08   |Residual|: 1.632e-05   |deigs|: 7.320e-05  t[s]:    107.17
	FillingsUpdate:  mu: -0.105502207  nElectrons: 3.000000  magneticMoment: [ Abs: 0.46014  Tot: +0.46000 ]
SCF: Cycle: 31   F: -7.048826589086008   dF: -6.057e-09   |Residual|: 1.219e-05   |deigs|: 6.303e-05  t[s]:    110.35
	FillingsUpdate:  mu: -0.105496110  nElectrons: 3.000000  magneticMoment: [ Abs: 0.46010  Tot: +0.46000 ]
SCF: Cycle: 32   F: -7.048826591027934   dF: -1.942e-09   |Residual|: 9.817e-06   |deigs|: 4.814e-05  t[s]:    113.60
SCF: Converged (|Delta E|<1.000000e-08 for 2 iters).


# Ionic positions in lattice coordinates:
ion Li   0.000000000000000   0.000000000000000   0.000000000000000 0

# Forces in Lattice coordinates:
force Li  -0.000000000000000   0.000000000000000   0.000000000000000 0

# Energy components:
   Eewald =       -1.3368908222468645
       EH =        2.2040995362086808
     Eloc =       -7.5448879843993044
      Enl =       -3.6019625077745312
   Epulay =       -0.0000013080581827
      Exc =       -1.5345052799623864
       KE =        4.7653225839891595
-------------------------------------
     Etot =       -7.0488257822434290
       TS =        0.0000008087845052
-------------------------------------
        F =       -7.0488265910279342

IonicMinimize: Iter:   0  F: -7.048826591027934  |grad|_K:  0.000e+00  t[s]:    113.77
IonicMinimize: Converged (|grad|_K<1.000000e-04).

#--- Lowdin population analysis ---
# oxidation-state Li +2.095
# magnetic-moments Li +0.424

End date and time: Sat Feb  5 23:08:49 2022  (Duration: 0-0:01:53.79)
Done!
