
*************** JDFTx 1.6.0 (git hash 42ebbcc2) ***************

Start date and time: Sat Feb  5 22:46:58 2022
Executable jdftx with command-line: -i Alkali.in
Running on hosts (process indices):  d-16-1-2 (0-18)
Divided in process groups (process indices):  0 (0)  1 (1)  2 (2)  3 (3)  4 (4)  5 (5)  6 (6)  7 (7)  8 (8)  9 (9)  10 (10)  11 (11)  12 (12)  13 (13)  14 (14)  15 (15)  16 (16)  17 (17)  18 (18)
Resource initialization completed at t[s]:      0.00
Run totals: 19 processes, 48 threads, 0 GPUs


Input parsed successfully to the following command list (including defaults):

basis kpoint-dependent
coords-type Lattice
core-overlap-check vector
coulomb-interaction Slab 001
davidson-band-ratio 1.1
dump End None
dump-name $INPUT.$VAR
elec-cutoff 20
elec-eigen-algo Davidson
elec-ex-corr gga-PBE
elec-initial-magnetization -0.660000 yes
elec-smearing Fermi 1e-05
electronic-minimize  \
	dirUpdateScheme      FletcherReeves \
	linminMethod         DirUpdateRecommended \
	nIterations          100 \
	history              15 \
	knormThreshold       0 \
	energyDiffThreshold  1e-08 \
	nEnergyDiff          2 \
	alphaTstart          1 \
	alphaTmin            1e-10 \
	updateTestStepSize   yes \
	alphaTreduceFactor   0.1 \
	alphaTincreaseFactor 3 \
	nAlphaAdjustMax      3 \
	wolfeEnergy          0.0001 \
	wolfeGradient        0.9 \
	fdTest               no
electronic-scf  \
	nIterations	10000 \
	energyDiffThreshold	1e-08 \
	residualThreshold	1e-07 \
	mixFraction	0.5 \
	qMetric	0.8 \
	history	10 \
	nEigSteps	2 \
	eigDiffThreshold	1e-08 \
	mixedVariable	Density \
	qKerker	0.8 \
	qKappa	-1 \
	verbose	no \
	mixFractionMag	1.5
exchange-regularization WignerSeitzTruncated
fluid None
fluid-ex-corr (null) lda-PZ
fluid-gummel-loop 10 1.000000e-05
fluid-minimize  \
	dirUpdateScheme      PolakRibiere \
	linminMethod         DirUpdateRecommended \
	nIterations          100 \
	history              15 \
	knormThreshold       0 \
	energyDiffThreshold  0 \
	nEnergyDiff          2 \
	alphaTstart          1 \
	alphaTmin            1e-10 \
	updateTestStepSize   yes \
	alphaTreduceFactor   0.1 \
	alphaTincreaseFactor 3 \
	nAlphaAdjustMax      3 \
	wolfeEnergy          0.0001 \
	wolfeGradient        0.9 \
	fdTest               no
fluid-solvent H2O 55.338 ScalarEOS \
	epsBulk 78.4 \
	pMol 0.92466 \
	epsInf 1.77 \
	Pvap 1.06736e-10 \
	sigmaBulk 4.62e-05 \
	Rvdw 2.61727 \
	Res 1.42 \
	tauNuc 343133 \
	poleEl 15 7 1
forces-output-coords Positions
ion Li   0.000000000000000   0.000000000000000   0.000000000000000 0
ion-species SG15/$ID_ONCV_PBE.upf
ion-width 0
ionic-minimize  \
	dirUpdateScheme      L-BFGS \
	linminMethod         DirUpdateRecommended \
	nIterations          0 \
	history              15 \
	knormThreshold       0.0001 \
	energyDiffThreshold  1e-06 \
	nEnergyDiff          2 \
	alphaTstart          1 \
	alphaTmin            1e-10 \
	updateTestStepSize   yes \
	alphaTreduceFactor   0.1 \
	alphaTincreaseFactor 3 \
	nAlphaAdjustMax      3 \
	wolfeEnergy          0.0001 \
	wolfeGradient        0.9 \
	fdTest               no
kpoint   0.000000000000   0.000000000000   0.000000000000  1.00000000000000
kpoint-folding 12 12 1 
latt-move-scale 1 1 1
latt-scale 3 3 1 
lattice  \
	   4.727486978767153   -2.363743489383575    0.000000000000000  \
	  -0.000000000000000    4.094123819672498    0.000000000000000  \
	   0.000000000000000    0.000000000000000   40.000000000000000 
lattice-minimize  \
	dirUpdateScheme      L-BFGS \
	linminMethod         DirUpdateRecommended \
	nIterations          0 \
	history              15 \
	knormThreshold       0 \
	energyDiffThreshold  1e-06 \
	nEnergyDiff          2 \
	alphaTstart          1 \
	alphaTmin            1e-10 \
	updateTestStepSize   yes \
	alphaTreduceFactor   0.1 \
	alphaTincreaseFactor 3 \
	nAlphaAdjustMax      3 \
	wolfeEnergy          0.0001 \
	wolfeGradient        0.9 \
	fdTest               no
lcao-params -1 1e-06 1e-05
pcm-variant GLSSA13
spintype z-spin
subspace-rotation-factor 1 yes
symmetries automatic
symmetry-threshold 0.0001



---------- Setting up symmetries ----------

Found 24 point-group symmetries of the bravais lattice
Found 24 space-group symmetries with basis
Applied RMS atom displacement 0 bohrs to make symmetries exact.

---------- Initializing the Grid ----------
R = 
[      14.1825     -7.09123            0  ]
[            0      12.2824            0  ]
[            0            0           40  ]
unit cell volume = 6967.77
G =
[   0.443025   0.255781         -0  ]
[          0   0.511561         -0  ]
[         -0         -0    0.15708  ]
Minimum fftbox size, Smin = [  60  60  164  ]
Chosen fftbox size, S = [  60  60  168  ]

---------- Exchange Correlation functional ----------
Initalized PBE GGA exchange.
Initalized PBE GGA correlation.

---------- Setting up pseudopotentials ----------
Width of ionic core gaussian charges (only for fluid interactions / plotting) set to 0

Reading pseudopotential file '/home/gridsan/aligho/DFT/build-Nov24/pseudopotentials/SG15/Li_ONCV_PBE.upf':
  'Li' pseudopotential, 'PBE' functional
  Generated using ONCVPSP code by D. R. Hamann
  Author: Martin Schlipf and Francois Gygi  Date: 150915.
  3 valence electrons, 2 orbitals, 4 projectors, 1328 radial grid points, with lMax = 1
  Transforming local potential to a uniform radial grid of dG=0.02 with 1489 points.
  Transforming nonlocal projectors to a uniform radial grid of dG=0.02 with 432 points.
    1S    l: 0   occupation:  2.0   eigenvalue: -1.905623
    2S    l: 0   occupation:  1.0   eigenvalue: -0.105624
  Transforming atomic orbitals to a uniform radial grid of dG=0.02 with 432 points.
  WARNING: large normalization error in atomic orbital 1s (integral: 0.000000).
  Core radius for overlap checks: 1.63 bohrs.
  Reading pulay file /home/gridsan/aligho/DFT/build-Nov24/pseudopotentials/SG15/Li_ONCV_PBE.pulay ... using dE_dnG = -1.230239e-02 computed for Ecut = 20.

Initialized 1 species with 1 total atoms.

Folded 1 k-points by 12x12x1 to 144 k-points.

---------- Setting up k-points, bands, fillings ----------
Reduced to 19 k-points under symmetry. 
Computing the number of bands and number of electrons
Calculating initial fillings.
nElectrons:   3.000000   nBands: 3   nStates: 38

----- Setting up reduced wavefunction bases (one per k-point) -----
average nbasis = 29766.104 , ideal nbasis = 29766.845

---------- Setting up coulomb interaction ----------
Initialized slab truncation along lattice direction 001

---------- Setting up 2D ewald sum ----------
Optimum gaussian width for ewald sums = 7.873530 bohr.
Real space sums over 289 unit cells with max indices [  8  8  0  ]
Reciprocal space sums over 81 terms with max indices [  4  4  0  ]

---------- Allocating electronic variables ----------
Initializing wave functions:  linear combination of atomic orbitals
Note: number of bands (3) exceeds available atomic orbitals (2)
Li pseudo-atom occupations:   s ( 2 1 )
	FillingsUpdate:  mu: +0.346974968  nElectrons: 3.000000  magneticMoment: [ Abs: 0.66001  Tot: -0.66000 ]
LCAOMinimize: Iter:   0  F: -1.2829964852436300  |grad|_K:  4.624e-05  alpha:  1.000e+00
LCAOMinimize: 	Wrong curvature in test step, increasing alphaT to 3.000000e+00.
	FillingsUpdate:  mu: +0.347062790  nElectrons: 3.000000  magneticMoment: [ Abs: 0.66002  Tot: -0.66000 ]
LCAOMinimize: Iter:   1  F: -1.2830018434468433  |grad|_K:  2.608e-06  alpha: -7.901e-02  linmin: -1.575e-01  cgtest:  9.895e-01  t[s]:      7.46
LCAOMinimize: Encountered beta<0, resetting CG.
	FillingsUpdate:  mu: +0.347062763  nElectrons: 3.000000  magneticMoment: [ Abs: 0.66002  Tot: -0.66000 ]
LCAOMinimize: Iter:   2  F: -1.2830018446788258  |grad|_K:  1.582e-08  alpha:  1.060e+00  linmin:  6.694e-03  cgtest: -2.851e-02  t[s]:      9.39
LCAOMinimize: 	Wrong curvature in test step, increasing alphaT to 3.179710e+00.
	FillingsUpdate:  mu: +0.347062763  nElectrons: 3.000000  magneticMoment: [ Abs: 0.66002  Tot: -0.66000 ]
LCAOMinimize: Iter:   3  F: -1.2830018446790130  |grad|_K:  7.735e-10  alpha: -4.971e-01  linmin: -8.620e-03  cgtest:  3.739e-01  t[s]:     11.36
LCAOMinimize: Encountered beta<0, resetting CG.
LCAOMinimize: Converged (|Delta F|<1.000000e-06 for 2 iters).


---- Citations for features of the code used in this run ----

   Software package:
      R. Sundararaman, K. Letchworth-Weaver, K.A. Schwarz, D. Gunceler, Y. Ozhabes and T.A. Arias, 'JDFTx: software for joint density-functional theory', SoftwareX 6, 278 (2017)

   gga-PBE exchange-correlation functional:
      J.P. Perdew, K. Burke and M. Ernzerhof, Phys. Rev. Lett. 77, 3865 (1996)

   Pseudopotentials:
      M Schlipf and F Gygi, Comput. Phys. Commun. 196, 36 (2015)

   Truncated Coulomb potentials:
      R. Sundararaman and T.A. Arias, Phys. Rev. B 87, 165122 (2013)

This list may not be complete. Please suggest additional citations or
report any other bugs at https://github.com/shankar1729/jdftx/issues

Initialization completed successfully at t[s]:     11.45


-------- Electronic minimization -----------
Will mix electronic density at each iteration.
	FillingsUpdate:  mu: +0.347062763  nElectrons: 3.000000  magneticMoment: [ Abs: 0.66002  Tot: -0.66000 ]
	FillingsUpdate:  mu: -0.696162696  nElectrons: 3.000000  magneticMoment: [ Abs: 0.66002  Tot: -0.66000 ]
SCF: Cycle:  0   F: -6.881794393315396   dF: -5.599e+00   |Residual|: 1.224e+00   |deigs|: 4.156e+00  t[s]:     14.82
	FillingsUpdate:  mu: -0.569622873  nElectrons: 3.000000  magneticMoment: [ Abs: 1.04466  Tot: -0.66000 ]
SCF: Cycle:  1   F: -6.918436556585677   dF: -3.664e-02   |Residual|: 7.642e-01   |deigs|: 2.736e-01  t[s]:     17.54
	FillingsUpdate:  mu: -0.369692722  nElectrons: 3.000000  magneticMoment: [ Abs: 1.43866  Tot: -0.66000 ]
SCF: Cycle:  2   F: -7.038519011246136   dF: -1.201e-01   |Residual|: 3.306e-01   |deigs|: 7.080e-01  t[s]:     20.27
	FillingsUpdate:  mu: -0.377835757  nElectrons: 3.000000  magneticMoment: [ Abs: 1.29029  Tot: -0.66000 ]
SCF: Cycle:  3   F: -7.040109350979294   dF: -1.590e-03   |Residual|: 1.730e-01   |deigs|: 8.545e-02  t[s]:     23.07
	FillingsUpdate:  mu: -0.328438405  nElectrons: 3.000000  magneticMoment: [ Abs: 1.08145  Tot: -0.66000 ]
SCF: Cycle:  4   F: -7.043643104124555   dF: -3.534e-03   |Residual|: 4.040e-02   |deigs|: 4.106e-02  t[s]:     25.90
	FillingsUpdate:  mu: -0.309671600  nElectrons: 3.000000  magneticMoment: [ Abs: 1.00525  Tot: -0.66000 ]
SCF: Cycle:  5   F: -7.043754574044852   dF: -1.115e-04   |Residual|: 7.814e-02   |deigs|: 1.783e-02  t[s]:     28.80
	FillingsUpdate:  mu: -0.276155271  nElectrons: 3.000000  magneticMoment: [ Abs: 0.81573  Tot: -0.66000 ]
SCF: Cycle:  6   F: -7.045795850582503   dF: -2.041e-03   |Residual|: 3.585e-02   |deigs|: 6.499e-02  t[s]:     31.81
	FillingsUpdate:  mu: -0.259736574  nElectrons: 3.000000  magneticMoment: [ Abs: 0.78538  Tot: -0.66000 ]
SCF: Cycle:  7   F: -7.047444275485541   dF: -1.648e-03   |Residual|: 4.841e-02   |deigs|: 4.172e-02  t[s]:     34.86
	FillingsUpdate:  mu: -0.256695125  nElectrons: 3.000000  magneticMoment: [ Abs: 0.75134  Tot: -0.66000 ]
SCF: Cycle:  8   F: -7.047785411633146   dF: -3.411e-04   |Residual|: 4.894e-02   |deigs|: 2.975e-03  t[s]:     37.94
	FillingsUpdate:  mu: -0.232352052  nElectrons: 3.000000  magneticMoment: [ Abs: 0.72726  Tot: -0.66000 ]
SCF: Cycle:  9   F: -7.048911971508140   dF: -1.127e-03   |Residual|: 2.053e-02   |deigs|: 2.168e-02  t[s]:     41.15
	FillingsUpdate:  mu: -0.205039057  nElectrons: 3.000000  magneticMoment: [ Abs: 0.79029  Tot: -0.66000 ]
SCF: Cycle: 10   F: -7.049305242370741   dF: -3.933e-04   |Residual|: 5.961e-02   |deigs|: 2.174e-02  t[s]:     44.29
	FillingsUpdate:  mu: -0.187500551  nElectrons: 3.000000  magneticMoment: [ Abs: 0.83640  Tot: -0.66000 ]
SCF: Cycle: 11   F: -7.049636411987151   dF: -3.312e-04   |Residual|: 1.317e-02   |deigs|: 2.567e-02  t[s]:     47.49
	FillingsUpdate:  mu: -0.173484277  nElectrons: 3.000000  magneticMoment: [ Abs: 0.84412  Tot: -0.66000 ]
SCF: Cycle: 12   F: -7.049843568917855   dF: -2.072e-04   |Residual|: 1.052e-02   |deigs|: 1.567e-02  t[s]:     50.70
	FillingsUpdate:  mu: -0.146978509  nElectrons: 3.000000  magneticMoment: [ Abs: 0.83862  Tot: -0.66000 ]
SCF: Cycle: 13   F: -7.049644018566494   dF: +1.996e-04   |Residual|: 8.044e-03   |deigs|: 2.834e-02  t[s]:     54.01
	FillingsUpdate:  mu: -0.136999450  nElectrons: 3.000000  magneticMoment: [ Abs: 0.80891  Tot: -0.66000 ]
SCF: Cycle: 14   F: -7.049644434392156   dF: -4.158e-07   |Residual|: 7.279e-03   |deigs|: 9.735e-03  t[s]:     57.29
	FillingsUpdate:  mu: -0.123539169  nElectrons: 3.000000  magneticMoment: [ Abs: 0.77903  Tot: -0.66000 ]
SCF: Cycle: 15   F: -7.049765659415032   dF: -1.212e-04   |Residual|: 6.432e-03   |deigs|: 1.414e-02  t[s]:     60.49
	FillingsUpdate:  mu: -0.114518618  nElectrons: 3.000000  magneticMoment: [ Abs: 0.74608  Tot: -0.66000 ]
SCF: Cycle: 16   F: -7.049991908587956   dF: -2.262e-04   |Residual|: 4.628e-03   |deigs|: 9.702e-03  t[s]:     63.72
	FillingsUpdate:  mu: -0.105900318  nElectrons: 3.000000  magneticMoment: [ Abs: 0.71195  Tot: -0.66000 ]
SCF: Cycle: 17   F: -7.050253037103810   dF: -2.611e-04   |Residual|: 3.086e-03   |deigs|: 1.011e-02  t[s]:     66.88
	FillingsUpdate:  mu: -0.104587372  nElectrons: 3.000000  magneticMoment: [ Abs: 0.69632  Tot: -0.66000 ]
SCF: Cycle: 18   F: -7.050324936809687   dF: -7.190e-05   |Residual|: 2.121e-03   |deigs|: 1.728e-03  t[s]:     70.07
	FillingsUpdate:  mu: -0.104455526  nElectrons: 3.000000  magneticMoment: [ Abs: 0.68386  Tot: -0.66000 ]
SCF: Cycle: 19   F: -7.050363922220519   dF: -3.899e-05   |Residual|: 1.238e-03   |deigs|: 7.852e-04  t[s]:     73.29
	FillingsUpdate:  mu: -0.104261477  nElectrons: 3.000000  magneticMoment: [ Abs: 0.67770  Tot: -0.66000 ]
SCF: Cycle: 20   F: -7.050376863608606   dF: -1.294e-05   |Residual|: 7.906e-04   |deigs|: 3.450e-04  t[s]:     76.53
	FillingsUpdate:  mu: -0.104196486  nElectrons: 3.000000  magneticMoment: [ Abs: 0.67284  Tot: -0.66000 ]
SCF: Cycle: 21   F: -7.050384423608520   dF: -7.560e-06   |Residual|: 4.838e-04   |deigs|: 2.043e-04  t[s]:     79.76
	FillingsUpdate:  mu: -0.104273797  nElectrons: 3.000000  magneticMoment: [ Abs: 0.66951  Tot: -0.66000 ]
SCF: Cycle: 22   F: -7.050386793456788   dF: -2.370e-06   |Residual|: 3.465e-04   |deigs|: 1.712e-04  t[s]:     83.04
	FillingsUpdate:  mu: -0.104330180  nElectrons: 3.000000  magneticMoment: [ Abs: 0.66654  Tot: -0.66000 ]
SCF: Cycle: 23   F: -7.050387552128573   dF: -7.587e-07   |Residual|: 2.772e-04   |deigs|: 1.901e-04  t[s]:     86.15
	FillingsUpdate:  mu: -0.104463755  nElectrons: 3.000000  magneticMoment: [ Abs: 0.66381  Tot: -0.66000 ]
SCF: Cycle: 24   F: -7.050387761705929   dF: -2.096e-07   |Residual|: 2.249e-04   |deigs|: 1.856e-04  t[s]:     89.33
	FillingsUpdate:  mu: -0.104472399  nElectrons: 3.000000  magneticMoment: [ Abs: 0.66190  Tot: -0.66000 ]
SCF: Cycle: 25   F: -7.050387984293895   dF: -2.226e-07   |Residual|: 1.781e-04   |deigs|: 1.327e-04  t[s]:     92.61
	FillingsUpdate:  mu: -0.104506244  nElectrons: 3.000000  magneticMoment: [ Abs: 0.66030  Tot: -0.66000 ]
SCF: Cycle: 26   F: -7.050388011968619   dF: -2.767e-08   |Residual|: 1.209e-04   |deigs|: 1.152e-04  t[s]:     95.84
	FillingsUpdate:  mu: -0.104506946  nElectrons: 3.000000  magneticMoment: [ Abs: 0.66022  Tot: -0.66000 ]
SCF: Cycle: 27   F: -7.050388323101121   dF: -3.111e-07   |Residual|: 7.742e-05   |deigs|: 9.654e-05  t[s]:     99.06
	FillingsUpdate:  mu: -0.104490477  nElectrons: 3.000000  magneticMoment: [ Abs: 0.66005  Tot: -0.66000 ]
SCF: Cycle: 28   F: -7.050388504586440   dF: -1.815e-07   |Residual|: 5.784e-05   |deigs|: 8.120e-05  t[s]:    102.30
	FillingsUpdate:  mu: -0.104472504  nElectrons: 3.000000  magneticMoment: [ Abs: 0.66001  Tot: -0.66000 ]
SCF: Cycle: 29   F: -7.050388638862567   dF: -1.343e-07   |Residual|: 3.720e-05   |deigs|: 6.472e-05  t[s]:    105.54
	FillingsUpdate:  mu: -0.104458459  nElectrons: 3.000000  magneticMoment: [ Abs: 0.66000  Tot: -0.66000 ]
SCF: Cycle: 30   F: -7.050388633465280   dF: +5.397e-09   |Residual|: 3.153e-05   |deigs|: 5.030e-05  t[s]:    108.77
	FillingsUpdate:  mu: -0.104440075  nElectrons: 3.000000  magneticMoment: [ Abs: 0.66000  Tot: -0.66000 ]
SCF: Cycle: 31   F: -7.050388646823769   dF: -1.336e-08   |Residual|: 2.549e-05   |deigs|: 3.933e-05  t[s]:    112.07
	FillingsUpdate:  mu: -0.104424088  nElectrons: 3.000000  magneticMoment: [ Abs: 0.66003  Tot: -0.66000 ]
SCF: Cycle: 32   F: -7.050388651544391   dF: -4.721e-09   |Residual|: 1.997e-05   |deigs|: 2.938e-05  t[s]:    115.31
	FillingsUpdate:  mu: -0.104412392  nElectrons: 3.000000  magneticMoment: [ Abs: 0.66002  Tot: -0.66000 ]
SCF: Cycle: 33   F: -7.050388688539237   dF: -3.699e-08   |Residual|: 1.379e-05   |deigs|: 2.227e-05  t[s]:    118.57
	FillingsUpdate:  mu: -0.104401116  nElectrons: 3.000000  magneticMoment: [ Abs: 0.66003  Tot: -0.66000 ]
SCF: Cycle: 34   F: -7.050388717743200   dF: -2.920e-08   |Residual|: 1.031e-05   |deigs|: 1.794e-05  t[s]:    121.77
	FillingsUpdate:  mu: -0.104391766  nElectrons: 3.000000  magneticMoment: [ Abs: 0.66002  Tot: -0.66000 ]
SCF: Cycle: 35   F: -7.050388717458586   dF: +2.846e-10   |Residual|: 8.659e-06   |deigs|: 1.381e-05  t[s]:    124.96
	FillingsUpdate:  mu: -0.104380353  nElectrons: 3.000000  magneticMoment: [ Abs: 0.66002  Tot: -0.66000 ]
SCF: Cycle: 36   F: -7.050388719558878   dF: -2.100e-09   |Residual|: 7.651e-06   |deigs|: 1.405e-05  t[s]:    128.21
	FillingsUpdate:  mu: -0.104368546  nElectrons: 3.000000  magneticMoment: [ Abs: 0.66001  Tot: -0.66000 ]
SCF: Cycle: 37   F: -7.050388724109963   dF: -4.551e-09   |Residual|: 6.623e-06   |deigs|: 1.347e-05  t[s]:    131.42
SCF: Converged (|Delta E|<1.000000e-08 for 2 iters).


# Ionic positions in lattice coordinates:
ion Li   0.000000000000000   0.000000000000000   0.000000000000000 0

# Forces in Lattice coordinates:
force Li   0.000000000000000   0.000000000000000   0.000000000000000 0

# Energy components:
   Eewald =       -1.3368908222468645
       EH =        2.2133508731500116
     Eloc =       -7.5566744576556193
      Enl =       -3.6033917151532942
   Epulay =       -0.0000013080581827
      Exc =       -1.5388981207913583
       KE =        4.7721178382990672
-------------------------------------
     Etot =       -7.0503877124562404
       TS =        0.0000010116537229
-------------------------------------
        F =       -7.0503887241099630

IonicMinimize: Iter:   0  F: -7.050388724109963  |grad|_K:  0.000e+00  t[s]:    131.57
IonicMinimize: Converged (|grad|_K<1.000000e-04).

#--- Lowdin population analysis ---
# oxidation-state Li +2.083
# magnetic-moments Li -0.608

End date and time: Sat Feb  5 22:49:10 2022  (Duration: 0-0:02:11.59)
Done!
