
*************** JDFTx 1.6.0 (git hash 42ebbcc2) ***************

Start date and time: Sat Feb  5 23:07:35 2022
Executable jdftx with command-line: -i Alkali.in
Running on hosts (process indices):  d-3-7-3 (0-18)
Divided in process groups (process indices):  0 (0)  1 (1)  2 (2)  3 (3)  4 (4)  5 (5)  6 (6)  7 (7)  8 (8)  9 (9)  10 (10)  11 (11)  12 (12)  13 (13)  14 (14)  15 (15)  16 (16)  17 (17)  18 (18)
Resource initialization completed at t[s]:      0.00
Run totals: 19 processes, 48 threads, 0 GPUs


Input parsed successfully to the following command list (including defaults):

basis kpoint-dependent
coords-type Lattice
core-overlap-check vector
coulomb-interaction Slab 001
davidson-band-ratio 1.1
dump End None
dump-name $INPUT.$VAR
elec-cutoff 20
elec-eigen-algo Davidson
elec-ex-corr gga-PBE
elec-initial-magnetization 0.500000 yes
elec-smearing Fermi 1e-05
electronic-minimize  \
	dirUpdateScheme      FletcherReeves \
	linminMethod         DirUpdateRecommended \
	nIterations          100 \
	history              15 \
	knormThreshold       0 \
	energyDiffThreshold  1e-08 \
	nEnergyDiff          2 \
	alphaTstart          1 \
	alphaTmin            1e-10 \
	updateTestStepSize   yes \
	alphaTreduceFactor   0.1 \
	alphaTincreaseFactor 3 \
	nAlphaAdjustMax      3 \
	wolfeEnergy          0.0001 \
	wolfeGradient        0.9 \
	fdTest               no
electronic-scf  \
	nIterations	10000 \
	energyDiffThreshold	1e-08 \
	residualThreshold	1e-07 \
	mixFraction	0.5 \
	qMetric	0.8 \
	history	10 \
	nEigSteps	2 \
	eigDiffThreshold	1e-08 \
	mixedVariable	Density \
	qKerker	0.8 \
	qKappa	-1 \
	verbose	no \
	mixFractionMag	1.5
exchange-regularization WignerSeitzTruncated
fluid None
fluid-ex-corr (null) lda-PZ
fluid-gummel-loop 10 1.000000e-05
fluid-minimize  \
	dirUpdateScheme      PolakRibiere \
	linminMethod         DirUpdateRecommended \
	nIterations          100 \
	history              15 \
	knormThreshold       0 \
	energyDiffThreshold  0 \
	nEnergyDiff          2 \
	alphaTstart          1 \
	alphaTmin            1e-10 \
	updateTestStepSize   yes \
	alphaTreduceFactor   0.1 \
	alphaTincreaseFactor 3 \
	nAlphaAdjustMax      3 \
	wolfeEnergy          0.0001 \
	wolfeGradient        0.9 \
	fdTest               no
fluid-solvent H2O 55.338 ScalarEOS \
	epsBulk 78.4 \
	pMol 0.92466 \
	epsInf 1.77 \
	Pvap 1.06736e-10 \
	sigmaBulk 4.62e-05 \
	Rvdw 2.61727 \
	Res 1.42 \
	tauNuc 343133 \
	poleEl 15 7 1
forces-output-coords Positions
ion Li   0.000000000000000   0.000000000000000   0.000000000000000 0
ion-species SG15/$ID_ONCV_PBE.upf
ion-width 0
ionic-minimize  \
	dirUpdateScheme      L-BFGS \
	linminMethod         DirUpdateRecommended \
	nIterations          0 \
	history              15 \
	knormThreshold       0.0001 \
	energyDiffThreshold  1e-06 \
	nEnergyDiff          2 \
	alphaTstart          1 \
	alphaTmin            1e-10 \
	updateTestStepSize   yes \
	alphaTreduceFactor   0.1 \
	alphaTincreaseFactor 3 \
	nAlphaAdjustMax      3 \
	wolfeEnergy          0.0001 \
	wolfeGradient        0.9 \
	fdTest               no
kpoint   0.000000000000   0.000000000000   0.000000000000  1.00000000000000
kpoint-folding 12 12 1 
latt-move-scale 1 1 1
latt-scale 3 3 1 
lattice  \
	   4.727486978767153   -2.363743489383575    0.000000000000000  \
	  -0.000000000000000    4.094123819672498    0.000000000000000  \
	   0.000000000000000    0.000000000000000   40.000000000000000 
lattice-minimize  \
	dirUpdateScheme      L-BFGS \
	linminMethod         DirUpdateRecommended \
	nIterations          0 \
	history              15 \
	knormThreshold       0 \
	energyDiffThreshold  1e-06 \
	nEnergyDiff          2 \
	alphaTstart          1 \
	alphaTmin            1e-10 \
	updateTestStepSize   yes \
	alphaTreduceFactor   0.1 \
	alphaTincreaseFactor 3 \
	nAlphaAdjustMax      3 \
	wolfeEnergy          0.0001 \
	wolfeGradient        0.9 \
	fdTest               no
lcao-params -1 1e-06 1e-05
pcm-variant GLSSA13
spintype z-spin
subspace-rotation-factor 1 yes
symmetries automatic
symmetry-threshold 0.0001



---------- Setting up symmetries ----------

Found 24 point-group symmetries of the bravais lattice
Found 24 space-group symmetries with basis
Applied RMS atom displacement 0 bohrs to make symmetries exact.

---------- Initializing the Grid ----------
R = 
[      14.1825     -7.09123            0  ]
[            0      12.2824            0  ]
[            0            0           40  ]
unit cell volume = 6967.77
G =
[   0.443025   0.255781         -0  ]
[          0   0.511561         -0  ]
[         -0         -0    0.15708  ]
Minimum fftbox size, Smin = [  60  60  164  ]
Chosen fftbox size, S = [  60  60  168  ]

---------- Exchange Correlation functional ----------
Initalized PBE GGA exchange.
Initalized PBE GGA correlation.

---------- Setting up pseudopotentials ----------
Width of ionic core gaussian charges (only for fluid interactions / plotting) set to 0

Reading pseudopotential file '/home/gridsan/aligho/DFT/build-Nov24/pseudopotentials/SG15/Li_ONCV_PBE.upf':
  'Li' pseudopotential, 'PBE' functional
  Generated using ONCVPSP code by D. R. Hamann
  Author: Martin Schlipf and Francois Gygi  Date: 150915.
  3 valence electrons, 2 orbitals, 4 projectors, 1328 radial grid points, with lMax = 1
  Transforming local potential to a uniform radial grid of dG=0.02 with 1489 points.
  Transforming nonlocal projectors to a uniform radial grid of dG=0.02 with 432 points.
    1S    l: 0   occupation:  2.0   eigenvalue: -1.905623
    2S    l: 0   occupation:  1.0   eigenvalue: -0.105624
  Transforming atomic orbitals to a uniform radial grid of dG=0.02 with 432 points.
  WARNING: large normalization error in atomic orbital 1s (integral: 0.000000).
  Core radius for overlap checks: 1.63 bohrs.
  Reading pulay file /home/gridsan/aligho/DFT/build-Nov24/pseudopotentials/SG15/Li_ONCV_PBE.pulay ... using dE_dnG = -1.230239e-02 computed for Ecut = 20.

Initialized 1 species with 1 total atoms.

Folded 1 k-points by 12x12x1 to 144 k-points.

---------- Setting up k-points, bands, fillings ----------
Reduced to 19 k-points under symmetry. 
Computing the number of bands and number of electrons
Calculating initial fillings.
nElectrons:   3.000000   nBands: 3   nStates: 38

----- Setting up reduced wavefunction bases (one per k-point) -----
average nbasis = 29766.104 , ideal nbasis = 29766.845

---------- Setting up coulomb interaction ----------
Initialized slab truncation along lattice direction 001

---------- Setting up 2D ewald sum ----------
Optimum gaussian width for ewald sums = 7.873530 bohr.
Real space sums over 289 unit cells with max indices [  8  8  0  ]
Reciprocal space sums over 81 terms with max indices [  4  4  0  ]

---------- Allocating electronic variables ----------
Initializing wave functions:  linear combination of atomic orbitals
Note: number of bands (3) exceeds available atomic orbitals (2)
Li pseudo-atom occupations:   s ( 2 1 )
	FillingsUpdate:  mu: +0.348889573  nElectrons: 3.000000  magneticMoment: [ Abs: 0.50000  Tot: +0.50000 ]
LCAOMinimize: Iter:   0  F: -1.2877563001249985  |grad|_K:  4.805e-05  alpha:  1.000e+00
	FillingsUpdate:  mu: +0.355800160  nElectrons: 3.000000  magneticMoment: [ Abs: 0.50000  Tot: +0.50000 ]
LCAOMinimize: Iter:   1  F: -1.2877567177506586  |grad|_K:  4.224e-07  alpha:  1.058e+00  linmin: -1.435e-03  cgtest:  1.083e-02  t[s]:      7.50
LCAOMinimize: Encountered beta<0, resetting CG.
	FillingsUpdate:  mu: +0.348893611  nElectrons: 3.000000  magneticMoment: [ Abs: 0.50000  Tot: +0.50000 ]
LCAOMinimize: Iter:   2  F: -1.2877567177815059  |grad|_K:  1.978e-08  alpha:  1.047e+00  linmin:  1.442e-02  cgtest: -7.510e-01  t[s]:      9.54
LCAOMinimize: Converged (|Delta F|<1.000000e-06 for 2 iters).


---- Citations for features of the code used in this run ----

   Software package:
      R. Sundararaman, K. Letchworth-Weaver, K.A. Schwarz, D. Gunceler, Y. Ozhabes and T.A. Arias, 'JDFTx: software for joint density-functional theory', SoftwareX 6, 278 (2017)

   gga-PBE exchange-correlation functional:
      J.P. Perdew, K. Burke and M. Ernzerhof, Phys. Rev. Lett. 77, 3865 (1996)

   Pseudopotentials:
      M Schlipf and F Gygi, Comput. Phys. Commun. 196, 36 (2015)

   Truncated Coulomb potentials:
      R. Sundararaman and T.A. Arias, Phys. Rev. B 87, 165122 (2013)

This list may not be complete. Please suggest additional citations or
report any other bugs at https://github.com/shankar1729/jdftx/issues

Initialization completed successfully at t[s]:      9.63


-------- Electronic minimization -----------
Will mix electronic density at each iteration.
	FillingsUpdate:  mu: +0.348893611  nElectrons: 3.000000  magneticMoment: [ Abs: 0.50000  Tot: +0.50000 ]
	FillingsUpdate:  mu: -0.695833206  nElectrons: 3.000000  magneticMoment: [ Abs: 0.50000  Tot: +0.50000 ]
SCF: Cycle:  0   F: -6.874116047811809   dF: -5.586e+00   |Residual|: 1.225e+00   |deigs|: 4.156e+00  t[s]:     12.97
	FillingsUpdate:  mu: -0.569372408  nElectrons: 3.000000  magneticMoment: [ Abs: 0.80336  Tot: +0.50000 ]
SCF: Cycle:  1   F: -6.917249545834744   dF: -4.313e-02   |Residual|: 7.632e-01   |deigs|: 2.743e-01  t[s]:     15.69
	FillingsUpdate:  mu: -0.357978528  nElectrons: 3.000000  magneticMoment: [ Abs: 1.09427  Tot: +0.50000 ]
SCF: Cycle:  2   F: -7.038961673522471   dF: -1.217e-01   |Residual|: 3.308e-01   |deigs|: 7.090e-01  t[s]:     18.42
	FillingsUpdate:  mu: -0.368028576  nElectrons: 3.000000  magneticMoment: [ Abs: 1.00007  Tot: +0.50000 ]
SCF: Cycle:  3   F: -7.040485324240841   dF: -1.524e-03   |Residual|: 1.864e-01   |deigs|: 7.865e-02  t[s]:     21.25
	FillingsUpdate:  mu: -0.328109697  nElectrons: 3.000000  magneticMoment: [ Abs: 0.87192  Tot: +0.50000 ]
SCF: Cycle:  4   F: -7.042044779664302   dF: -1.559e-03   |Residual|: 4.167e-02   |deigs|: 3.111e-02  t[s]:     24.11
	FillingsUpdate:  mu: -0.310997538  nElectrons: 3.000000  magneticMoment: [ Abs: 0.81215  Tot: +0.50000 ]
SCF: Cycle:  5   F: -7.041745742978467   dF: +2.990e-04   |Residual|: 8.944e-02   |deigs|: 1.693e-02  t[s]:     27.03
	FillingsUpdate:  mu: -0.271199700  nElectrons: 3.000000  magneticMoment: [ Abs: 0.64751  Tot: +0.50000 ]
SCF: Cycle:  6   F: -7.044860534900775   dF: -3.115e-03   |Residual|: 5.006e-02   |deigs|: 7.504e-02  t[s]:     30.00
	FillingsUpdate:  mu: -0.250930134  nElectrons: 3.000000  magneticMoment: [ Abs: 0.59826  Tot: +0.50000 ]
SCF: Cycle:  7   F: -7.046365513943207   dF: -1.505e-03   |Residual|: 7.648e-02   |deigs|: 5.812e-02  t[s]:     33.05
	FillingsUpdate:  mu: -0.252108430  nElectrons: 3.000000  magneticMoment: [ Abs: 0.56710  Tot: +0.50000 ]
SCF: Cycle:  8   F: -7.046359291645359   dF: +6.222e-06   |Residual|: 7.026e-02   |deigs|: 7.263e-03  t[s]:     36.23
	FillingsUpdate:  mu: -0.226978655  nElectrons: 3.000000  magneticMoment: [ Abs: 0.57971  Tot: +0.50000 ]
SCF: Cycle:  9   F: -7.047302410511431   dF: -9.431e-04   |Residual|: 7.742e-02   |deigs|: 4.417e-02  t[s]:     39.37
	FillingsUpdate:  mu: -0.196152232  nElectrons: 3.000000  magneticMoment: [ Abs: 0.62578  Tot: +0.50000 ]
SCF: Cycle: 10   F: -7.047998761630503   dF: -6.964e-04   |Residual|: 3.003e-02   |deigs|: 4.091e-02  t[s]:     42.65
	FillingsUpdate:  mu: -0.177540498  nElectrons: 3.000000  magneticMoment: [ Abs: 0.65374  Tot: +0.50000 ]
SCF: Cycle: 11   F: -7.048393618810247   dF: -3.949e-04   |Residual|: 2.158e-02   |deigs|: 2.297e-02  t[s]:     45.92
	FillingsUpdate:  mu: -0.169484097  nElectrons: 3.000000  magneticMoment: [ Abs: 0.65341  Tot: +0.50000 ]
SCF: Cycle: 12   F: -7.048620643272019   dF: -2.270e-04   |Residual|: 1.024e-02   |deigs|: 6.582e-03  t[s]:     49.12
	FillingsUpdate:  mu: -0.145588030  nElectrons: 3.000000  magneticMoment: [ Abs: 0.65465  Tot: +0.50000 ]
SCF: Cycle: 13   F: -7.048496156909208   dF: +1.245e-04   |Residual|: 7.830e-03   |deigs|: 2.513e-02  t[s]:     52.34
	FillingsUpdate:  mu: -0.135084461  nElectrons: 3.000000  magneticMoment: [ Abs: 0.63539  Tot: +0.50000 ]
SCF: Cycle: 14   F: -7.048433263615532   dF: +6.289e-05   |Residual|: 6.971e-03   |deigs|: 9.795e-03  t[s]:     55.56
	FillingsUpdate:  mu: -0.123126381  nElectrons: 3.000000  magneticMoment: [ Abs: 0.60287  Tot: +0.50000 ]
SCF: Cycle: 15   F: -7.048505834186246   dF: -7.257e-05   |Residual|: 6.157e-03   |deigs|: 1.223e-02  t[s]:     58.77
	FillingsUpdate:  mu: -0.114736740  nElectrons: 3.000000  magneticMoment: [ Abs: 0.57081  Tot: +0.50000 ]
SCF: Cycle: 16   F: -7.048749016169148   dF: -2.432e-04   |Residual|: 4.375e-03   |deigs|: 8.747e-03  t[s]:     61.94
	FillingsUpdate:  mu: -0.107697886  nElectrons: 3.000000  magneticMoment: [ Abs: 0.54646  Tot: +0.50000 ]
SCF: Cycle: 17   F: -7.048951628470109   dF: -2.026e-04   |Residual|: 2.836e-03   |deigs|: 8.024e-03  t[s]:     65.25
	FillingsUpdate:  mu: -0.106252650  nElectrons: 3.000000  magneticMoment: [ Abs: 0.53079  Tot: +0.50000 ]
SCF: Cycle: 18   F: -7.049027752422405   dF: -7.612e-05   |Residual|: 1.857e-03   |deigs|: 2.134e-03  t[s]:     68.44
	FillingsUpdate:  mu: -0.105682489  nElectrons: 3.000000  magneticMoment: [ Abs: 0.52170  Tot: +0.50000 ]
SCF: Cycle: 19   F: -7.049069935850704   dF: -4.218e-05   |Residual|: 1.190e-03   |deigs|: 8.357e-04  t[s]:     71.72
	FillingsUpdate:  mu: -0.105286019  nElectrons: 3.000000  magneticMoment: [ Abs: 0.51626  Tot: +0.50000 ]
SCF: Cycle: 20   F: -7.049087835513149   dF: -1.790e-05   |Residual|: 5.449e-04   |deigs|: 3.874e-04  t[s]:     74.95
	FillingsUpdate:  mu: -0.105168677  nElectrons: 3.000000  magneticMoment: [ Abs: 0.51302  Tot: +0.50000 ]
SCF: Cycle: 21   F: -7.049091967145277   dF: -4.132e-06   |Residual|: 3.888e-04   |deigs|: 1.798e-04  t[s]:     78.11
	FillingsUpdate:  mu: -0.105275128  nElectrons: 3.000000  magneticMoment: [ Abs: 0.51007  Tot: +0.50000 ]
SCF: Cycle: 22   F: -7.049093107674665   dF: -1.141e-06   |Residual|: 3.156e-04   |deigs|: 1.465e-04  t[s]:     81.31
	FillingsUpdate:  mu: -0.105442113  nElectrons: 3.000000  magneticMoment: [ Abs: 0.50636  Tot: +0.50000 ]
SCF: Cycle: 23   F: -7.049094032992387   dF: -9.253e-07   |Residual|: 2.428e-04   |deigs|: 1.958e-04  t[s]:     84.52
	FillingsUpdate:  mu: -0.105626277  nElectrons: 3.000000  magneticMoment: [ Abs: 0.50445  Tot: +0.50000 ]
SCF: Cycle: 24   F: -7.049094571861406   dF: -5.389e-07   |Residual|: 1.882e-04   |deigs|: 2.033e-04  t[s]:     87.74
	FillingsUpdate:  mu: -0.105778837  nElectrons: 3.000000  magneticMoment: [ Abs: 0.50309  Tot: +0.50000 ]
SCF: Cycle: 25   F: -7.049094624991809   dF: -5.313e-08   |Residual|: 1.535e-04   |deigs|: 1.957e-04  t[s]:     90.88
	FillingsUpdate:  mu: -0.105972657  nElectrons: 3.000000  magneticMoment: [ Abs: 0.50143  Tot: +0.50000 ]
SCF: Cycle: 26   F: -7.049094724073282   dF: -9.908e-08   |Residual|: 1.045e-04   |deigs|: 2.501e-04  t[s]:     94.06
	FillingsUpdate:  mu: -0.106037344  nElectrons: 3.000000  magneticMoment: [ Abs: 0.50074  Tot: +0.50000 ]
SCF: Cycle: 27   F: -7.049094942125610   dF: -2.181e-07   |Residual|: 7.045e-05   |deigs|: 1.320e-04  t[s]:     97.25
	FillingsUpdate:  mu: -0.106022655  nElectrons: 3.000000  magneticMoment: [ Abs: 0.50035  Tot: +0.50000 ]
SCF: Cycle: 28   F: -7.049095026511938   dF: -8.439e-08   |Residual|: 4.628e-05   |deigs|: 9.142e-05  t[s]:    100.42
	FillingsUpdate:  mu: -0.105990182  nElectrons: 3.000000  magneticMoment: [ Abs: 0.50020  Tot: +0.50000 ]
SCF: Cycle: 29   F: -7.049095051622742   dF: -2.511e-08   |Residual|: 3.862e-05   |deigs|: 8.499e-05  t[s]:    103.69
	FillingsUpdate:  mu: -0.105927837  nElectrons: 3.000000  magneticMoment: [ Abs: 0.50009  Tot: +0.50000 ]
SCF: Cycle: 30   F: -7.049095043464130   dF: +8.159e-09   |Residual|: 3.131e-05   |deigs|: 8.675e-05  t[s]:    106.93
	FillingsUpdate:  mu: -0.105880773  nElectrons: 3.000000  magneticMoment: [ Abs: 0.50007  Tot: +0.50000 ]
SCF: Cycle: 31   F: -7.049095050740957   dF: -7.277e-09   |Residual|: 2.729e-05   |deigs|: 6.709e-05  t[s]:    110.21
	FillingsUpdate:  mu: -0.105843998  nElectrons: 3.000000  magneticMoment: [ Abs: 0.50002  Tot: +0.50000 ]
SCF: Cycle: 32   F: -7.049095065316206   dF: -1.458e-08   |Residual|: 2.292e-05   |deigs|: 5.307e-05  t[s]:    113.42
	FillingsUpdate:  mu: -0.105819168  nElectrons: 3.000000  magneticMoment: [ Abs: 0.50000  Tot: +0.50000 ]
SCF: Cycle: 33   F: -7.049095080825901   dF: -1.551e-08   |Residual|: 1.728e-05   |deigs|: 3.808e-05  t[s]:    116.60
	FillingsUpdate:  mu: -0.105800738  nElectrons: 3.000000  magneticMoment: [ Abs: 0.50000  Tot: +0.50000 ]
SCF: Cycle: 34   F: -7.049095088122543   dF: -7.297e-09   |Residual|: 1.336e-05   |deigs|: 2.720e-05  t[s]:    119.81
	FillingsUpdate:  mu: -0.105788349  nElectrons: 3.000000  magneticMoment: [ Abs: 0.50000  Tot: +0.50000 ]
SCF: Cycle: 35   F: -7.049095091288256   dF: -3.166e-09   |Residual|: 1.006e-05   |deigs|: 1.897e-05  t[s]:    123.05
SCF: Converged (|Delta E|<1.000000e-08 for 2 iters).


# Ionic positions in lattice coordinates:
ion Li   0.000000000000000   0.000000000000000   0.000000000000000 0

# Forces in Lattice coordinates:
force Li   0.000000000000000   0.000000000000000   0.000000000000000 0

# Energy components:
   Eewald =       -1.3368908222468645
       EH =        2.2056902173546113
     Eloc =       -7.5469215251691573
      Enl =       -3.6022118321153487
   Epulay =       -0.0000013080581827
      Exc =       -1.5352518545181248
       KE =        4.7664924838474185
-------------------------------------
     Etot =       -7.0490946409056470
       TS =        0.0000004503826086
-------------------------------------
        F =       -7.0490950912882555

IonicMinimize: Iter:   0  F: -7.049095091288256  |grad|_K:  0.000e+00  t[s]:    123.19
IonicMinimize: Converged (|grad|_K<1.000000e-04).

#--- Lowdin population analysis ---
# oxidation-state Li +2.093
# magnetic-moments Li +0.461

End date and time: Sat Feb  5 23:09:38 2022  (Duration: 0-0:02:03.21)
Done!
