
*************** JDFTx 1.6.0 (git hash 42ebbcc2) ***************

Start date and time: Sat Feb  5 22:46:57 2022
Executable jdftx with command-line: -i Alkali.in
Running on hosts (process indices):  d-6-13-4 (0-18)
Divided in process groups (process indices):  0 (0)  1 (1)  2 (2)  3 (3)  4 (4)  5 (5)  6 (6)  7 (7)  8 (8)  9 (9)  10 (10)  11 (11)  12 (12)  13 (13)  14 (14)  15 (15)  16 (16)  17 (17)  18 (18)
Resource initialization completed at t[s]:      0.00
Run totals: 19 processes, 48 threads, 0 GPUs


Input parsed successfully to the following command list (including defaults):

basis kpoint-dependent
coords-type Lattice
core-overlap-check vector
coulomb-interaction Slab 001
davidson-band-ratio 1.1
dump End None
dump-name $INPUT.$VAR
elec-cutoff 20
elec-eigen-algo Davidson
elec-ex-corr gga-PBE
elec-initial-magnetization -0.680000 yes
elec-smearing Fermi 1e-05
electronic-minimize  \
	dirUpdateScheme      FletcherReeves \
	linminMethod         DirUpdateRecommended \
	nIterations          100 \
	history              15 \
	knormThreshold       0 \
	energyDiffThreshold  1e-08 \
	nEnergyDiff          2 \
	alphaTstart          1 \
	alphaTmin            1e-10 \
	updateTestStepSize   yes \
	alphaTreduceFactor   0.1 \
	alphaTincreaseFactor 3 \
	nAlphaAdjustMax      3 \
	wolfeEnergy          0.0001 \
	wolfeGradient        0.9 \
	fdTest               no
electronic-scf  \
	nIterations	10000 \
	energyDiffThreshold	1e-08 \
	residualThreshold	1e-07 \
	mixFraction	0.5 \
	qMetric	0.8 \
	history	10 \
	nEigSteps	2 \
	eigDiffThreshold	1e-08 \
	mixedVariable	Density \
	qKerker	0.8 \
	qKappa	-1 \
	verbose	no \
	mixFractionMag	1.5
exchange-regularization WignerSeitzTruncated
fluid None
fluid-ex-corr (null) lda-PZ
fluid-gummel-loop 10 1.000000e-05
fluid-minimize  \
	dirUpdateScheme      PolakRibiere \
	linminMethod         DirUpdateRecommended \
	nIterations          100 \
	history              15 \
	knormThreshold       0 \
	energyDiffThreshold  0 \
	nEnergyDiff          2 \
	alphaTstart          1 \
	alphaTmin            1e-10 \
	updateTestStepSize   yes \
	alphaTreduceFactor   0.1 \
	alphaTincreaseFactor 3 \
	nAlphaAdjustMax      3 \
	wolfeEnergy          0.0001 \
	wolfeGradient        0.9 \
	fdTest               no
fluid-solvent H2O 55.338 ScalarEOS \
	epsBulk 78.4 \
	pMol 0.92466 \
	epsInf 1.77 \
	Pvap 1.06736e-10 \
	sigmaBulk 4.62e-05 \
	Rvdw 2.61727 \
	Res 1.42 \
	tauNuc 343133 \
	poleEl 15 7 1
forces-output-coords Positions
ion Li   0.000000000000000   0.000000000000000   0.000000000000000 0
ion-species SG15/$ID_ONCV_PBE.upf
ion-width 0
ionic-minimize  \
	dirUpdateScheme      L-BFGS \
	linminMethod         DirUpdateRecommended \
	nIterations          0 \
	history              15 \
	knormThreshold       0.0001 \
	energyDiffThreshold  1e-06 \
	nEnergyDiff          2 \
	alphaTstart          1 \
	alphaTmin            1e-10 \
	updateTestStepSize   yes \
	alphaTreduceFactor   0.1 \
	alphaTincreaseFactor 3 \
	nAlphaAdjustMax      3 \
	wolfeEnergy          0.0001 \
	wolfeGradient        0.9 \
	fdTest               no
kpoint   0.000000000000   0.000000000000   0.000000000000  1.00000000000000
kpoint-folding 12 12 1 
latt-move-scale 1 1 1
latt-scale 3 3 1 
lattice  \
	   4.727486978767153   -2.363743489383575    0.000000000000000  \
	  -0.000000000000000    4.094123819672498    0.000000000000000  \
	   0.000000000000000    0.000000000000000   40.000000000000000 
lattice-minimize  \
	dirUpdateScheme      L-BFGS \
	linminMethod         DirUpdateRecommended \
	nIterations          0 \
	history              15 \
	knormThreshold       0 \
	energyDiffThreshold  1e-06 \
	nEnergyDiff          2 \
	alphaTstart          1 \
	alphaTmin            1e-10 \
	updateTestStepSize   yes \
	alphaTreduceFactor   0.1 \
	alphaTincreaseFactor 3 \
	nAlphaAdjustMax      3 \
	wolfeEnergy          0.0001 \
	wolfeGradient        0.9 \
	fdTest               no
lcao-params -1 1e-06 1e-05
pcm-variant GLSSA13
spintype z-spin
subspace-rotation-factor 1 yes
symmetries automatic
symmetry-threshold 0.0001



---------- Setting up symmetries ----------

Found 24 point-group symmetries of the bravais lattice
Found 24 space-group symmetries with basis
Applied RMS atom displacement 0 bohrs to make symmetries exact.

---------- Initializing the Grid ----------
R = 
[      14.1825     -7.09123            0  ]
[            0      12.2824            0  ]
[            0            0           40  ]
unit cell volume = 6967.77
G =
[   0.443025   0.255781         -0  ]
[          0   0.511561         -0  ]
[         -0         -0    0.15708  ]
Minimum fftbox size, Smin = [  60  60  164  ]
Chosen fftbox size, S = [  60  60  168  ]

---------- Exchange Correlation functional ----------
Initalized PBE GGA exchange.
Initalized PBE GGA correlation.

---------- Setting up pseudopotentials ----------
Width of ionic core gaussian charges (only for fluid interactions / plotting) set to 0

Reading pseudopotential file '/home/gridsan/aligho/DFT/build-Nov24/pseudopotentials/SG15/Li_ONCV_PBE.upf':
  'Li' pseudopotential, 'PBE' functional
  Generated using ONCVPSP code by D. R. Hamann
  Author: Martin Schlipf and Francois Gygi  Date: 150915.
  3 valence electrons, 2 orbitals, 4 projectors, 1328 radial grid points, with lMax = 1
  Transforming local potential to a uniform radial grid of dG=0.02 with 1489 points.
  Transforming nonlocal projectors to a uniform radial grid of dG=0.02 with 432 points.
    1S    l: 0   occupation:  2.0   eigenvalue: -1.905623
    2S    l: 0   occupation:  1.0   eigenvalue: -0.105624
  Transforming atomic orbitals to a uniform radial grid of dG=0.02 with 432 points.
  WARNING: large normalization error in atomic orbital 1s (integral: 0.000000).
  Core radius for overlap checks: 1.63 bohrs.
  Reading pulay file /home/gridsan/aligho/DFT/build-Nov24/pseudopotentials/SG15/Li_ONCV_PBE.pulay ... using dE_dnG = -1.230239e-02 computed for Ecut = 20.

Initialized 1 species with 1 total atoms.

Folded 1 k-points by 12x12x1 to 144 k-points.

---------- Setting up k-points, bands, fillings ----------
Reduced to 19 k-points under symmetry. 
Computing the number of bands and number of electrons
Calculating initial fillings.
nElectrons:   3.000000   nBands: 3   nStates: 38

----- Setting up reduced wavefunction bases (one per k-point) -----
average nbasis = 29766.104 , ideal nbasis = 29766.845

---------- Setting up coulomb interaction ----------
Initialized slab truncation along lattice direction 001

---------- Setting up 2D ewald sum ----------
Optimum gaussian width for ewald sums = 7.873530 bohr.
Real space sums over 289 unit cells with max indices [  8  8  0  ]
Reciprocal space sums over 81 terms with max indices [  4  4  0  ]

---------- Allocating electronic variables ----------
Initializing wave functions:  linear combination of atomic orbitals
Note: number of bands (3) exceeds available atomic orbitals (2)
Li pseudo-atom occupations:   s ( 2 1 )
	FillingsUpdate:  mu: +0.349850623  nElectrons: 3.000000  magneticMoment: [ Abs: 0.68000  Tot: -0.68000 ]
LCAOMinimize: Iter:   0  F: -1.2825566249330032  |grad|_K:  4.581e-05  alpha:  1.000e+00
LCAOMinimize: 	Wrong curvature in test step, increasing alphaT to 3.000000e+00.
	FillingsUpdate:  mu: +0.350196298  nElectrons: 3.000000  magneticMoment: [ Abs: 0.68001  Tot: -0.68000 ]
LCAOMinimize: Iter:   1  F: -1.2825758853673459  |grad|_K:  2.712e-06  alpha: -1.935e-02  linmin: -1.610e-01  cgtest:  9.787e-01  t[s]:      7.51
LCAOMinimize: Encountered beta<0, resetting CG.
	FillingsUpdate:  mu: +0.350196269  nElectrons: 3.000000  magneticMoment: [ Abs: 0.68001  Tot: -0.68000 ]
LCAOMinimize: Iter:   2  F: -1.2825758866995085  |grad|_K:  2.896e-08  alpha:  1.058e+00  linmin:  1.667e-03  cgtest: -3.823e-02  t[s]:      9.55
LCAOMinimize: 	Step increased F by 2.079004e-12, reducing alpha to 9.098371e-03.
	FillingsUpdate:  mu: +0.350196269  nElectrons: 3.000000  magneticMoment: [ Abs: 0.68001  Tot: -0.68000 ]
LCAOMinimize: Iter:   3  F: -1.2825758866999770  |grad|_K:  2.871e-08  alpha:  9.098e-03  linmin: -8.108e-03  cgtest:  1.000e+00  t[s]:     12.73
LCAOMinimize: Encountered beta<0, resetting CG.
LCAOMinimize: Converged (|Delta F|<1.000000e-06 for 2 iters).


---- Citations for features of the code used in this run ----

   Software package:
      R. Sundararaman, K. Letchworth-Weaver, K.A. Schwarz, D. Gunceler, Y. Ozhabes and T.A. Arias, 'JDFTx: software for joint density-functional theory', SoftwareX 6, 278 (2017)

   gga-PBE exchange-correlation functional:
      J.P. Perdew, K. Burke and M. Ernzerhof, Phys. Rev. Lett. 77, 3865 (1996)

   Pseudopotentials:
      M Schlipf and F Gygi, Comput. Phys. Commun. 196, 36 (2015)

   Truncated Coulomb potentials:
      R. Sundararaman and T.A. Arias, Phys. Rev. B 87, 165122 (2013)

This list may not be complete. Please suggest additional citations or
report any other bugs at https://github.com/shankar1729/jdftx/issues

Initialization completed successfully at t[s]:     12.82


-------- Electronic minimization -----------
Will mix electronic density at each iteration.
	FillingsUpdate:  mu: +0.350196269  nElectrons: 3.000000  magneticMoment: [ Abs: 0.68001  Tot: -0.68000 ]
	FillingsUpdate:  mu: -0.696463357  nElectrons: 3.000000  magneticMoment: [ Abs: 0.68001  Tot: -0.68000 ]
SCF: Cycle:  0   F: -6.882514958798163   dF: -5.600e+00   |Residual|: 1.224e+00   |deigs|: 4.156e+00  t[s]:     16.28
	FillingsUpdate:  mu: -0.569823591  nElectrons: 3.000000  magneticMoment: [ Abs: 1.07687  Tot: -0.68000 ]
SCF: Cycle:  1   F: -6.918366858144183   dF: -3.585e-02   |Residual|: 7.644e-01   |deigs|: 2.736e-01  t[s]:     19.03
	FillingsUpdate:  mu: -0.371045344  nElectrons: 3.000000  magneticMoment: [ Abs: 1.48311  Tot: -0.68000 ]
SCF: Cycle:  2   F: -7.038569154599674   dF: -1.202e-01   |Residual|: 3.308e-01   |deigs|: 7.080e-01  t[s]:     21.81
	FillingsUpdate:  mu: -0.378951534  nElectrons: 3.000000  magneticMoment: [ Abs: 1.32637  Tot: -0.68000 ]
SCF: Cycle:  3   F: -7.040160972704094   dF: -1.592e-03   |Residual|: 1.715e-01   |deigs|: 8.629e-02  t[s]:     24.68
	FillingsUpdate:  mu: -0.328857954  nElectrons: 3.000000  magneticMoment: [ Abs: 1.10786  Tot: -0.68000 ]
SCF: Cycle:  4   F: -7.043840779191275   dF: -3.680e-03   |Residual|: 3.977e-02   |deigs|: 4.202e-02  t[s]:     27.56
	FillingsUpdate:  mu: -0.309646620  nElectrons: 3.000000  magneticMoment: [ Abs: 1.02941  Tot: -0.68000 ]
SCF: Cycle:  5   F: -7.044017475205049   dF: -1.767e-04   |Residual|: 7.633e-02   |deigs|: 1.822e-02  t[s]:     30.55
	FillingsUpdate:  mu: -0.276786197  nElectrons: 3.000000  magneticMoment: [ Abs: 0.84005  Tot: -0.68000 ]
SCF: Cycle:  6   F: -7.045958708711802   dF: -1.941e-03   |Residual|: 3.564e-02   |deigs|: 6.351e-02  t[s]:     33.60
	FillingsUpdate:  mu: -0.260277290  nElectrons: 3.000000  magneticMoment: [ Abs: 0.81015  Tot: -0.68000 ]
SCF: Cycle:  7   F: -7.047639070200423   dF: -1.680e-03   |Residual|: 4.498e-02   |deigs|: 4.083e-02  t[s]:     36.73
	FillingsUpdate:  mu: -0.256670135  nElectrons: 3.000000  magneticMoment: [ Abs: 0.77609  Tot: -0.68000 ]
SCF: Cycle:  8   F: -7.048013467247309   dF: -3.744e-04   |Residual|: 4.862e-02   |deigs|: 3.348e-03  t[s]:     39.88
	FillingsUpdate:  mu: -0.233027680  nElectrons: 3.000000  magneticMoment: [ Abs: 0.74737  Tot: -0.68000 ]
SCF: Cycle:  9   F: -7.049121007132237   dF: -1.108e-03   |Residual|: 1.813e-02   |deigs|: 2.061e-02  t[s]:     43.12
	FillingsUpdate:  mu: -0.205631228  nElectrons: 3.000000  magneticMoment: [ Abs: 0.81266  Tot: -0.68000 ]
SCF: Cycle: 10   F: -7.049509357945843   dF: -3.884e-04   |Residual|: 6.183e-02   |deigs|: 2.219e-02  t[s]:     46.42
	FillingsUpdate:  mu: -0.188481259  nElectrons: 3.000000  magneticMoment: [ Abs: 0.85662  Tot: -0.68000 ]
SCF: Cycle: 11   F: -7.049814582266949   dF: -3.052e-04   |Residual|: 1.327e-02   |deigs|: 2.593e-02  t[s]:     49.65
	FillingsUpdate:  mu: -0.173906838  nElectrons: 3.000000  magneticMoment: [ Abs: 0.86747  Tot: -0.68000 ]
SCF: Cycle: 12   F: -7.050020450771674   dF: -2.059e-04   |Residual|: 1.033e-02   |deigs|: 1.616e-02  t[s]:     53.01
	FillingsUpdate:  mu: -0.147738478  nElectrons: 3.000000  magneticMoment: [ Abs: 0.86065  Tot: -0.68000 ]
SCF: Cycle: 13   F: -7.049837522113178   dF: +1.829e-04   |Residual|: 7.992e-03   |deigs|: 2.772e-02  t[s]:     56.33
	FillingsUpdate:  mu: -0.136879923  nElectrons: 3.000000  magneticMoment: [ Abs: 0.82995  Tot: -0.68000 ]
SCF: Cycle: 14   F: -7.049850116873743   dF: -1.259e-05   |Residual|: 7.405e-03   |deigs|: 1.101e-02  t[s]:     59.67
	FillingsUpdate:  mu: -0.123421539  nElectrons: 3.000000  magneticMoment: [ Abs: 0.80028  Tot: -0.68000 ]
SCF: Cycle: 15   F: -7.049971826396886   dF: -1.217e-04   |Residual|: 6.474e-03   |deigs|: 1.411e-02  t[s]:     62.97
	FillingsUpdate:  mu: -0.113991709  nElectrons: 3.000000  magneticMoment: [ Abs: 0.76591  Tot: -0.68000 ]
SCF: Cycle: 16   F: -7.050198834741143   dF: -2.270e-04   |Residual|: 4.578e-03   |deigs|: 1.007e-02  t[s]:     66.20
	FillingsUpdate:  mu: -0.105565348  nElectrons: 3.000000  magneticMoment: [ Abs: 0.73088  Tot: -0.68000 ]
SCF: Cycle: 17   F: -7.050454776964928   dF: -2.559e-04   |Residual|: 3.051e-03   |deigs|: 9.938e-03  t[s]:     69.54
	FillingsUpdate:  mu: -0.104374142  nElectrons: 3.000000  magneticMoment: [ Abs: 0.71550  Tot: -0.68000 ]
SCF: Cycle: 18   F: -7.050523642774187   dF: -6.887e-05   |Residual|: 2.106e-03   |deigs|: 1.580e-03  t[s]:     72.86
	FillingsUpdate:  mu: -0.103916288  nElectrons: 3.000000  magneticMoment: [ Abs: 0.70445  Tot: -0.68000 ]
SCF: Cycle: 19   F: -7.050557755406287   dF: -3.411e-05   |Residual|: 1.264e-03   |deigs|: 8.333e-04  t[s]:     76.28
	FillingsUpdate:  mu: -0.103663091  nElectrons: 3.000000  magneticMoment: [ Abs: 0.69947  Tot: -0.68000 ]
SCF: Cycle: 20   F: -7.050572117944874   dF: -1.436e-05   |Residual|: 8.324e-04   |deigs|: 4.634e-04  t[s]:     79.60
	FillingsUpdate:  mu: -0.103556256  nElectrons: 3.000000  magneticMoment: [ Abs: 0.69485  Tot: -0.68000 ]
SCF: Cycle: 21   F: -7.050581411711221   dF: -9.294e-06   |Residual|: 4.809e-04   |deigs|: 2.077e-04  t[s]:     82.88
	FillingsUpdate:  mu: -0.103558141  nElectrons: 3.000000  magneticMoment: [ Abs: 0.69174  Tot: -0.68000 ]
SCF: Cycle: 22   F: -7.050583439137831   dF: -2.027e-06   |Residual|: 3.616e-04   |deigs|: 1.868e-04  t[s]:     86.14
	FillingsUpdate:  mu: -0.103672660  nElectrons: 3.000000  magneticMoment: [ Abs: 0.68803  Tot: -0.68000 ]
SCF: Cycle: 23   F: -7.050583959100897   dF: -5.200e-07   |Residual|: 2.884e-04   |deigs|: 2.179e-04  t[s]:     89.46
	FillingsUpdate:  mu: -0.103866734  nElectrons: 3.000000  magneticMoment: [ Abs: 0.68447  Tot: -0.68000 ]
SCF: Cycle: 24   F: -7.050584205550352   dF: -2.464e-07   |Residual|: 2.317e-04   |deigs|: 2.288e-04  t[s]:     92.73
	FillingsUpdate:  mu: -0.103972076  nElectrons: 3.000000  magneticMoment: [ Abs: 0.68254  Tot: -0.68000 ]
SCF: Cycle: 25   F: -7.050584462314288   dF: -2.568e-07   |Residual|: 1.837e-04   |deigs|: 2.021e-04  t[s]:     96.03
	FillingsUpdate:  mu: -0.104153219  nElectrons: 3.000000  magneticMoment: [ Abs: 0.68047  Tot: -0.68000 ]
SCF: Cycle: 26   F: -7.050584764022750   dF: -3.017e-07   |Residual|: 1.170e-04   |deigs|: 2.431e-04  t[s]:     99.29
	FillingsUpdate:  mu: -0.104229169  nElectrons: 3.000000  magneticMoment: [ Abs: 0.68031  Tot: -0.68000 ]
SCF: Cycle: 27   F: -7.050585026837598   dF: -2.628e-07   |Residual|: 7.346e-05   |deigs|: 1.512e-04  t[s]:    102.59
	FillingsUpdate:  mu: -0.104234489  nElectrons: 3.000000  magneticMoment: [ Abs: 0.68005  Tot: -0.68000 ]
SCF: Cycle: 28   F: -7.050585155279681   dF: -1.284e-07   |Residual|: 5.455e-05   |deigs|: 9.417e-05  t[s]:    105.88
	FillingsUpdate:  mu: -0.104236705  nElectrons: 3.000000  magneticMoment: [ Abs: 0.68001  Tot: -0.68000 ]
SCF: Cycle: 29   F: -7.050585273114021   dF: -1.178e-07   |Residual|: 3.943e-05   |deigs|: 6.964e-05  t[s]:    109.22
	FillingsUpdate:  mu: -0.104224734  nElectrons: 3.000000  magneticMoment: [ Abs: 0.68000  Tot: -0.68000 ]
SCF: Cycle: 30   F: -7.050585290610178   dF: -1.750e-08   |Residual|: 3.361e-05   |deigs|: 5.303e-05  t[s]:    112.52
	FillingsUpdate:  mu: -0.104196133  nElectrons: 3.000000  magneticMoment: [ Abs: 0.68004  Tot: -0.68000 ]
SCF: Cycle: 31   F: -7.050585229401900   dF: +6.121e-08   |Residual|: 2.917e-05   |deigs|: 4.544e-05  t[s]:    115.87
	FillingsUpdate:  mu: -0.104165965  nElectrons: 3.000000  magneticMoment: [ Abs: 0.68008  Tot: -0.68000 ]
SCF: Cycle: 32   F: -7.050585254871220   dF: -2.547e-08   |Residual|: 2.445e-05   |deigs|: 3.859e-05  t[s]:    119.22
	FillingsUpdate:  mu: -0.104137284  nElectrons: 3.000000  magneticMoment: [ Abs: 0.68007  Tot: -0.68000 ]
SCF: Cycle: 33   F: -7.050585292478547   dF: -3.761e-08   |Residual|: 1.731e-05   |deigs|: 3.409e-05  t[s]:    122.55
	FillingsUpdate:  mu: -0.104116649  nElectrons: 3.000000  magneticMoment: [ Abs: 0.68007  Tot: -0.68000 ]
SCF: Cycle: 34   F: -7.050585323115640   dF: -3.064e-08   |Residual|: 1.377e-05   |deigs|: 2.556e-05  t[s]:    125.81
	FillingsUpdate:  mu: -0.104103974  nElectrons: 3.000000  magneticMoment: [ Abs: 0.68003  Tot: -0.68000 ]
SCF: Cycle: 35   F: -7.050585322606939   dF: +5.087e-10   |Residual|: 1.132e-05   |deigs|: 1.766e-05  t[s]:    129.06
	FillingsUpdate:  mu: -0.104089750  nElectrons: 3.000000  magneticMoment: [ Abs: 0.68001  Tot: -0.68000 ]
SCF: Cycle: 36   F: -7.050585331402439   dF: -8.795e-09   |Residual|: 8.633e-06   |deigs|: 1.698e-05  t[s]:    132.39
	FillingsUpdate:  mu: -0.104082321  nElectrons: 3.000000  magneticMoment: [ Abs: 0.68000  Tot: -0.68000 ]
SCF: Cycle: 37   F: -7.050585338887011   dF: -7.485e-09   |Residual|: 6.850e-06   |deigs|: 9.893e-06  t[s]:    135.70
SCF: Converged (|Delta E|<1.000000e-08 for 2 iters).


# Ionic positions in lattice coordinates:
ion Li   0.000000000000000   0.000000000000000   0.000000000000000 0

# Forces in Lattice coordinates:
force Li   0.000000000000000  -0.000000000000000   0.000000000000000 0

# Energy components:
   Eewald =       -1.3368908222468645
       EH =        2.2143722164580879
     Eloc =       -7.5579707963262095
      Enl =       -3.6035496221085488
   Epulay =       -0.0000013080581827
      Exc =       -1.5394117828217690
       KE =        4.7728676405271369
-------------------------------------
     Etot =       -7.0505844745763504
       TS =        0.0000008643106603
-------------------------------------
        F =       -7.0505853388870108

IonicMinimize: Iter:   0  F: -7.050585338887011  |grad|_K:  0.000e+00  t[s]:    135.85
IonicMinimize: Converged (|grad|_K<1.000000e-04).

#--- Lowdin population analysis ---
# oxidation-state Li +2.082
# magnetic-moments Li -0.627

End date and time: Sat Feb  5 22:49:12 2022  (Duration: 0-0:02:15.86)
Done!
