
*************** JDFTx 1.6.0 (git hash 42ebbcc2) ***************

Start date and time: Sat Feb  5 23:07:38 2022
Executable jdftx with command-line: -i Alkali.in
Running on hosts (process indices):  d-4-7-2 (0-18)
Divided in process groups (process indices):  0 (0)  1 (1)  2 (2)  3 (3)  4 (4)  5 (5)  6 (6)  7 (7)  8 (8)  9 (9)  10 (10)  11 (11)  12 (12)  13 (13)  14 (14)  15 (15)  16 (16)  17 (17)  18 (18)
Resource initialization completed at t[s]:      0.00
Run totals: 19 processes, 48 threads, 0 GPUs


Input parsed successfully to the following command list (including defaults):

basis kpoint-dependent
coords-type Lattice
core-overlap-check vector
coulomb-interaction Slab 001
davidson-band-ratio 1.1
dump End None
dump-name $INPUT.$VAR
elec-cutoff 20
elec-eigen-algo Davidson
elec-ex-corr gga-PBE
elec-initial-magnetization 0.620000 yes
elec-smearing Fermi 1e-05
electronic-minimize  \
	dirUpdateScheme      FletcherReeves \
	linminMethod         DirUpdateRecommended \
	nIterations          100 \
	history              15 \
	knormThreshold       0 \
	energyDiffThreshold  1e-08 \
	nEnergyDiff          2 \
	alphaTstart          1 \
	alphaTmin            1e-10 \
	updateTestStepSize   yes \
	alphaTreduceFactor   0.1 \
	alphaTincreaseFactor 3 \
	nAlphaAdjustMax      3 \
	wolfeEnergy          0.0001 \
	wolfeGradient        0.9 \
	fdTest               no
electronic-scf  \
	nIterations	10000 \
	energyDiffThreshold	1e-08 \
	residualThreshold	1e-07 \
	mixFraction	0.5 \
	qMetric	0.8 \
	history	10 \
	nEigSteps	2 \
	eigDiffThreshold	1e-08 \
	mixedVariable	Density \
	qKerker	0.8 \
	qKappa	-1 \
	verbose	no \
	mixFractionMag	1.5
exchange-regularization WignerSeitzTruncated
fluid None
fluid-ex-corr (null) lda-PZ
fluid-gummel-loop 10 1.000000e-05
fluid-minimize  \
	dirUpdateScheme      PolakRibiere \
	linminMethod         DirUpdateRecommended \
	nIterations          100 \
	history              15 \
	knormThreshold       0 \
	energyDiffThreshold  0 \
	nEnergyDiff          2 \
	alphaTstart          1 \
	alphaTmin            1e-10 \
	updateTestStepSize   yes \
	alphaTreduceFactor   0.1 \
	alphaTincreaseFactor 3 \
	nAlphaAdjustMax      3 \
	wolfeEnergy          0.0001 \
	wolfeGradient        0.9 \
	fdTest               no
fluid-solvent H2O 55.338 ScalarEOS \
	epsBulk 78.4 \
	pMol 0.92466 \
	epsInf 1.77 \
	Pvap 1.06736e-10 \
	sigmaBulk 4.62e-05 \
	Rvdw 2.61727 \
	Res 1.42 \
	tauNuc 343133 \
	poleEl 15 7 1
forces-output-coords Positions
ion Li   0.000000000000000   0.000000000000000   0.000000000000000 0
ion-species SG15/$ID_ONCV_PBE.upf
ion-width 0
ionic-minimize  \
	dirUpdateScheme      L-BFGS \
	linminMethod         DirUpdateRecommended \
	nIterations          0 \
	history              15 \
	knormThreshold       0.0001 \
	energyDiffThreshold  1e-06 \
	nEnergyDiff          2 \
	alphaTstart          1 \
	alphaTmin            1e-10 \
	updateTestStepSize   yes \
	alphaTreduceFactor   0.1 \
	alphaTincreaseFactor 3 \
	nAlphaAdjustMax      3 \
	wolfeEnergy          0.0001 \
	wolfeGradient        0.9 \
	fdTest               no
kpoint   0.000000000000   0.000000000000   0.000000000000  1.00000000000000
kpoint-folding 12 12 1 
latt-move-scale 1 1 1
latt-scale 3 3 1 
lattice  \
	   4.727486978767153   -2.363743489383575    0.000000000000000  \
	  -0.000000000000000    4.094123819672498    0.000000000000000  \
	   0.000000000000000    0.000000000000000   40.000000000000000 
lattice-minimize  \
	dirUpdateScheme      L-BFGS \
	linminMethod         DirUpdateRecommended \
	nIterations          0 \
	history              15 \
	knormThreshold       0 \
	energyDiffThreshold  1e-06 \
	nEnergyDiff          2 \
	alphaTstart          1 \
	alphaTmin            1e-10 \
	updateTestStepSize   yes \
	alphaTreduceFactor   0.1 \
	alphaTincreaseFactor 3 \
	nAlphaAdjustMax      3 \
	wolfeEnergy          0.0001 \
	wolfeGradient        0.9 \
	fdTest               no
lcao-params -1 1e-06 1e-05
pcm-variant GLSSA13
spintype z-spin
subspace-rotation-factor 1 yes
symmetries automatic
symmetry-threshold 0.0001



---------- Setting up symmetries ----------

Found 24 point-group symmetries of the bravais lattice
Found 24 space-group symmetries with basis
Applied RMS atom displacement 0 bohrs to make symmetries exact.

---------- Initializing the Grid ----------
R = 
[      14.1825     -7.09123            0  ]
[            0      12.2824            0  ]
[            0            0           40  ]
unit cell volume = 6967.77
G =
[   0.443025   0.255781         -0  ]
[          0   0.511561         -0  ]
[         -0         -0    0.15708  ]
Minimum fftbox size, Smin = [  60  60  164  ]
Chosen fftbox size, S = [  60  60  168  ]

---------- Exchange Correlation functional ----------
Initalized PBE GGA exchange.
Initalized PBE GGA correlation.

---------- Setting up pseudopotentials ----------
Width of ionic core gaussian charges (only for fluid interactions / plotting) set to 0

Reading pseudopotential file '/home/gridsan/aligho/DFT/build-Nov24/pseudopotentials/SG15/Li_ONCV_PBE.upf':
  'Li' pseudopotential, 'PBE' functional
  Generated using ONCVPSP code by D. R. Hamann
  Author: Martin Schlipf and Francois Gygi  Date: 150915.
  3 valence electrons, 2 orbitals, 4 projectors, 1328 radial grid points, with lMax = 1
  Transforming local potential to a uniform radial grid of dG=0.02 with 1489 points.
  Transforming nonlocal projectors to a uniform radial grid of dG=0.02 with 432 points.
    1S    l: 0   occupation:  2.0   eigenvalue: -1.905623
    2S    l: 0   occupation:  1.0   eigenvalue: -0.105624
  Transforming atomic orbitals to a uniform radial grid of dG=0.02 with 432 points.
  WARNING: large normalization error in atomic orbital 1s (integral: 0.000000).
  Core radius for overlap checks: 1.63 bohrs.
  Reading pulay file /home/gridsan/aligho/DFT/build-Nov24/pseudopotentials/SG15/Li_ONCV_PBE.pulay ... using dE_dnG = -1.230239e-02 computed for Ecut = 20.

Initialized 1 species with 1 total atoms.

Folded 1 k-points by 12x12x1 to 144 k-points.

---------- Setting up k-points, bands, fillings ----------
Reduced to 19 k-points under symmetry. 
Computing the number of bands and number of electrons
Calculating initial fillings.
nElectrons:   3.000000   nBands: 3   nStates: 38

----- Setting up reduced wavefunction bases (one per k-point) -----
average nbasis = 29766.104 , ideal nbasis = 29766.845

---------- Setting up coulomb interaction ----------
Initialized slab truncation along lattice direction 001

---------- Setting up 2D ewald sum ----------
Optimum gaussian width for ewald sums = 7.873530 bohr.
Real space sums over 289 unit cells with max indices [  8  8  0  ]
Reciprocal space sums over 81 terms with max indices [  4  4  0  ]

---------- Allocating electronic variables ----------
Initializing wave functions:  linear combination of atomic orbitals
Note: number of bands (3) exceeds available atomic orbitals (2)
Li pseudo-atom occupations:   s ( 2 1 )
	FillingsUpdate:  mu: +0.357006449  nElectrons: 3.000000  magneticMoment: [ Abs: 0.62000  Tot: +0.62000 ]
LCAOMinimize: Iter:   0  F: -1.2858139840454685  |grad|_K:  4.761e-05  alpha:  1.000e+00
	FillingsUpdate:  mu: +0.357006005  nElectrons: 3.000000  magneticMoment: [ Abs: 0.62000  Tot: +0.62000 ]
LCAOMinimize: Iter:   1  F: -1.2858143943571636  |grad|_K:  3.852e-07  alpha:  1.058e+00  linmin: -2.095e-03  cgtest:  1.141e-02  t[s]:      7.43
LCAOMinimize: Encountered beta<0, resetting CG.
	FillingsUpdate:  mu: +0.357006007  nElectrons: 3.000000  magneticMoment: [ Abs: 0.62000  Tot: +0.62000 ]
LCAOMinimize: Iter:   2  F: -1.2858143943800500  |grad|_K:  4.152e-08  alpha:  9.196e-01  linmin: -2.825e-02  cgtest:  9.431e-01  t[s]:      9.45
LCAOMinimize: Encountered beta<0, resetting CG.
LCAOMinimize: Converged (|Delta F|<1.000000e-06 for 2 iters).


---- Citations for features of the code used in this run ----

   Software package:
      R. Sundararaman, K. Letchworth-Weaver, K.A. Schwarz, D. Gunceler, Y. Ozhabes and T.A. Arias, 'JDFTx: software for joint density-functional theory', SoftwareX 6, 278 (2017)

   gga-PBE exchange-correlation functional:
      J.P. Perdew, K. Burke and M. Ernzerhof, Phys. Rev. Lett. 77, 3865 (1996)

   Pseudopotentials:
      M Schlipf and F Gygi, Comput. Phys. Commun. 196, 36 (2015)

   Truncated Coulomb potentials:
      R. Sundararaman and T.A. Arias, Phys. Rev. B 87, 165122 (2013)

This list may not be complete. Please suggest additional citations or
report any other bugs at https://github.com/shankar1729/jdftx/issues

Initialization completed successfully at t[s]:      9.54


-------- Electronic minimization -----------
Will mix electronic density at each iteration.
	FillingsUpdate:  mu: +0.357006007  nElectrons: 3.000000  magneticMoment: [ Abs: 0.62000  Tot: +0.62000 ]
	FillingsUpdate:  mu: -0.695497940  nElectrons: 3.000000  magneticMoment: [ Abs: 0.62000  Tot: +0.62000 ]
SCF: Cycle:  0   F: -6.877536447920134   dF: -5.592e+00   |Residual|: 1.225e+00   |deigs|: 4.156e+00  t[s]:     12.96
	FillingsUpdate:  mu: -0.568180784  nElectrons: 3.000000  magneticMoment: [ Abs: 0.99334  Tot: +0.62000 ]
SCF: Cycle:  1   F: -6.917356195399560   dF: -3.982e-02   |Residual|: 7.639e-01   |deigs|: 2.744e-01  t[s]:     15.67
	FillingsUpdate:  mu: -0.366672895  nElectrons: 3.000000  magneticMoment: [ Abs: 1.35978  Tot: +0.62000 ]
SCF: Cycle:  2   F: -7.038869953253172   dF: -1.215e-01   |Residual|: 3.313e-01   |deigs|: 7.077e-01  t[s]:     18.43
	FillingsUpdate:  mu: -0.375068830  nElectrons: 3.000000  magneticMoment: [ Abs: 1.22233  Tot: +0.62000 ]
SCF: Cycle:  3   F: -7.040414120946342   dF: -1.544e-03   |Residual|: 1.802e-01   |deigs|: 8.184e-02  t[s]:     21.28
	FillingsUpdate:  mu: -0.330139962  nElectrons: 3.000000  magneticMoment: [ Abs: 1.02186  Tot: +0.62000 ]
SCF: Cycle:  4   F: -7.042902137617171   dF: -2.488e-03   |Residual|: 3.932e-02   |deigs|: 3.544e-02  t[s]:     24.18
	FillingsUpdate:  mu: -0.310569650  nElectrons: 3.000000  magneticMoment: [ Abs: 0.95284  Tot: +0.62000 ]
SCF: Cycle:  5   F: -7.043179676631490   dF: -2.775e-04   |Residual|: 7.800e-02   |deigs|: 1.960e-02  t[s]:     27.15
	FillingsUpdate:  mu: -0.276300287  nElectrons: 3.000000  magneticMoment: [ Abs: 0.78725  Tot: +0.62000 ]
SCF: Cycle:  6   F: -7.045480873802756   dF: -2.301e-03   |Residual|: 4.520e-02   |deigs|: 6.471e-02  t[s]:     30.15
	FillingsUpdate:  mu: -0.259003940  nElectrons: 3.000000  magneticMoment: [ Abs: 0.73854  Tot: +0.62000 ]
SCF: Cycle:  7   F: -7.047057143510517   dF: -1.576e-03   |Residual|: 4.682e-02   |deigs|: 4.445e-02  t[s]:     33.22
	FillingsUpdate:  mu: -0.255663813  nElectrons: 3.000000  magneticMoment: [ Abs: 0.70215  Tot: +0.62000 ]
SCF: Cycle:  8   F: -7.047358304950216   dF: -3.012e-04   |Residual|: 5.991e-02   |deigs|: 4.393e-03  t[s]:     36.36
	FillingsUpdate:  mu: -0.231388914  nElectrons: 3.000000  magneticMoment: [ Abs: 0.69139  Tot: +0.62000 ]
SCF: Cycle:  9   F: -7.048464956510169   dF: -1.107e-03   |Residual|: 3.465e-02   |deigs|: 2.671e-02  t[s]:     39.65
	FillingsUpdate:  mu: -0.202000289  nElectrons: 3.000000  magneticMoment: [ Abs: 0.76025  Tot: +0.62000 ]
SCF: Cycle: 10   F: -7.048898023801760   dF: -4.331e-04   |Residual|: 6.279e-02   |deigs|: 2.367e-02  t[s]:     42.96
	FillingsUpdate:  mu: -0.183797345  nElectrons: 3.000000  magneticMoment: [ Abs: 0.79245  Tot: +0.62000 ]
SCF: Cycle: 11   F: -7.049185860894998   dF: -2.878e-04   |Residual|: 1.114e-02   |deigs|: 2.714e-02  t[s]:     46.22
	FillingsUpdate:  mu: -0.171228627  nElectrons: 3.000000  magneticMoment: [ Abs: 0.79473  Tot: +0.62000 ]
SCF: Cycle: 12   F: -7.049482313042687   dF: -2.965e-04   |Residual|: 1.179e-02   |deigs|: 1.296e-02  t[s]:     49.47
	FillingsUpdate:  mu: -0.144767855  nElectrons: 3.000000  magneticMoment: [ Abs: 0.79151  Tot: +0.62000 ]
SCF: Cycle: 13   F: -7.049290038262328   dF: +1.923e-04   |Residual|: 8.017e-03   |deigs|: 2.970e-02  t[s]:     52.73
	FillingsUpdate:  mu: -0.135789883  nElectrons: 3.000000  magneticMoment: [ Abs: 0.76546  Tot: +0.62000 ]
SCF: Cycle: 14   F: -7.049273483292421   dF: +1.655e-05   |Residual|: 7.145e-03   |deigs|: 7.988e-03  t[s]:     55.95
	FillingsUpdate:  mu: -0.124248865  nElectrons: 3.000000  magneticMoment: [ Abs: 0.73585  Tot: +0.62000 ]
SCF: Cycle: 15   F: -7.049393406496877   dF: -1.199e-04   |Residual|: 6.477e-03   |deigs|: 1.184e-02  t[s]:     59.17
	FillingsUpdate:  mu: -0.115147730  nElectrons: 3.000000  magneticMoment: [ Abs: 0.70001  Tot: +0.62000 ]
SCF: Cycle: 16   F: -7.049669263439233   dF: -2.759e-04   |Residual|: 4.509e-03   |deigs|: 9.806e-03  t[s]:     62.44
	FillingsUpdate:  mu: -0.106203016  nElectrons: 3.000000  magneticMoment: [ Abs: 0.67029  Tot: +0.62000 ]
SCF: Cycle: 17   F: -7.049887005057404   dF: -2.177e-04   |Residual|: 3.029e-03   |deigs|: 1.056e-02  t[s]:     65.69
	FillingsUpdate:  mu: -0.104897668  nElectrons: 3.000000  magneticMoment: [ Abs: 0.65637  Tot: +0.62000 ]
SCF: Cycle: 18   F: -7.049956961561949   dF: -6.996e-05   |Residual|: 2.069e-03   |deigs|: 1.928e-03  t[s]:     68.97
	FillingsUpdate:  mu: -0.104973375  nElectrons: 3.000000  magneticMoment: [ Abs: 0.64363  Tot: +0.62000 ]
SCF: Cycle: 19   F: -7.050000394858614   dF: -4.343e-05   |Residual|: 1.202e-03   |deigs|: 8.101e-04  t[s]:     72.14
	FillingsUpdate:  mu: -0.104780557  nElectrons: 3.000000  magneticMoment: [ Abs: 0.63705  Tot: +0.62000 ]
SCF: Cycle: 20   F: -7.050012262815282   dF: -1.187e-05   |Residual|: 7.818e-04   |deigs|: 2.640e-04  t[s]:     75.43
	FillingsUpdate:  mu: -0.104678066  nElectrons: 3.000000  magneticMoment: [ Abs: 0.63256  Tot: +0.62000 ]
SCF: Cycle: 21   F: -7.050017988216927   dF: -5.725e-06   |Residual|: 4.674e-04   |deigs|: 3.296e-04  t[s]:     78.74
	FillingsUpdate:  mu: -0.104824447  nElectrons: 3.000000  magneticMoment: [ Abs: 0.62890  Tot: +0.62000 ]
SCF: Cycle: 22   F: -7.050020227807597   dF: -2.240e-06   |Residual|: 3.219e-04   |deigs|: 1.610e-04  t[s]:     82.02
	FillingsUpdate:  mu: -0.104792258  nElectrons: 3.000000  magneticMoment: [ Abs: 0.62639  Tot: +0.62000 ]
SCF: Cycle: 23   F: -7.050020896335925   dF: -6.685e-07   |Residual|: 2.627e-04   |deigs|: 1.551e-04  t[s]:     85.33
	FillingsUpdate:  mu: -0.104937764  nElectrons: 3.000000  magneticMoment: [ Abs: 0.62380  Tot: +0.62000 ]
SCF: Cycle: 24   F: -7.050021255606121   dF: -3.593e-07   |Residual|: 2.147e-04   |deigs|: 2.019e-04  t[s]:     88.56
	FillingsUpdate:  mu: -0.104903513  nElectrons: 3.000000  magneticMoment: [ Abs: 0.62146  Tot: +0.62000 ]
SCF: Cycle: 25   F: -7.050021105808884   dF: +1.498e-07   |Residual|: 1.609e-04   |deigs|: 1.176e-04  t[s]:     91.84
	FillingsUpdate:  mu: -0.104913589  nElectrons: 3.000000  magneticMoment: [ Abs: 0.62032  Tot: +0.62000 ]
SCF: Cycle: 26   F: -7.050021293797035   dF: -1.880e-07   |Residual|: 1.120e-04   |deigs|: 1.038e-04  t[s]:     95.08
	FillingsUpdate:  mu: -0.104881424  nElectrons: 3.000000  magneticMoment: [ Abs: 0.62018  Tot: +0.62000 ]
SCF: Cycle: 27   F: -7.050021712786396   dF: -4.190e-07   |Residual|: 7.078e-05   |deigs|: 1.008e-04  t[s]:     98.29
	FillingsUpdate:  mu: -0.104873498  nElectrons: 3.000000  magneticMoment: [ Abs: 0.62006  Tot: +0.62000 ]
SCF: Cycle: 28   F: -7.050021898242884   dF: -1.855e-07   |Residual|: 4.602e-05   |deigs|: 8.954e-05  t[s]:    101.57
	FillingsUpdate:  mu: -0.104861907  nElectrons: 3.000000  magneticMoment: [ Abs: 0.62001  Tot: +0.62000 ]
SCF: Cycle: 29   F: -7.050021932559207   dF: -3.432e-08   |Residual|: 3.255e-05   |deigs|: 7.176e-05  t[s]:    104.79
	FillingsUpdate:  mu: -0.104850929  nElectrons: 3.000000  magneticMoment: [ Abs: 0.62000  Tot: +0.62000 ]
SCF: Cycle: 30   F: -7.050021946368446   dF: -1.381e-08   |Residual|: 2.462e-05   |deigs|: 5.243e-05  t[s]:    108.11
	FillingsUpdate:  mu: -0.104836879  nElectrons: 3.000000  magneticMoment: [ Abs: 0.62000  Tot: +0.62000 ]
SCF: Cycle: 31   F: -7.050021948395393   dF: -2.027e-09   |Residual|: 1.682e-05   |deigs|: 3.790e-05  t[s]:    111.48
	FillingsUpdate:  mu: -0.104833416  nElectrons: 3.000000  magneticMoment: [ Abs: 0.62000  Tot: +0.62000 ]
SCF: Cycle: 32   F: -7.050021955544276   dF: -7.149e-09   |Residual|: 1.321e-05   |deigs|: 2.681e-05  t[s]:    114.71
SCF: Converged (|Delta E|<1.000000e-08 for 2 iters).


# Ionic positions in lattice coordinates:
ion Li   0.000000000000000   0.000000000000000   0.000000000000000 0

# Forces in Lattice coordinates:
force Li  -0.000000000000000  -0.000000000000000   0.000000000000000 0

# Energy components:
   Eewald =       -1.3368908222468645
       EH =        2.2112856275370358
     Eloc =       -7.5540554267699047
      Enl =       -3.6030754208908391
   Epulay =       -0.0000013080581827
      Exc =       -1.5378988583152722
       KE =        4.7706153501566098
-------------------------------------
     Etot =       -7.0500208585874171
       TS =        0.0000010969568586
-------------------------------------
        F =       -7.0500219555442758

IonicMinimize: Iter:   0  F: -7.050021955544276  |grad|_K:  0.000e+00  t[s]:    114.89
IonicMinimize: Converged (|grad|_K<1.000000e-04).

#--- Lowdin population analysis ---
# oxidation-state Li +2.086
# magnetic-moments Li +0.572

End date and time: Sat Feb  5 23:09:33 2022  (Duration: 0-0:01:54.91)
Done!
