
*************** JDFTx 1.6.0 (git hash 42ebbcc2) ***************

Start date and time: Sat Feb  5 22:46:59 2022
Executable jdftx with command-line: -i Alkali.in
Running on hosts (process indices):  d-16-13-1 (0-18)
Divided in process groups (process indices):  0 (0)  1 (1)  2 (2)  3 (3)  4 (4)  5 (5)  6 (6)  7 (7)  8 (8)  9 (9)  10 (10)  11 (11)  12 (12)  13 (13)  14 (14)  15 (15)  16 (16)  17 (17)  18 (18)
Resource initialization completed at t[s]:      0.00
Run totals: 19 processes, 48 threads, 0 GPUs


Input parsed successfully to the following command list (including defaults):

basis kpoint-dependent
coords-type Lattice
core-overlap-check vector
coulomb-interaction Slab 001
davidson-band-ratio 1.1
dump End None
dump-name $INPUT.$VAR
elec-cutoff 20
elec-eigen-algo Davidson
elec-ex-corr gga-PBE
elec-initial-magnetization -0.560000 yes
elec-smearing Fermi 1e-05
electronic-minimize  \
	dirUpdateScheme      FletcherReeves \
	linminMethod         DirUpdateRecommended \
	nIterations          100 \
	history              15 \
	knormThreshold       0 \
	energyDiffThreshold  1e-08 \
	nEnergyDiff          2 \
	alphaTstart          1 \
	alphaTmin            1e-10 \
	updateTestStepSize   yes \
	alphaTreduceFactor   0.1 \
	alphaTincreaseFactor 3 \
	nAlphaAdjustMax      3 \
	wolfeEnergy          0.0001 \
	wolfeGradient        0.9 \
	fdTest               no
electronic-scf  \
	nIterations	10000 \
	energyDiffThreshold	1e-08 \
	residualThreshold	1e-07 \
	mixFraction	0.5 \
	qMetric	0.8 \
	history	10 \
	nEigSteps	2 \
	eigDiffThreshold	1e-08 \
	mixedVariable	Density \
	qKerker	0.8 \
	qKappa	-1 \
	verbose	no \
	mixFractionMag	1.5
exchange-regularization WignerSeitzTruncated
fluid None
fluid-ex-corr (null) lda-PZ
fluid-gummel-loop 10 1.000000e-05
fluid-minimize  \
	dirUpdateScheme      PolakRibiere \
	linminMethod         DirUpdateRecommended \
	nIterations          100 \
	history              15 \
	knormThreshold       0 \
	energyDiffThreshold  0 \
	nEnergyDiff          2 \
	alphaTstart          1 \
	alphaTmin            1e-10 \
	updateTestStepSize   yes \
	alphaTreduceFactor   0.1 \
	alphaTincreaseFactor 3 \
	nAlphaAdjustMax      3 \
	wolfeEnergy          0.0001 \
	wolfeGradient        0.9 \
	fdTest               no
fluid-solvent H2O 55.338 ScalarEOS \
	epsBulk 78.4 \
	pMol 0.92466 \
	epsInf 1.77 \
	Pvap 1.06736e-10 \
	sigmaBulk 4.62e-05 \
	Rvdw 2.61727 \
	Res 1.42 \
	tauNuc 343133 \
	poleEl 15 7 1
forces-output-coords Positions
ion Li   0.000000000000000   0.000000000000000   0.000000000000000 0
ion-species SG15/$ID_ONCV_PBE.upf
ion-width 0
ionic-minimize  \
	dirUpdateScheme      L-BFGS \
	linminMethod         DirUpdateRecommended \
	nIterations          0 \
	history              15 \
	knormThreshold       0.0001 \
	energyDiffThreshold  1e-06 \
	nEnergyDiff          2 \
	alphaTstart          1 \
	alphaTmin            1e-10 \
	updateTestStepSize   yes \
	alphaTreduceFactor   0.1 \
	alphaTincreaseFactor 3 \
	nAlphaAdjustMax      3 \
	wolfeEnergy          0.0001 \
	wolfeGradient        0.9 \
	fdTest               no
kpoint   0.000000000000   0.000000000000   0.000000000000  1.00000000000000
kpoint-folding 12 12 1 
latt-move-scale 1 1 1
latt-scale 3 3 1 
lattice  \
	   4.727486978767153   -2.363743489383575    0.000000000000000  \
	  -0.000000000000000    4.094123819672498    0.000000000000000  \
	   0.000000000000000    0.000000000000000   40.000000000000000 
lattice-minimize  \
	dirUpdateScheme      L-BFGS \
	linminMethod         DirUpdateRecommended \
	nIterations          0 \
	history              15 \
	knormThreshold       0 \
	energyDiffThreshold  1e-06 \
	nEnergyDiff          2 \
	alphaTstart          1 \
	alphaTmin            1e-10 \
	updateTestStepSize   yes \
	alphaTreduceFactor   0.1 \
	alphaTincreaseFactor 3 \
	nAlphaAdjustMax      3 \
	wolfeEnergy          0.0001 \
	wolfeGradient        0.9 \
	fdTest               no
lcao-params -1 1e-06 1e-05
pcm-variant GLSSA13
spintype z-spin
subspace-rotation-factor 1 yes
symmetries automatic
symmetry-threshold 0.0001



---------- Setting up symmetries ----------

Found 24 point-group symmetries of the bravais lattice
Found 24 space-group symmetries with basis
Applied RMS atom displacement 0 bohrs to make symmetries exact.

---------- Initializing the Grid ----------
R = 
[      14.1825     -7.09123            0  ]
[            0      12.2824            0  ]
[            0            0           40  ]
unit cell volume = 6967.77
G =
[   0.443025   0.255781         -0  ]
[          0   0.511561         -0  ]
[         -0         -0    0.15708  ]
Minimum fftbox size, Smin = [  60  60  164  ]
Chosen fftbox size, S = [  60  60  168  ]

---------- Exchange Correlation functional ----------
Initalized PBE GGA exchange.
Initalized PBE GGA correlation.

---------- Setting up pseudopotentials ----------
Width of ionic core gaussian charges (only for fluid interactions / plotting) set to 0

Reading pseudopotential file '/home/gridsan/aligho/DFT/build-Nov24/pseudopotentials/SG15/Li_ONCV_PBE.upf':
  'Li' pseudopotential, 'PBE' functional
  Generated using ONCVPSP code by D. R. Hamann
  Author: Martin Schlipf and Francois Gygi  Date: 150915.
  3 valence electrons, 2 orbitals, 4 projectors, 1328 radial grid points, with lMax = 1
  Transforming local potential to a uniform radial grid of dG=0.02 with 1489 points.
  Transforming nonlocal projectors to a uniform radial grid of dG=0.02 with 432 points.
    1S    l: 0   occupation:  2.0   eigenvalue: -1.905623
    2S    l: 0   occupation:  1.0   eigenvalue: -0.105624
  Transforming atomic orbitals to a uniform radial grid of dG=0.02 with 432 points.
  WARNING: large normalization error in atomic orbital 1s (integral: 0.000000).
  Core radius for overlap checks: 1.63 bohrs.
  Reading pulay file /home/gridsan/aligho/DFT/build-Nov24/pseudopotentials/SG15/Li_ONCV_PBE.pulay ... using dE_dnG = -1.230239e-02 computed for Ecut = 20.

Initialized 1 species with 1 total atoms.

Folded 1 k-points by 12x12x1 to 144 k-points.

---------- Setting up k-points, bands, fillings ----------
Reduced to 19 k-points under symmetry. 
Computing the number of bands and number of electrons
Calculating initial fillings.
nElectrons:   3.000000   nBands: 3   nStates: 38

----- Setting up reduced wavefunction bases (one per k-point) -----
average nbasis = 29766.104 , ideal nbasis = 29766.845

---------- Setting up coulomb interaction ----------
Initialized slab truncation along lattice direction 001

---------- Setting up 2D ewald sum ----------
Optimum gaussian width for ewald sums = 7.873530 bohr.
Real space sums over 289 unit cells with max indices [  8  8  0  ]
Reciprocal space sums over 81 terms with max indices [  4  4  0  ]

---------- Allocating electronic variables ----------
Initializing wave functions:  linear combination of atomic orbitals
Note: number of bands (3) exceeds available atomic orbitals (2)
Li pseudo-atom occupations:   s ( 2 1 )
	FillingsUpdate:  mu: +0.348263187  nElectrons: 3.000000  magneticMoment: [ Abs: 0.56014  Tot: -0.56000 ]
LCAOMinimize: Iter:   0  F: -1.2848188006244450  |grad|_K:  4.781e-05  alpha:  1.000e+00
	FillingsUpdate:  mu: +0.348262645  nElectrons: 3.000000  magneticMoment: [ Abs: 0.56014  Tot: -0.56000 ]
LCAOMinimize: Iter:   1  F: -1.2848192140820938  |grad|_K:  4.569e-07  alpha:  1.058e+00  linmin: -1.103e-03  cgtest:  8.549e-03  t[s]:      7.54
	FillingsUpdate:  mu: +0.348262647  nElectrons: 3.000000  magneticMoment: [ Abs: 0.56014  Tot: -0.56000 ]
LCAOMinimize: Iter:   2  F: -1.2848192141227981  |grad|_K:  2.398e-08  alpha:  9.633e-01  linmin: -2.119e-02  cgtest:  8.737e-01  t[s]:      9.60
LCAOMinimize: Encountered beta<0, resetting CG.
LCAOMinimize: Converged (|Delta F|<1.000000e-06 for 2 iters).


---- Citations for features of the code used in this run ----

   Software package:
      R. Sundararaman, K. Letchworth-Weaver, K.A. Schwarz, D. Gunceler, Y. Ozhabes and T.A. Arias, 'JDFTx: software for joint density-functional theory', SoftwareX 6, 278 (2017)

   gga-PBE exchange-correlation functional:
      J.P. Perdew, K. Burke and M. Ernzerhof, Phys. Rev. Lett. 77, 3865 (1996)

   Pseudopotentials:
      M Schlipf and F Gygi, Comput. Phys. Commun. 196, 36 (2015)

   Truncated Coulomb potentials:
      R. Sundararaman and T.A. Arias, Phys. Rev. B 87, 165122 (2013)

This list may not be complete. Please suggest additional citations or
report any other bugs at https://github.com/shankar1729/jdftx/issues

Initialization completed successfully at t[s]:      9.69


-------- Electronic minimization -----------
Will mix electronic density at each iteration.
	FillingsUpdate:  mu: +0.348262647  nElectrons: 3.000000  magneticMoment: [ Abs: 0.56014  Tot: -0.56000 ]
	FillingsUpdate:  mu: -0.694242966  nElectrons: 3.000000  magneticMoment: [ Abs: 0.56014  Tot: -0.56000 ]
SCF: Cycle:  0   F: -6.878519010667279   dF: -5.594e+00   |Residual|: 1.224e+00   |deigs|: 4.156e+00  t[s]:     13.07
	FillingsUpdate:  mu: -0.569343513  nElectrons: 3.000000  magneticMoment: [ Abs: 0.88633  Tot: -0.56000 ]
SCF: Cycle:  1   F: -6.918438397721506   dF: -3.992e-02   |Residual|: 7.633e-01   |deigs|: 2.739e-01  t[s]:     15.84
	FillingsUpdate:  mu: -0.361913783  nElectrons: 3.000000  magneticMoment: [ Abs: 1.22010  Tot: -0.56000 ]
SCF: Cycle:  2   F: -7.038475028492506   dF: -1.200e-01   |Residual|: 3.294e-01   |deigs|: 7.082e-01  t[s]:     18.57
	FillingsUpdate:  mu: -0.371411488  nElectrons: 3.000000  magneticMoment: [ Abs: 1.11069  Tot: -0.56000 ]
SCF: Cycle:  3   F: -7.040064809466646   dF: -1.590e-03   |Residual|: 1.796e-01   |deigs|: 8.172e-02  t[s]:     21.38
	FillingsUpdate:  mu: -0.326002116  nElectrons: 3.000000  magneticMoment: [ Abs: 0.95464  Tot: -0.56000 ]
SCF: Cycle:  4   F: -7.042761620870145   dF: -2.697e-03   |Residual|: 4.394e-02   |deigs|: 3.633e-02  t[s]:     24.33
	FillingsUpdate:  mu: -0.308977939  nElectrons: 3.000000  magneticMoment: [ Abs: 0.88708  Tot: -0.56000 ]
SCF: Cycle:  5   F: -7.042503839706681   dF: +2.578e-04   |Residual|: 8.785e-02   |deigs|: 1.635e-02  t[s]:     27.28
	FillingsUpdate:  mu: -0.271092288  nElectrons: 3.000000  magneticMoment: [ Abs: 0.69770  Tot: -0.56000 ]
SCF: Cycle:  6   F: -7.045235569853237   dF: -2.732e-03   |Residual|: 3.672e-02   |deigs|: 7.475e-02  t[s]:     30.30
	FillingsUpdate:  mu: -0.255061574  nElectrons: 3.000000  magneticMoment: [ Abs: 0.66770  Tot: -0.56000 ]
SCF: Cycle:  7   F: -7.046663445755890   dF: -1.428e-03   |Residual|: 6.985e-02   |deigs|: 4.717e-02  t[s]:     33.40
	FillingsUpdate:  mu: -0.254819459  nElectrons: 3.000000  magneticMoment: [ Abs: 0.63114  Tot: -0.56000 ]
SCF: Cycle:  8   F: -7.046819966586681   dF: -1.565e-04   |Residual|: 5.381e-02   |deigs|: 8.877e-03  t[s]:     36.52
	FillingsUpdate:  mu: -0.228010276  nElectrons: 3.000000  magneticMoment: [ Abs: 0.62985  Tot: -0.56000 ]
SCF: Cycle:  9   F: -7.047967287699556   dF: -1.147e-03   |Residual|: 4.194e-02   |deigs|: 2.885e-02  t[s]:     39.70
	FillingsUpdate:  mu: -0.202071244  nElectrons: 3.000000  magneticMoment: [ Abs: 0.67591  Tot: -0.56000 ]
SCF: Cycle: 10   F: -7.048388363083335   dF: -4.211e-04   |Residual|: 4.309e-02   |deigs|: 2.214e-02  t[s]:     42.98
	FillingsUpdate:  mu: -0.181960512  nElectrons: 3.000000  magneticMoment: [ Abs: 0.72648  Tot: -0.56000 ]
SCF: Cycle: 11   F: -7.048772038849935   dF: -3.837e-04   |Residual|: 1.199e-02   |deigs|: 2.462e-02  t[s]:     46.26
	FillingsUpdate:  mu: -0.168628563  nElectrons: 3.000000  magneticMoment: [ Abs: 0.72534  Tot: -0.56000 ]
SCF: Cycle: 12   F: -7.049038291634191   dF: -2.663e-04   |Residual|: 1.083e-02   |deigs|: 1.550e-02  t[s]:     49.48
	FillingsUpdate:  mu: -0.145364012  nElectrons: 3.000000  magneticMoment: [ Abs: 0.72385  Tot: -0.56000 ]
SCF: Cycle: 13   F: -7.048829373635051   dF: +2.089e-04   |Residual|: 7.814e-03   |deigs|: 2.505e-02  t[s]:     52.75
	FillingsUpdate:  mu: -0.135703692  nElectrons: 3.000000  magneticMoment: [ Abs: 0.69887  Tot: -0.56000 ]
SCF: Cycle: 14   F: -7.048825442209389   dF: +3.931e-06   |Residual|: 7.048e-03   |deigs|: 8.650e-03  t[s]:     55.98
	FillingsUpdate:  mu: -0.123404730  nElectrons: 3.000000  magneticMoment: [ Abs: 0.67278  Tot: -0.56000 ]
SCF: Cycle: 15   F: -7.048902288378091   dF: -7.685e-05   |Residual|: 6.352e-03   |deigs|: 1.300e-02  t[s]:     59.19
	FillingsUpdate:  mu: -0.114811043  nElectrons: 3.000000  magneticMoment: [ Abs: 0.63736  Tot: -0.56000 ]
SCF: Cycle: 16   F: -7.049182988891709   dF: -2.807e-04   |Residual|: 4.473e-03   |deigs|: 9.148e-03  t[s]:     62.47
	FillingsUpdate:  mu: -0.106427620  nElectrons: 3.000000  magneticMoment: [ Abs: 0.60741  Tot: -0.56000 ]
SCF: Cycle: 17   F: -7.049397872860586   dF: -2.149e-04   |Residual|: 2.996e-03   |deigs|: 9.681e-03  t[s]:     65.76
	FillingsUpdate:  mu: -0.105278240  nElectrons: 3.000000  magneticMoment: [ Abs: 0.59191  Tot: -0.56000 ]
SCF: Cycle: 18   F: -7.049472570973653   dF: -7.470e-05   |Residual|: 1.857e-03   |deigs|: 1.863e-03  t[s]:     69.02
	FillingsUpdate:  mu: -0.105174583  nElectrons: 3.000000  magneticMoment: [ Abs: 0.58158  Tot: -0.56000 ]
SCF: Cycle: 19   F: -7.049511263839287   dF: -3.869e-05   |Residual|: 1.138e-03   |deigs|: 5.611e-04  t[s]:     72.28
	FillingsUpdate:  mu: -0.105276966  nElectrons: 3.000000  magneticMoment: [ Abs: 0.57505  Tot: -0.56000 ]
SCF: Cycle: 20   F: -7.049524041458133   dF: -1.278e-05   |Residual|: 6.686e-04   |deigs|: 3.299e-04  t[s]:     75.56
	FillingsUpdate:  mu: -0.105232545  nElectrons: 3.000000  magneticMoment: [ Abs: 0.57043  Tot: -0.56000 ]
SCF: Cycle: 21   F: -7.049528649290575   dF: -4.608e-06   |Residual|: 4.307e-04   |deigs|: 1.959e-04  t[s]:     78.78
	FillingsUpdate:  mu: -0.105293242  nElectrons: 3.000000  magneticMoment: [ Abs: 0.56750  Tot: -0.56000 ]
SCF: Cycle: 22   F: -7.049530606159816   dF: -1.957e-06   |Residual|: 3.103e-04   |deigs|: 1.612e-04  t[s]:     82.06
	FillingsUpdate:  mu: -0.105238343  nElectrons: 3.000000  magneticMoment: [ Abs: 0.56525  Tot: -0.56000 ]
SCF: Cycle: 23   F: -7.049531553218311   dF: -9.471e-07   |Residual|: 2.508e-04   |deigs|: 1.630e-04  t[s]:     85.30
	FillingsUpdate:  mu: -0.105244112  nElectrons: 3.000000  magneticMoment: [ Abs: 0.56362  Tot: -0.56000 ]
SCF: Cycle: 24   F: -7.049531730656625   dF: -1.774e-07   |Residual|: 1.940e-04   |deigs|: 1.113e-04  t[s]:     88.52
	FillingsUpdate:  mu: -0.105190132  nElectrons: 3.000000  magneticMoment: [ Abs: 0.56258  Tot: -0.56000 ]
SCF: Cycle: 25   F: -7.049531631879370   dF: +9.878e-08   |Residual|: 1.608e-04   |deigs|: 1.194e-04  t[s]:     91.76
	FillingsUpdate:  mu: -0.105142574  nElectrons: 3.000000  magneticMoment: [ Abs: 0.56148  Tot: -0.56000 ]
SCF: Cycle: 26   F: -7.049531834168638   dF: -2.023e-07   |Residual|: 1.159e-04   |deigs|: 1.056e-04  t[s]:     94.97
	FillingsUpdate:  mu: -0.105087912  nElectrons: 3.000000  magneticMoment: [ Abs: 0.56072  Tot: -0.56000 ]
SCF: Cycle: 27   F: -7.049532185410559   dF: -3.512e-07   |Residual|: 6.492e-05   |deigs|: 1.170e-04  t[s]:     98.21
	FillingsUpdate:  mu: -0.105055925  nElectrons: 3.000000  magneticMoment: [ Abs: 0.56039  Tot: -0.56000 ]
SCF: Cycle: 28   F: -7.049532330270213   dF: -1.449e-07   |Residual|: 4.089e-05   |deigs|: 1.031e-04  t[s]:    101.48
	FillingsUpdate:  mu: -0.105039143  nElectrons: 3.000000  magneticMoment: [ Abs: 0.56010  Tot: -0.56000 ]
SCF: Cycle: 29   F: -7.049532361837987   dF: -3.157e-08   |Residual|: 2.507e-05   |deigs|: 8.684e-05  t[s]:    104.71
	FillingsUpdate:  mu: -0.105036168  nElectrons: 3.000000  magneticMoment: [ Abs: 0.56002  Tot: -0.56000 ]
SCF: Cycle: 30   F: -7.049532377302118   dF: -1.546e-08   |Residual|: 1.800e-05   |deigs|: 6.749e-05  t[s]:    107.96
	FillingsUpdate:  mu: -0.105037150  nElectrons: 3.000000  magneticMoment: [ Abs: 0.56001  Tot: -0.56000 ]
SCF: Cycle: 31   F: -7.049532385908607   dF: -8.606e-09   |Residual|: 1.391e-05   |deigs|: 5.344e-05  t[s]:    111.21
	FillingsUpdate:  mu: -0.105048880  nElectrons: 3.000000  magneticMoment: [ Abs: 0.56002  Tot: -0.56000 ]
SCF: Cycle: 32   F: -7.049532392015434   dF: -6.107e-09   |Residual|: 9.899e-06   |deigs|: 4.376e-05  t[s]:    114.48
SCF: Converged (|Delta E|<1.000000e-08 for 2 iters).


# Ionic positions in lattice coordinates:
ion Li   0.000000000000000   0.000000000000000   0.000000000000000 0

# Forces in Lattice coordinates:
force Li  -0.000000000000000   0.000000000000000   0.000000000000000 0

# Energy components:
   Eewald =       -1.3368908222468645
       EH =        2.2083372169870916
     Eloc =       -7.5503013290668779
      Enl =       -3.6026223989495580
   Epulay =       -0.0000013080581827
      Exc =       -1.5365005684552062
       KE =        4.7684474703425108
-------------------------------------
     Etot =       -7.0495317394470876
       TS =        0.0000006525683473
-------------------------------------
        F =       -7.0495323920154345

IonicMinimize: Iter:   0  F: -7.049532392015434  |grad|_K:  0.000e+00  t[s]:    114.66
IonicMinimize: Converged (|grad|_K<1.000000e-04).

#--- Lowdin population analysis ---
# oxidation-state Li +2.089
# magnetic-moments Li -0.516

End date and time: Sat Feb  5 22:48:54 2022  (Duration: 0-0:01:54.68)
Done!
