
*************** JDFTx 1.6.0 (git hash 42ebbcc2) ***************

Start date and time: Sat Feb  5 22:46:55 2022
Executable jdftx with command-line: -i Alkali.in
Running on hosts (process indices):  d-5-12-1 (0-18)
Divided in process groups (process indices):  0 (0)  1 (1)  2 (2)  3 (3)  4 (4)  5 (5)  6 (6)  7 (7)  8 (8)  9 (9)  10 (10)  11 (11)  12 (12)  13 (13)  14 (14)  15 (15)  16 (16)  17 (17)  18 (18)
Resource initialization completed at t[s]:      0.00
Run totals: 19 processes, 48 threads, 0 GPUs


Input parsed successfully to the following command list (including defaults):

basis kpoint-dependent
coords-type Lattice
core-overlap-check vector
coulomb-interaction Slab 001
davidson-band-ratio 1.1
dump End None
dump-name $INPUT.$VAR
elec-cutoff 20
elec-eigen-algo Davidson
elec-ex-corr gga-PBE
elec-initial-magnetization -0.840000 yes
elec-smearing Fermi 1e-05
electronic-minimize  \
	dirUpdateScheme      FletcherReeves \
	linminMethod         DirUpdateRecommended \
	nIterations          100 \
	history              15 \
	knormThreshold       0 \
	energyDiffThreshold  1e-08 \
	nEnergyDiff          2 \
	alphaTstart          1 \
	alphaTmin            1e-10 \
	updateTestStepSize   yes \
	alphaTreduceFactor   0.1 \
	alphaTincreaseFactor 3 \
	nAlphaAdjustMax      3 \
	wolfeEnergy          0.0001 \
	wolfeGradient        0.9 \
	fdTest               no
electronic-scf  \
	nIterations	10000 \
	energyDiffThreshold	1e-08 \
	residualThreshold	1e-07 \
	mixFraction	0.5 \
	qMetric	0.8 \
	history	10 \
	nEigSteps	2 \
	eigDiffThreshold	1e-08 \
	mixedVariable	Density \
	qKerker	0.8 \
	qKappa	-1 \
	verbose	no \
	mixFractionMag	1.5
exchange-regularization WignerSeitzTruncated
fluid None
fluid-ex-corr (null) lda-PZ
fluid-gummel-loop 10 1.000000e-05
fluid-minimize  \
	dirUpdateScheme      PolakRibiere \
	linminMethod         DirUpdateRecommended \
	nIterations          100 \
	history              15 \
	knormThreshold       0 \
	energyDiffThreshold  0 \
	nEnergyDiff          2 \
	alphaTstart          1 \
	alphaTmin            1e-10 \
	updateTestStepSize   yes \
	alphaTreduceFactor   0.1 \
	alphaTincreaseFactor 3 \
	nAlphaAdjustMax      3 \
	wolfeEnergy          0.0001 \
	wolfeGradient        0.9 \
	fdTest               no
fluid-solvent H2O 55.338 ScalarEOS \
	epsBulk 78.4 \
	pMol 0.92466 \
	epsInf 1.77 \
	Pvap 1.06736e-10 \
	sigmaBulk 4.62e-05 \
	Rvdw 2.61727 \
	Res 1.42 \
	tauNuc 343133 \
	poleEl 15 7 1
forces-output-coords Positions
ion Li   0.000000000000000   0.000000000000000   0.000000000000000 0
ion-species SG15/$ID_ONCV_PBE.upf
ion-width 0
ionic-minimize  \
	dirUpdateScheme      L-BFGS \
	linminMethod         DirUpdateRecommended \
	nIterations          0 \
	history              15 \
	knormThreshold       0.0001 \
	energyDiffThreshold  1e-06 \
	nEnergyDiff          2 \
	alphaTstart          1 \
	alphaTmin            1e-10 \
	updateTestStepSize   yes \
	alphaTreduceFactor   0.1 \
	alphaTincreaseFactor 3 \
	nAlphaAdjustMax      3 \
	wolfeEnergy          0.0001 \
	wolfeGradient        0.9 \
	fdTest               no
kpoint   0.000000000000   0.000000000000   0.000000000000  1.00000000000000
kpoint-folding 12 12 1 
latt-move-scale 1 1 1
latt-scale 3 3 1 
lattice  \
	   4.727486978767153   -2.363743489383575    0.000000000000000  \
	  -0.000000000000000    4.094123819672498    0.000000000000000  \
	   0.000000000000000    0.000000000000000   40.000000000000000 
lattice-minimize  \
	dirUpdateScheme      L-BFGS \
	linminMethod         DirUpdateRecommended \
	nIterations          0 \
	history              15 \
	knormThreshold       0 \
	energyDiffThreshold  1e-06 \
	nEnergyDiff          2 \
	alphaTstart          1 \
	alphaTmin            1e-10 \
	updateTestStepSize   yes \
	alphaTreduceFactor   0.1 \
	alphaTincreaseFactor 3 \
	nAlphaAdjustMax      3 \
	wolfeEnergy          0.0001 \
	wolfeGradient        0.9 \
	fdTest               no
lcao-params -1 1e-06 1e-05
pcm-variant GLSSA13
spintype z-spin
subspace-rotation-factor 1 yes
symmetries automatic
symmetry-threshold 0.0001



---------- Setting up symmetries ----------

Found 24 point-group symmetries of the bravais lattice
Found 24 space-group symmetries with basis
Applied RMS atom displacement 0 bohrs to make symmetries exact.

---------- Initializing the Grid ----------
R = 
[      14.1825     -7.09123            0  ]
[            0      12.2824            0  ]
[            0            0           40  ]
unit cell volume = 6967.77
G =
[   0.443025   0.255781         -0  ]
[          0   0.511561         -0  ]
[         -0         -0    0.15708  ]
Minimum fftbox size, Smin = [  60  60  164  ]
Chosen fftbox size, S = [  60  60  168  ]

---------- Exchange Correlation functional ----------
Initalized PBE GGA exchange.
Initalized PBE GGA correlation.

---------- Setting up pseudopotentials ----------
Width of ionic core gaussian charges (only for fluid interactions / plotting) set to 0

Reading pseudopotential file '/home/gridsan/aligho/DFT/build-Nov24/pseudopotentials/SG15/Li_ONCV_PBE.upf':
  'Li' pseudopotential, 'PBE' functional
  Generated using ONCVPSP code by D. R. Hamann
  Author: Martin Schlipf and Francois Gygi  Date: 150915.
  3 valence electrons, 2 orbitals, 4 projectors, 1328 radial grid points, with lMax = 1
  Transforming local potential to a uniform radial grid of dG=0.02 with 1489 points.
  Transforming nonlocal projectors to a uniform radial grid of dG=0.02 with 432 points.
    1S    l: 0   occupation:  2.0   eigenvalue: -1.905623
    2S    l: 0   occupation:  1.0   eigenvalue: -0.105624
  Transforming atomic orbitals to a uniform radial grid of dG=0.02 with 432 points.
  WARNING: large normalization error in atomic orbital 1s (integral: 0.000000).
  Core radius for overlap checks: 1.63 bohrs.
  Reading pulay file /home/gridsan/aligho/DFT/build-Nov24/pseudopotentials/SG15/Li_ONCV_PBE.pulay ... using dE_dnG = -1.230239e-02 computed for Ecut = 20.

Initialized 1 species with 1 total atoms.

Folded 1 k-points by 12x12x1 to 144 k-points.

---------- Setting up k-points, bands, fillings ----------
Reduced to 19 k-points under symmetry. 
Computing the number of bands and number of electrons
Calculating initial fillings.
nElectrons:   3.000000   nBands: 3   nStates: 38

----- Setting up reduced wavefunction bases (one per k-point) -----
average nbasis = 29766.104 , ideal nbasis = 29766.845

---------- Setting up coulomb interaction ----------
Initialized slab truncation along lattice direction 001

---------- Setting up 2D ewald sum ----------
Optimum gaussian width for ewald sums = 7.873530 bohr.
Real space sums over 289 unit cells with max indices [  8  8  0  ]
Reciprocal space sums over 81 terms with max indices [  4  4  0  ]

---------- Allocating electronic variables ----------
Initializing wave functions:  linear combination of atomic orbitals
Note: number of bands (3) exceeds available atomic orbitals (2)
Li pseudo-atom occupations:   s ( 2 1 )
	FillingsUpdate:  mu: +0.341252289  nElectrons: 3.000000  magneticMoment: [ Abs: 0.84000  Tot: -0.84000 ]
LCAOMinimize: Iter:   0  F: -1.2788089352840957  |grad|_K:  4.322e-05  alpha:  1.000e+00
	FillingsUpdate:  mu: +0.341251710  nElectrons: 3.000000  magneticMoment: [ Abs: 0.84000  Tot: -0.84000 ]
LCAOMinimize: Iter:   1  F: -1.2788092735987340  |grad|_K:  3.435e-07  alpha:  1.059e+00  linmin: -9.629e-04  cgtest:  6.800e-03  t[s]:      7.49
	FillingsUpdate:  mu: +0.341251710  nElectrons: 3.000000  magneticMoment: [ Abs: 0.84000  Tot: -0.84000 ]
LCAOMinimize: Iter:   2  F: -1.2788092736195065  |grad|_K:  1.789e-08  alpha:  1.002e+00  linmin: -1.768e-02  cgtest:  5.728e-01  t[s]:      9.46
LCAOMinimize: Encountered beta<0, resetting CG.
LCAOMinimize: Converged (|Delta F|<1.000000e-06 for 2 iters).


---- Citations for features of the code used in this run ----

   Software package:
      R. Sundararaman, K. Letchworth-Weaver, K.A. Schwarz, D. Gunceler, Y. Ozhabes and T.A. Arias, 'JDFTx: software for joint density-functional theory', SoftwareX 6, 278 (2017)

   gga-PBE exchange-correlation functional:
      J.P. Perdew, K. Burke and M. Ernzerhof, Phys. Rev. Lett. 77, 3865 (1996)

   Pseudopotentials:
      M Schlipf and F Gygi, Comput. Phys. Commun. 196, 36 (2015)

   Truncated Coulomb potentials:
      R. Sundararaman and T.A. Arias, Phys. Rev. B 87, 165122 (2013)

This list may not be complete. Please suggest additional citations or
report any other bugs at https://github.com/shankar1729/jdftx/issues

Initialization completed successfully at t[s]:      9.55


-------- Electronic minimization -----------
Will mix electronic density at each iteration.
	FillingsUpdate:  mu: +0.341251710  nElectrons: 3.000000  magneticMoment: [ Abs: 0.84000  Tot: -0.84000 ]
	FillingsUpdate:  mu: -0.698763719  nElectrons: 3.000000  magneticMoment: [ Abs: 0.84000  Tot: -0.84000 ]
SCF: Cycle:  0   F: -6.889159389510059   dF: -5.610e+00   |Residual|: 1.224e+00   |deigs|: 4.155e+00  t[s]:     12.99
	FillingsUpdate:  mu: -0.572565533  nElectrons: 3.000000  magneticMoment: [ Abs: 1.33582  Tot: -0.84000 ]
SCF: Cycle:  1   F: -6.917431084666672   dF: -2.827e-02   |Residual|: 7.662e-01   |deigs|: 2.726e-01  t[s]:     15.71
	FillingsUpdate:  mu: -0.380378223  nElectrons: 3.000000  magneticMoment: [ Abs: 1.83956  Tot: -0.84000 ]
SCF: Cycle:  2   F: -7.039362973879646   dF: -1.219e-01   |Residual|: 3.327e-01   |deigs|: 7.087e-01  t[s]:     18.45
	FillingsUpdate:  mu: -0.387936114  nElectrons: 3.000000  magneticMoment: [ Abs: 1.61232  Tot: -0.84000 ]
SCF: Cycle:  3   F: -7.040864572463454   dF: -1.502e-03   |Residual|: 1.583e-01   |deigs|: 9.392e-02  t[s]:     21.26
	FillingsUpdate:  mu: -0.335468655  nElectrons: 3.000000  magneticMoment: [ Abs: 1.32768  Tot: -0.84000 ]
SCF: Cycle:  4   F: -7.045569188379423   dF: -4.705e-03   |Residual|: 3.675e-02   |deigs|: 4.849e-02  t[s]:     24.15
	FillingsUpdate:  mu: -0.313416804  nElectrons: 3.000000  magneticMoment: [ Abs: 1.22441  Tot: -0.84000 ]
SCF: Cycle:  5   F: -7.046079004936182   dF: -5.098e-04   |Residual|: 6.493e-02   |deigs|: 2.097e-02  t[s]:     27.12
	FillingsUpdate:  mu: -0.280339935  nElectrons: 3.000000  magneticMoment: [ Abs: 1.02596  Tot: -0.84000 ]
SCF: Cycle:  6   F: -7.047791750940683   dF: -1.713e-03   |Residual|: 3.623e-02   |deigs|: 5.424e-02  t[s]:     30.16
	FillingsUpdate:  mu: -0.263791289  nElectrons: 3.000000  magneticMoment: [ Abs: 0.99742  Tot: -0.84000 ]
SCF: Cycle:  7   F: -7.049497930932066   dF: -1.706e-03   |Residual|: 3.070e-02   |deigs|: 3.851e-02  t[s]:     33.24
	FillingsUpdate:  mu: -0.255229933  nElectrons: 3.000000  magneticMoment: [ Abs: 0.97047  Tot: -0.84000 ]
SCF: Cycle:  8   F: -7.050148167866362   dF: -6.502e-04   |Residual|: 4.310e-02   |deigs|: 1.022e-02  t[s]:     36.43
	FillingsUpdate:  mu: -0.235921610  nElectrons: 3.000000  magneticMoment: [ Abs: 0.92078  Tot: -0.84000 ]
SCF: Cycle:  9   F: -7.051060467579225   dF: -9.123e-04   |Residual|: 1.957e-02   |deigs|: 1.590e-02  t[s]:     39.69
	FillingsUpdate:  mu: -0.208414059  nElectrons: 3.000000  magneticMoment: [ Abs: 0.97971  Tot: -0.84000 ]
SCF: Cycle: 10   F: -7.051408873110173   dF: -3.484e-04   |Residual|: 5.548e-02   |deigs|: 2.379e-02  t[s]:     43.01
	FillingsUpdate:  mu: -0.191621852  nElectrons: 3.000000  magneticMoment: [ Abs: 1.02275  Tot: -0.84000 ]
SCF: Cycle: 11   F: -7.051625071831170   dF: -2.162e-04   |Residual|: 1.356e-02   |deigs|: 2.471e-02  t[s]:     46.31
	FillingsUpdate:  mu: -0.172823347  nElectrons: 3.000000  magneticMoment: [ Abs: 1.04419  Tot: -0.84000 ]
SCF: Cycle: 12   F: -7.051704464617950   dF: -7.939e-05   |Residual|: 9.748e-03   |deigs|: 1.982e-02  t[s]:     49.66
	FillingsUpdate:  mu: -0.154138974  nElectrons: 3.000000  magneticMoment: [ Abs: 1.03609  Tot: -0.84000 ]
SCF: Cycle: 13   F: -7.051695770164608   dF: +8.694e-06   |Residual|: 8.173e-03   |deigs|: 2.031e-02  t[s]:     52.91
	FillingsUpdate:  mu: -0.138334427  nElectrons: 3.000000  magneticMoment: [ Abs: 0.99823  Tot: -0.84000 ]
SCF: Cycle: 14   F: -7.051716955420748   dF: -2.119e-05   |Residual|: 8.023e-03   |deigs|: 1.615e-02  t[s]:     56.23
	FillingsUpdate:  mu: -0.122744293  nElectrons: 3.000000  magneticMoment: [ Abs: 0.96826  Tot: -0.84000 ]
SCF: Cycle: 15   F: -7.051874612379551   dF: -1.577e-04   |Residual|: 6.796e-03   |deigs|: 1.607e-02  t[s]:     59.48
	FillingsUpdate:  mu: -0.108906573  nElectrons: 3.000000  magneticMoment: [ Abs: 0.91342  Tot: -0.84000 ]
SCF: Cycle: 16   F: -7.052135977906605   dF: -2.614e-04   |Residual|: 4.553e-03   |deigs|: 1.502e-02  t[s]:     62.86
	FillingsUpdate:  mu: -0.102279265  nElectrons: 3.000000  magneticMoment: [ Abs: 0.88917  Tot: -0.84000 ]
SCF: Cycle: 17   F: -7.052257892424479   dF: -1.219e-04   |Residual|: 3.174e-03   |deigs|: 8.247e-03  t[s]:     66.13
	FillingsUpdate:  mu: -0.101169245  nElectrons: 3.000000  magneticMoment: [ Abs: 0.87165  Tot: -0.84000 ]
SCF: Cycle: 18   F: -7.052307597292178   dF: -4.970e-05   |Residual|: 2.115e-03   |deigs|: 1.711e-03  t[s]:     69.37
	FillingsUpdate:  mu: -0.100562358  nElectrons: 3.000000  magneticMoment: [ Abs: 0.86727  Tot: -0.84000 ]
SCF: Cycle: 19   F: -7.052336361172209   dF: -2.876e-05   |Residual|: 1.340e-03   |deigs|: 1.012e-03  t[s]:     72.75
	FillingsUpdate:  mu: -0.100403988  nElectrons: 3.000000  magneticMoment: [ Abs: 0.86235  Tot: -0.84000 ]
SCF: Cycle: 20   F: -7.052358634345479   dF: -2.227e-05   |Residual|: 8.497e-04   |deigs|: 1.060e-03  t[s]:     76.02
	FillingsUpdate:  mu: -0.100764344  nElectrons: 3.000000  magneticMoment: [ Abs: 0.85720  Tot: -0.84000 ]
SCF: Cycle: 21   F: -7.052372236340238   dF: -1.360e-05   |Residual|: 5.261e-04   |deigs|: 5.895e-04  t[s]:     79.26
	FillingsUpdate:  mu: -0.100900182  nElectrons: 3.000000  magneticMoment: [ Abs: 0.85353  Tot: -0.84000 ]
SCF: Cycle: 22   F: -7.052375961144330   dF: -3.725e-06   |Residual|: 4.067e-04   |deigs|: 2.896e-04  t[s]:     82.52
	FillingsUpdate:  mu: -0.101389217  nElectrons: 3.000000  magneticMoment: [ Abs: 0.84808  Tot: -0.84000 ]
SCF: Cycle: 23   F: -7.052375620511183   dF: +3.406e-07   |Residual|: 3.445e-04   |deigs|: 5.576e-04  t[s]:     85.76
	FillingsUpdate:  mu: -0.101492064  nElectrons: 3.000000  magneticMoment: [ Abs: 0.84389  Tot: -0.84000 ]
SCF: Cycle: 24   F: -7.052378355489259   dF: -2.735e-06   |Residual|: 2.659e-04   |deigs|: 2.329e-04  t[s]:     89.04
	FillingsUpdate:  mu: -0.101651491  nElectrons: 3.000000  magneticMoment: [ Abs: 0.84136  Tot: -0.84000 ]
SCF: Cycle: 25   F: -7.052379616158855   dF: -1.261e-06   |Residual|: 1.816e-04   |deigs|: 2.146e-04  t[s]:     92.39
	FillingsUpdate:  mu: -0.101824025  nElectrons: 3.000000  magneticMoment: [ Abs: 0.84042  Tot: -0.84000 ]
SCF: Cycle: 26   F: -7.052380441983930   dF: -8.258e-07   |Residual|: 1.159e-04   |deigs|: 2.365e-04  t[s]:     95.65
	FillingsUpdate:  mu: -0.101930593  nElectrons: 3.000000  magneticMoment: [ Abs: 0.84014  Tot: -0.84000 ]
SCF: Cycle: 27   F: -7.052380791046588   dF: -3.491e-07   |Residual|: 7.856e-05   |deigs|: 1.364e-04  t[s]:     98.91
	FillingsUpdate:  mu: -0.101941728  nElectrons: 3.000000  magneticMoment: [ Abs: 0.84008  Tot: -0.84000 ]
SCF: Cycle: 28   F: -7.052380885030406   dF: -9.398e-08   |Residual|: 6.216e-05   |deigs|: 7.736e-05  t[s]:    102.16
	FillingsUpdate:  mu: -0.101879862  nElectrons: 3.000000  magneticMoment: [ Abs: 0.84002  Tot: -0.84000 ]
SCF: Cycle: 29   F: -7.052380854833283   dF: +3.020e-08   |Residual|: 5.248e-05   |deigs|: 1.213e-04  t[s]:    105.45
	FillingsUpdate:  mu: -0.101724448  nElectrons: 3.000000  magneticMoment: [ Abs: 0.84011  Tot: -0.84000 ]
SCF: Cycle: 30   F: -7.052380912827168   dF: -5.799e-08   |Residual|: 4.329e-05   |deigs|: 1.756e-04  t[s]:    108.74
	FillingsUpdate:  mu: -0.101652684  nElectrons: 3.000000  magneticMoment: [ Abs: 0.84004  Tot: -0.84000 ]
SCF: Cycle: 31   F: -7.052380886084943   dF: +2.674e-08   |Residual|: 3.282e-05   |deigs|: 7.905e-05  t[s]:    111.94
	FillingsUpdate:  mu: -0.101631144  nElectrons: 3.000000  magneticMoment: [ Abs: 0.84003  Tot: -0.84000 ]
SCF: Cycle: 32   F: -7.052380992314927   dF: -1.062e-07   |Residual|: 1.787e-05   |deigs|: 3.109e-05  t[s]:    115.22
	FillingsUpdate:  mu: -0.101629912  nElectrons: 3.000000  magneticMoment: [ Abs: 0.84002  Tot: -0.84000 ]
SCF: Cycle: 33   F: -7.052381027890250   dF: -3.558e-08   |Residual|: 1.049e-05   |deigs|: 1.690e-05  t[s]:    118.51
	FillingsUpdate:  mu: -0.101624276  nElectrons: 3.000000  magneticMoment: [ Abs: 0.84000  Tot: -0.84000 ]
SCF: Cycle: 34   F: -7.052381036653680   dF: -8.763e-09   |Residual|: 7.358e-06   |deigs|: 1.288e-05  t[s]:    121.77
	FillingsUpdate:  mu: -0.101620910  nElectrons: 3.000000  magneticMoment: [ Abs: 0.84000  Tot: -0.84000 ]
SCF: Cycle: 35   F: -7.052381041427684   dF: -4.774e-09   |Residual|: 4.982e-06   |deigs|: 1.049e-05  t[s]:    125.00
SCF: Converged (|Delta E|<1.000000e-08 for 2 iters).


# Ionic positions in lattice coordinates:
ion Li   0.000000000000000   0.000000000000000   0.000000000000000 0

# Forces in Lattice coordinates:
force Li   0.000000000000000  -0.000000000000000   0.000000000000000 0

# Energy components:
   Eewald =       -1.3368908222468645
       EH =        2.2234271245580106
     Eloc =       -7.5694640836182154
      Enl =       -3.6050026640752799
   Epulay =       -0.0000013080581827
      Exc =       -1.5441200046519707
       KE =        4.7796713740217571
-------------------------------------
     Etot =       -7.0523803840707453
       TS =        0.0000006573569390
-------------------------------------
        F =       -7.0523810414276840

IonicMinimize: Iter:   0  F: -7.052381041427684  |grad|_K:  0.000e+00  t[s]:    125.14
IonicMinimize: Converged (|grad|_K<1.000000e-04).

#--- Lowdin population analysis ---
# oxidation-state Li +2.072
# magnetic-moments Li -0.776

End date and time: Sat Feb  5 22:49:00 2022  (Duration: 0-0:02:05.16)
Done!
