
*************** JDFTx 1.6.0 (git hash 42ebbcc2) ***************

Start date and time: Sat Feb  5 22:53:09 2022
Executable jdftx with command-line: -i Alkali.in
Running on hosts (process indices):  d-17-1-1 (0-18)
Divided in process groups (process indices):  0 (0)  1 (1)  2 (2)  3 (3)  4 (4)  5 (5)  6 (6)  7 (7)  8 (8)  9 (9)  10 (10)  11 (11)  12 (12)  13 (13)  14 (14)  15 (15)  16 (16)  17 (17)  18 (18)
Resource initialization completed at t[s]:      0.00
Run totals: 19 processes, 48 threads, 0 GPUs


Input parsed successfully to the following command list (including defaults):

basis kpoint-dependent
coords-type Lattice
core-overlap-check vector
coulomb-interaction Slab 001
davidson-band-ratio 1.1
dump End None
dump-name $INPUT.$VAR
elec-cutoff 20
elec-eigen-algo Davidson
elec-ex-corr gga-PBE
elec-initial-magnetization -0.520000 yes
elec-smearing Fermi 1e-05
electronic-minimize  \
	dirUpdateScheme      FletcherReeves \
	linminMethod         DirUpdateRecommended \
	nIterations          100 \
	history              15 \
	knormThreshold       0 \
	energyDiffThreshold  1e-08 \
	nEnergyDiff          2 \
	alphaTstart          1 \
	alphaTmin            1e-10 \
	updateTestStepSize   yes \
	alphaTreduceFactor   0.1 \
	alphaTincreaseFactor 3 \
	nAlphaAdjustMax      3 \
	wolfeEnergy          0.0001 \
	wolfeGradient        0.9 \
	fdTest               no
electronic-scf  \
	nIterations	10000 \
	energyDiffThreshold	1e-08 \
	residualThreshold	1e-07 \
	mixFraction	0.5 \
	qMetric	0.8 \
	history	10 \
	nEigSteps	2 \
	eigDiffThreshold	1e-08 \
	mixedVariable	Density \
	qKerker	0.8 \
	qKappa	-1 \
	verbose	no \
	mixFractionMag	1.5
exchange-regularization WignerSeitzTruncated
fluid None
fluid-ex-corr (null) lda-PZ
fluid-gummel-loop 10 1.000000e-05
fluid-minimize  \
	dirUpdateScheme      PolakRibiere \
	linminMethod         DirUpdateRecommended \
	nIterations          100 \
	history              15 \
	knormThreshold       0 \
	energyDiffThreshold  0 \
	nEnergyDiff          2 \
	alphaTstart          1 \
	alphaTmin            1e-10 \
	updateTestStepSize   yes \
	alphaTreduceFactor   0.1 \
	alphaTincreaseFactor 3 \
	nAlphaAdjustMax      3 \
	wolfeEnergy          0.0001 \
	wolfeGradient        0.9 \
	fdTest               no
fluid-solvent H2O 55.338 ScalarEOS \
	epsBulk 78.4 \
	pMol 0.92466 \
	epsInf 1.77 \
	Pvap 1.06736e-10 \
	sigmaBulk 4.62e-05 \
	Rvdw 2.61727 \
	Res 1.42 \
	tauNuc 343133 \
	poleEl 15 7 1
forces-output-coords Positions
ion Li   0.000000000000000   0.000000000000000   0.000000000000000 0
ion-species SG15/$ID_ONCV_PBE.upf
ion-width 0
ionic-minimize  \
	dirUpdateScheme      L-BFGS \
	linminMethod         DirUpdateRecommended \
	nIterations          0 \
	history              15 \
	knormThreshold       0.0001 \
	energyDiffThreshold  1e-06 \
	nEnergyDiff          2 \
	alphaTstart          1 \
	alphaTmin            1e-10 \
	updateTestStepSize   yes \
	alphaTreduceFactor   0.1 \
	alphaTincreaseFactor 3 \
	nAlphaAdjustMax      3 \
	wolfeEnergy          0.0001 \
	wolfeGradient        0.9 \
	fdTest               no
kpoint   0.000000000000   0.000000000000   0.000000000000  1.00000000000000
kpoint-folding 12 12 1 
latt-move-scale 1 1 1
latt-scale 3 3 1 
lattice  \
	   4.727486978767153   -2.363743489383575    0.000000000000000  \
	  -0.000000000000000    4.094123819672498    0.000000000000000  \
	   0.000000000000000    0.000000000000000   40.000000000000000 
lattice-minimize  \
	dirUpdateScheme      L-BFGS \
	linminMethod         DirUpdateRecommended \
	nIterations          0 \
	history              15 \
	knormThreshold       0 \
	energyDiffThreshold  1e-06 \
	nEnergyDiff          2 \
	alphaTstart          1 \
	alphaTmin            1e-10 \
	updateTestStepSize   yes \
	alphaTreduceFactor   0.1 \
	alphaTincreaseFactor 3 \
	nAlphaAdjustMax      3 \
	wolfeEnergy          0.0001 \
	wolfeGradient        0.9 \
	fdTest               no
lcao-params -1 1e-06 1e-05
pcm-variant GLSSA13
spintype z-spin
subspace-rotation-factor 1 yes
symmetries automatic
symmetry-threshold 0.0001



---------- Setting up symmetries ----------

Found 24 point-group symmetries of the bravais lattice
Found 24 space-group symmetries with basis
Applied RMS atom displacement 0 bohrs to make symmetries exact.

---------- Initializing the Grid ----------
R = 
[      14.1825     -7.09123            0  ]
[            0      12.2824            0  ]
[            0            0           40  ]
unit cell volume = 6967.77
G =
[   0.443025   0.255781         -0  ]
[          0   0.511561         -0  ]
[         -0         -0    0.15708  ]
Minimum fftbox size, Smin = [  60  60  164  ]
Chosen fftbox size, S = [  60  60  168  ]

---------- Exchange Correlation functional ----------
Initalized PBE GGA exchange.
Initalized PBE GGA correlation.

---------- Setting up pseudopotentials ----------
Width of ionic core gaussian charges (only for fluid interactions / plotting) set to 0

Reading pseudopotential file '/home/gridsan/aligho/DFT/build-Nov24/pseudopotentials/SG15/Li_ONCV_PBE.upf':
  'Li' pseudopotential, 'PBE' functional
  Generated using ONCVPSP code by D. R. Hamann
  Author: Martin Schlipf and Francois Gygi  Date: 150915.
  3 valence electrons, 2 orbitals, 4 projectors, 1328 radial grid points, with lMax = 1
  Transforming local potential to a uniform radial grid of dG=0.02 with 1489 points.
  Transforming nonlocal projectors to a uniform radial grid of dG=0.02 with 432 points.
    1S    l: 0   occupation:  2.0   eigenvalue: -1.905623
    2S    l: 0   occupation:  1.0   eigenvalue: -0.105624
  Transforming atomic orbitals to a uniform radial grid of dG=0.02 with 432 points.
  WARNING: large normalization error in atomic orbital 1s (integral: 0.000000).
  Core radius for overlap checks: 1.63 bohrs.
  Reading pulay file /home/gridsan/aligho/DFT/build-Nov24/pseudopotentials/SG15/Li_ONCV_PBE.pulay ... using dE_dnG = -1.230239e-02 computed for Ecut = 20.

Initialized 1 species with 1 total atoms.

Folded 1 k-points by 12x12x1 to 144 k-points.

---------- Setting up k-points, bands, fillings ----------
Reduced to 19 k-points under symmetry. 
Computing the number of bands and number of electrons
Calculating initial fillings.
nElectrons:   3.000000   nBands: 3   nStates: 38

----- Setting up reduced wavefunction bases (one per k-point) -----
average nbasis = 29766.104 , ideal nbasis = 29766.845

---------- Setting up coulomb interaction ----------
Initialized slab truncation along lattice direction 001

---------- Setting up 2D ewald sum ----------
Optimum gaussian width for ewald sums = 7.873530 bohr.
Real space sums over 289 unit cells with max indices [  8  8  0  ]
Reciprocal space sums over 81 terms with max indices [  4  4  0  ]

---------- Allocating electronic variables ----------
Initializing wave functions:  linear combination of atomic orbitals
Note: number of bands (3) exceeds available atomic orbitals (2)
Li pseudo-atom occupations:   s ( 2 1 )
	FillingsUpdate:  mu: +0.348056203  nElectrons: 3.000000  magneticMoment: [ Abs: 0.52020  Tot: -0.52000 ]
LCAOMinimize: Iter:   0  F: -1.2855736895101977  |grad|_K:  4.846e-05  alpha:  1.000e+00
	FillingsUpdate:  mu: +0.348055638  nElectrons: 3.000000  magneticMoment: [ Abs: 0.52020  Tot: -0.52000 ]
LCAOMinimize: Iter:   1  F: -1.2855741141644739  |grad|_K:  4.829e-07  alpha:  1.057e+00  linmin: -1.090e-03  cgtest:  9.720e-03  t[s]:      7.33
	FillingsUpdate:  mu: +0.348055640  nElectrons: 3.000000  magneticMoment: [ Abs: 0.52020  Tot: -0.52000 ]
LCAOMinimize: Iter:   2  F: -1.2855741142073149  |grad|_K:  3.342e-08  alpha:  1.072e+00  linmin:  1.765e-02  cgtest: -9.320e-01  t[s]:      9.27
LCAOMinimize: Converged (|Delta F|<1.000000e-06 for 2 iters).


---- Citations for features of the code used in this run ----

   Software package:
      R. Sundararaman, K. Letchworth-Weaver, K.A. Schwarz, D. Gunceler, Y. Ozhabes and T.A. Arias, 'JDFTx: software for joint density-functional theory', SoftwareX 6, 278 (2017)

   gga-PBE exchange-correlation functional:
      J.P. Perdew, K. Burke and M. Ernzerhof, Phys. Rev. Lett. 77, 3865 (1996)

   Pseudopotentials:
      M Schlipf and F Gygi, Comput. Phys. Commun. 196, 36 (2015)

   Truncated Coulomb potentials:
      R. Sundararaman and T.A. Arias, Phys. Rev. B 87, 165122 (2013)

This list may not be complete. Please suggest additional citations or
report any other bugs at https://github.com/shankar1729/jdftx/issues

Initialization completed successfully at t[s]:      9.36


-------- Electronic minimization -----------
Will mix electronic density at each iteration.
	FillingsUpdate:  mu: +0.348055640  nElectrons: 3.000000  magneticMoment: [ Abs: 0.52020  Tot: -0.52000 ]
	FillingsUpdate:  mu: -0.693678926  nElectrons: 3.000000  magneticMoment: [ Abs: 0.52020  Tot: -0.52000 ]
SCF: Cycle:  0   F: -6.877305201107582   dF: -5.592e+00   |Residual|: 1.225e+00   |deigs|: 4.156e+00  t[s]:     12.70
	FillingsUpdate:  mu: -0.569869533  nElectrons: 3.000000  magneticMoment: [ Abs: 0.82307  Tot: -0.52000 ]
SCF: Cycle:  1   F: -6.918168398490191   dF: -4.086e-02   |Residual|: 7.631e-01   |deigs|: 2.738e-01  t[s]:     15.42
	FillingsUpdate:  mu: -0.358666909  nElectrons: 3.000000  magneticMoment: [ Abs: 1.13294  Tot: -0.52000 ]
SCF: Cycle:  2   F: -7.038554698590374   dF: -1.204e-01   |Residual|: 3.292e-01   |deigs|: 7.085e-01  t[s]:     18.12
	FillingsUpdate:  mu: -0.368991168  nElectrons: 3.000000  magneticMoment: [ Abs: 1.03752  Tot: -0.52000 ]
SCF: Cycle:  3   F: -7.040130051206243   dF: -1.575e-03   |Residual|: 1.813e-01   |deigs|: 8.063e-02  t[s]:     20.87
	FillingsUpdate:  mu: -0.324957837  nElectrons: 3.000000  magneticMoment: [ Abs: 0.90474  Tot: -0.52000 ]
SCF: Cycle:  4   F: -7.042443510080701   dF: -2.313e-03   |Residual|: 4.573e-02   |deigs|: 3.488e-02  t[s]:     23.66
	FillingsUpdate:  mu: -0.308319660  nElectrons: 3.000000  magneticMoment: [ Abs: 0.84036  Tot: -0.52000 ]
SCF: Cycle:  5   F: -7.042046914202967   dF: +3.966e-04   |Residual|: 9.174e-02   |deigs|: 1.603e-02  t[s]:     26.51
	FillingsUpdate:  mu: -0.266028482  nElectrons: 3.000000  magneticMoment: [ Abs: 0.65370  Tot: -0.52000 ]
SCF: Cycle:  6   F: -7.045278805383653   dF: -3.232e-03   |Residual|: 3.605e-02   |deigs|: 8.339e-02  t[s]:     29.42
	FillingsUpdate:  mu: -0.251938098  nElectrons: 3.000000  magneticMoment: [ Abs: 0.62467  Tot: -0.52000 ]
SCF: Cycle:  7   F: -7.046440211973921   dF: -1.161e-03   |Residual|: 8.073e-02   |deigs|: 4.676e-02  t[s]:     32.40
	FillingsUpdate:  mu: -0.253358363  nElectrons: 3.000000  magneticMoment: [ Abs: 0.58759  Tot: -0.52000 ]
SCF: Cycle:  8   F: -7.046511566802277   dF: -7.135e-05   |Residual|: 5.796e-02   |deigs|: 1.276e-02  t[s]:     35.43
	FillingsUpdate:  mu: -0.224508338  nElectrons: 3.000000  magneticMoment: [ Abs: 0.59527  Tot: -0.52000 ]
SCF: Cycle:  9   F: -7.047632890818526   dF: -1.121e-03   |Residual|: 5.895e-02   |deigs|: 3.438e-02  t[s]:     38.52
	FillingsUpdate:  mu: -0.203600005  nElectrons: 3.000000  magneticMoment: [ Abs: 0.62001  Tot: -0.52000 ]
SCF: Cycle: 10   F: -7.048034635250324   dF: -4.017e-04   |Residual|: 3.354e-02   |deigs|: 2.131e-02  t[s]:     41.69
	FillingsUpdate:  mu: -0.179566069  nElectrons: 3.000000  magneticMoment: [ Abs: 0.67934  Tot: -0.52000 ]
SCF: Cycle: 11   F: -7.048441161414991   dF: -4.065e-04   |Residual|: 1.218e-02   |deigs|: 2.766e-02  t[s]:     44.90
	FillingsUpdate:  mu: -0.168685222  nElectrons: 3.000000  magneticMoment: [ Abs: 0.67850  Tot: -0.52000 ]
SCF: Cycle: 12   F: -7.048754412346348   dF: -3.133e-04   |Residual|: 1.023e-02   |deigs|: 1.208e-02  t[s]:     48.02
	FillingsUpdate:  mu: -0.145835161  nElectrons: 3.000000  magneticMoment: [ Abs: 0.67577  Tot: -0.52000 ]
SCF: Cycle: 13   F: -7.048566735765914   dF: +1.877e-04   |Residual|: 7.808e-03   |deigs|: 2.375e-02  t[s]:     51.25
	FillingsUpdate:  mu: -0.135114839  nElectrons: 3.000000  magneticMoment: [ Abs: 0.65642  Tot: -0.52000 ]
SCF: Cycle: 14   F: -7.048552825886325   dF: +1.391e-05   |Residual|: 6.955e-03   |deigs|: 1.061e-02  t[s]:     54.44
	FillingsUpdate:  mu: -0.123284665  nElectrons: 3.000000  magneticMoment: [ Abs: 0.62805  Tot: -0.52000 ]
SCF: Cycle: 15   F: -7.048630381150431   dF: -7.756e-05   |Residual|: 6.099e-03   |deigs|: 1.225e-02  t[s]:     57.61
	FillingsUpdate:  mu: -0.115309252  nElectrons: 3.000000  magneticMoment: [ Abs: 0.59433  Tot: -0.52000 ]
SCF: Cycle: 16   F: -7.048876849296658   dF: -2.465e-04   |Residual|: 4.585e-03   |deigs|: 8.218e-03  t[s]:     60.82
	FillingsUpdate:  mu: -0.107362665  nElectrons: 3.000000  magneticMoment: [ Abs: 0.56236  Tot: -0.52000 ]
SCF: Cycle: 17   F: -7.049093513768093   dF: -2.167e-04   |Residual|: 2.944e-03   |deigs|: 8.887e-03  t[s]:     63.97
	FillingsUpdate:  mu: -0.105961878  nElectrons: 3.000000  magneticMoment: [ Abs: 0.54886  Tot: -0.52000 ]
SCF: Cycle: 18   F: -7.049172502522987   dF: -7.899e-05   |Residual|: 1.710e-03   |deigs|: 2.173e-03  t[s]:     67.24
	FillingsUpdate:  mu: -0.105508879  nElectrons: 3.000000  magneticMoment: [ Abs: 0.54078  Tot: -0.52000 ]
SCF: Cycle: 19   F: -7.049207183938636   dF: -3.468e-05   |Residual|: 1.134e-03   |deigs|: 8.151e-04  t[s]:     70.35
	FillingsUpdate:  mu: -0.105296471  nElectrons: 3.000000  magneticMoment: [ Abs: 0.53534  Tot: -0.52000 ]
SCF: Cycle: 20   F: -7.049224555184214   dF: -1.737e-05   |Residual|: 5.515e-04   |deigs|: 2.784e-04  t[s]:     73.51
	FillingsUpdate:  mu: -0.105346695  nElectrons: 3.000000  magneticMoment: [ Abs: 0.53143  Tot: -0.52000 ]
SCF: Cycle: 21   F: -7.049229717801118   dF: -5.163e-06   |Residual|: 3.676e-04   |deigs|: 1.776e-04  t[s]:     76.67
	FillingsUpdate:  mu: -0.105390750  nElectrons: 3.000000  magneticMoment: [ Abs: 0.52886  Tot: -0.52000 ]
SCF: Cycle: 22   F: -7.049231032199068   dF: -1.314e-06   |Residual|: 2.862e-04   |deigs|: 1.224e-04  t[s]:     79.83
	FillingsUpdate:  mu: -0.105590971  nElectrons: 3.000000  magneticMoment: [ Abs: 0.52592  Tot: -0.52000 ]
SCF: Cycle: 23   F: -7.049231902299596   dF: -8.701e-07   |Residual|: 2.291e-04   |deigs|: 2.479e-04  t[s]:     83.04
	FillingsUpdate:  mu: -0.105870865  nElectrons: 3.000000  magneticMoment: [ Abs: 0.52301  Tot: -0.52000 ]
SCF: Cycle: 24   F: -7.049232099494626   dF: -1.972e-07   |Residual|: 1.794e-04   |deigs|: 2.765e-04  t[s]:     86.25
	FillingsUpdate:  mu: -0.105959890  nElectrons: 3.000000  magneticMoment: [ Abs: 0.52202  Tot: -0.52000 ]
SCF: Cycle: 25   F: -7.049232242493225   dF: -1.430e-07   |Residual|: 1.465e-04   |deigs|: 1.429e-04  t[s]:     89.44
	FillingsUpdate:  mu: -0.106029770  nElectrons: 3.000000  magneticMoment: [ Abs: 0.52132  Tot: -0.52000 ]
SCF: Cycle: 26   F: -7.049232256445226   dF: -1.395e-08   |Residual|: 1.184e-04   |deigs|: 1.325e-04  t[s]:     92.57
	FillingsUpdate:  mu: -0.106024827  nElectrons: 3.000000  magneticMoment: [ Abs: 0.52075  Tot: -0.52000 ]
SCF: Cycle: 27   F: -7.049232380021770   dF: -1.236e-07   |Residual|: 7.367e-05   |deigs|: 9.712e-05  t[s]:     95.70
	FillingsUpdate:  mu: -0.105962958  nElectrons: 3.000000  magneticMoment: [ Abs: 0.52039  Tot: -0.52000 ]
SCF: Cycle: 28   F: -7.049232571166894   dF: -1.911e-07   |Residual|: 5.960e-05   |deigs|: 9.387e-05  t[s]:     98.89
	FillingsUpdate:  mu: -0.105901660  nElectrons: 3.000000  magneticMoment: [ Abs: 0.52022  Tot: -0.52000 ]
SCF: Cycle: 29   F: -7.049232551122745   dF: +2.004e-08   |Residual|: 5.188e-05   |deigs|: 8.602e-05  t[s]:    102.10
	FillingsUpdate:  mu: -0.105760357  nElectrons: 3.000000  magneticMoment: [ Abs: 0.52018  Tot: -0.52000 ]
SCF: Cycle: 30   F: -7.049232500421982   dF: +5.070e-08   |Residual|: 4.597e-05   |deigs|: 1.419e-04  t[s]:    105.34
	FillingsUpdate:  mu: -0.105664252  nElectrons: 3.000000  magneticMoment: [ Abs: 0.52013  Tot: -0.52000 ]
SCF: Cycle: 31   F: -7.049232613132511   dF: -1.127e-07   |Residual|: 3.560e-05   |deigs|: 9.775e-05  t[s]:    108.52
	FillingsUpdate:  mu: -0.105616893  nElectrons: 3.000000  magneticMoment: [ Abs: 0.52004  Tot: -0.52000 ]
SCF: Cycle: 32   F: -7.049232675185460   dF: -6.205e-08   |Residual|: 2.650e-05   |deigs|: 5.533e-05  t[s]:    111.71
	FillingsUpdate:  mu: -0.105593061  nElectrons: 3.000000  magneticMoment: [ Abs: 0.52000  Tot: -0.52000 ]
SCF: Cycle: 33   F: -7.049232704971854   dF: -2.979e-08   |Residual|: 1.881e-05   |deigs|: 3.489e-05  t[s]:    114.94
	FillingsUpdate:  mu: -0.105581171  nElectrons: 3.000000  magneticMoment: [ Abs: 0.52000  Tot: -0.52000 ]
SCF: Cycle: 34   F: -7.049232741825717   dF: -3.685e-08   |Residual|: 1.268e-05   |deigs|: 2.282e-05  t[s]:    118.09
	FillingsUpdate:  mu: -0.105574043  nElectrons: 3.000000  magneticMoment: [ Abs: 0.52000  Tot: -0.52000 ]
SCF: Cycle: 35   F: -7.049232750963622   dF: -9.138e-09   |Residual|: 8.727e-06   |deigs|: 1.653e-05  t[s]:    121.27
	FillingsUpdate:  mu: -0.105569478  nElectrons: 3.000000  magneticMoment: [ Abs: 0.52000  Tot: -0.52000 ]
SCF: Cycle: 36   F: -7.049232752575961   dF: -1.612e-09   |Residual|: 5.664e-06   |deigs|: 1.165e-05  t[s]:    124.42
SCF: Converged (|Delta E|<1.000000e-08 for 2 iters).


# Ionic positions in lattice coordinates:
ion Li   0.000000000000000   0.000000000000000   0.000000000000000 0

# Forces in Lattice coordinates:
force Li   0.000000000000000  -0.000000000000000   0.000000000000000 0

# Energy components:
   Eewald =       -1.3368908222468645
       EH =        2.2065693849358166
     Eloc =       -7.5480435001738950
      Enl =       -3.6023473690272372
   Epulay =       -0.0000013080581827
      Exc =       -1.5356567192330963
       KE =        4.7671380387954896
-------------------------------------
     Etot =       -7.0492322950079691
       TS =        0.0000004575679921
-------------------------------------
        F =       -7.0492327525759615

IonicMinimize: Iter:   0  F: -7.049232752575961  |grad|_K:  0.000e+00  t[s]:    124.56
IonicMinimize: Converged (|grad|_K<1.000000e-04).

#--- Lowdin population analysis ---
# oxidation-state Li +2.092
# magnetic-moments Li -0.479

End date and time: Sat Feb  5 22:55:13 2022  (Duration: 0-0:02:04.57)
Done!
