
*************** JDFTx 1.6.0 (git hash 42ebbcc2) ***************

Start date and time: Sat Feb  5 22:54:45 2022
Executable jdftx with command-line: -i Alkali.in
Running on hosts (process indices):  d-6-3-2 (0-18)
Divided in process groups (process indices):  0 (0)  1 (1)  2 (2)  3 (3)  4 (4)  5 (5)  6 (6)  7 (7)  8 (8)  9 (9)  10 (10)  11 (11)  12 (12)  13 (13)  14 (14)  15 (15)  16 (16)  17 (17)  18 (18)
Resource initialization completed at t[s]:      0.00
Run totals: 19 processes, 48 threads, 0 GPUs


Input parsed successfully to the following command list (including defaults):

basis kpoint-dependent
coords-type Lattice
core-overlap-check vector
coulomb-interaction Slab 001
davidson-band-ratio 1.1
dump End None
dump-name $INPUT.$VAR
elec-cutoff 20
elec-eigen-algo Davidson
elec-ex-corr gga-PBE
elec-initial-magnetization -0.120000 yes
elec-smearing Fermi 1e-05
electronic-minimize  \
	dirUpdateScheme      FletcherReeves \
	linminMethod         DirUpdateRecommended \
	nIterations          100 \
	history              15 \
	knormThreshold       0 \
	energyDiffThreshold  1e-08 \
	nEnergyDiff          2 \
	alphaTstart          1 \
	alphaTmin            1e-10 \
	updateTestStepSize   yes \
	alphaTreduceFactor   0.1 \
	alphaTincreaseFactor 3 \
	nAlphaAdjustMax      3 \
	wolfeEnergy          0.0001 \
	wolfeGradient        0.9 \
	fdTest               no
electronic-scf  \
	nIterations	10000 \
	energyDiffThreshold	1e-08 \
	residualThreshold	1e-07 \
	mixFraction	0.5 \
	qMetric	0.8 \
	history	10 \
	nEigSteps	2 \
	eigDiffThreshold	1e-08 \
	mixedVariable	Density \
	qKerker	0.8 \
	qKappa	-1 \
	verbose	no \
	mixFractionMag	1.5
exchange-regularization WignerSeitzTruncated
fluid None
fluid-ex-corr (null) lda-PZ
fluid-gummel-loop 10 1.000000e-05
fluid-minimize  \
	dirUpdateScheme      PolakRibiere \
	linminMethod         DirUpdateRecommended \
	nIterations          100 \
	history              15 \
	knormThreshold       0 \
	energyDiffThreshold  0 \
	nEnergyDiff          2 \
	alphaTstart          1 \
	alphaTmin            1e-10 \
	updateTestStepSize   yes \
	alphaTreduceFactor   0.1 \
	alphaTincreaseFactor 3 \
	nAlphaAdjustMax      3 \
	wolfeEnergy          0.0001 \
	wolfeGradient        0.9 \
	fdTest               no
fluid-solvent H2O 55.338 ScalarEOS \
	epsBulk 78.4 \
	pMol 0.92466 \
	epsInf 1.77 \
	Pvap 1.06736e-10 \
	sigmaBulk 4.62e-05 \
	Rvdw 2.61727 \
	Res 1.42 \
	tauNuc 343133 \
	poleEl 15 7 1
forces-output-coords Positions
ion Li   0.000000000000000   0.000000000000000   0.000000000000000 0
ion-species SG15/$ID_ONCV_PBE.upf
ion-width 0
ionic-minimize  \
	dirUpdateScheme      L-BFGS \
	linminMethod         DirUpdateRecommended \
	nIterations          0 \
	history              15 \
	knormThreshold       0.0001 \
	energyDiffThreshold  1e-06 \
	nEnergyDiff          2 \
	alphaTstart          1 \
	alphaTmin            1e-10 \
	updateTestStepSize   yes \
	alphaTreduceFactor   0.1 \
	alphaTincreaseFactor 3 \
	nAlphaAdjustMax      3 \
	wolfeEnergy          0.0001 \
	wolfeGradient        0.9 \
	fdTest               no
kpoint   0.000000000000   0.000000000000   0.000000000000  1.00000000000000
kpoint-folding 12 12 1 
latt-move-scale 1 1 1
latt-scale 3 3 1 
lattice  \
	   4.727486978767153   -2.363743489383575    0.000000000000000  \
	  -0.000000000000000    4.094123819672498    0.000000000000000  \
	   0.000000000000000    0.000000000000000   40.000000000000000 
lattice-minimize  \
	dirUpdateScheme      L-BFGS \
	linminMethod         DirUpdateRecommended \
	nIterations          0 \
	history              15 \
	knormThreshold       0 \
	energyDiffThreshold  1e-06 \
	nEnergyDiff          2 \
	alphaTstart          1 \
	alphaTmin            1e-10 \
	updateTestStepSize   yes \
	alphaTreduceFactor   0.1 \
	alphaTincreaseFactor 3 \
	nAlphaAdjustMax      3 \
	wolfeEnergy          0.0001 \
	wolfeGradient        0.9 \
	fdTest               no
lcao-params -1 1e-06 1e-05
pcm-variant GLSSA13
spintype z-spin
subspace-rotation-factor 1 yes
symmetries automatic
symmetry-threshold 0.0001



---------- Setting up symmetries ----------

Found 24 point-group symmetries of the bravais lattice
Found 24 space-group symmetries with basis
Applied RMS atom displacement 0 bohrs to make symmetries exact.

---------- Initializing the Grid ----------
R = 
[      14.1825     -7.09123            0  ]
[            0      12.2824            0  ]
[            0            0           40  ]
unit cell volume = 6967.77
G =
[   0.443025   0.255781         -0  ]
[          0   0.511561         -0  ]
[         -0         -0    0.15708  ]
Minimum fftbox size, Smin = [  60  60  164  ]
Chosen fftbox size, S = [  60  60  168  ]

---------- Exchange Correlation functional ----------
Initalized PBE GGA exchange.
Initalized PBE GGA correlation.

---------- Setting up pseudopotentials ----------
Width of ionic core gaussian charges (only for fluid interactions / plotting) set to 0

Reading pseudopotential file '/home/gridsan/aligho/DFT/build-Nov24/pseudopotentials/SG15/Li_ONCV_PBE.upf':
  'Li' pseudopotential, 'PBE' functional
  Generated using ONCVPSP code by D. R. Hamann
  Author: Martin Schlipf and Francois Gygi  Date: 150915.
  3 valence electrons, 2 orbitals, 4 projectors, 1328 radial grid points, with lMax = 1
  Transforming local potential to a uniform radial grid of dG=0.02 with 1489 points.
  Transforming nonlocal projectors to a uniform radial grid of dG=0.02 with 432 points.
    1S    l: 0   occupation:  2.0   eigenvalue: -1.905623
    2S    l: 0   occupation:  1.0   eigenvalue: -0.105624
  Transforming atomic orbitals to a uniform radial grid of dG=0.02 with 432 points.
  WARNING: large normalization error in atomic orbital 1s (integral: 0.000000).
  Core radius for overlap checks: 1.63 bohrs.
  Reading pulay file /home/gridsan/aligho/DFT/build-Nov24/pseudopotentials/SG15/Li_ONCV_PBE.pulay ... using dE_dnG = -1.230239e-02 computed for Ecut = 20.

Initialized 1 species with 1 total atoms.

Folded 1 k-points by 12x12x1 to 144 k-points.

---------- Setting up k-points, bands, fillings ----------
Reduced to 19 k-points under symmetry. 
Computing the number of bands and number of electrons
Calculating initial fillings.
nElectrons:   3.000000   nBands: 3   nStates: 38

----- Setting up reduced wavefunction bases (one per k-point) -----
average nbasis = 29766.104 , ideal nbasis = 29766.845

---------- Setting up coulomb interaction ----------
Initialized slab truncation along lattice direction 001

---------- Setting up 2D ewald sum ----------
Optimum gaussian width for ewald sums = 7.873530 bohr.
Real space sums over 289 unit cells with max indices [  8  8  0  ]
Reciprocal space sums over 81 terms with max indices [  4  4  0  ]

---------- Allocating electronic variables ----------
Initializing wave functions:  linear combination of atomic orbitals
Note: number of bands (3) exceeds available atomic orbitals (2)
Li pseudo-atom occupations:   s ( 2 1 )
	FillingsUpdate:  mu: +0.351067550  nElectrons: 3.000000  magneticMoment: [ Abs: 0.13033  Tot: -0.12000 ]
LCAOMinimize: Iter:   0  F: -1.2888960647368575  |grad|_K:  4.835e-05  alpha:  1.000e+00
	FillingsUpdate:  mu: +0.351067029  nElectrons: 3.000000  magneticMoment: [ Abs: 0.13032  Tot: -0.12000 ]
LCAOMinimize: Iter:   1  F: -1.2888964872223971  |grad|_K:  5.136e-07  alpha:  1.057e+00  linmin: -1.117e-03  cgtest:  9.453e-03  t[s]:      7.51
	FillingsUpdate:  mu: +0.351067028  nElectrons: 3.000000  magneticMoment: [ Abs: 0.13032  Tot: -0.12000 ]
LCAOMinimize: Iter:   2  F: -1.2888964872683206  |grad|_K:  5.812e-09  alpha:  1.008e+00  linmin:  1.228e-02  cgtest: -4.994e-01  t[s]:      9.52
LCAOMinimize: Converged (|Delta F|<1.000000e-06 for 2 iters).


---- Citations for features of the code used in this run ----

   Software package:
      R. Sundararaman, K. Letchworth-Weaver, K.A. Schwarz, D. Gunceler, Y. Ozhabes and T.A. Arias, 'JDFTx: software for joint density-functional theory', SoftwareX 6, 278 (2017)

   gga-PBE exchange-correlation functional:
      J.P. Perdew, K. Burke and M. Ernzerhof, Phys. Rev. Lett. 77, 3865 (1996)

   Pseudopotentials:
      M Schlipf and F Gygi, Comput. Phys. Commun. 196, 36 (2015)

   Truncated Coulomb potentials:
      R. Sundararaman and T.A. Arias, Phys. Rev. B 87, 165122 (2013)

This list may not be complete. Please suggest additional citations or
report any other bugs at https://github.com/shankar1729/jdftx/issues

Initialization completed successfully at t[s]:      9.61


-------- Electronic minimization -----------
Will mix electronic density at each iteration.
	FillingsUpdate:  mu: +0.351067028  nElectrons: 3.000000  magneticMoment: [ Abs: 0.13032  Tot: -0.12000 ]
	FillingsUpdate:  mu: -0.693642500  nElectrons: 3.000000  magneticMoment: [ Abs: 0.13032  Tot: -0.12000 ]
SCF: Cycle:  0   F: -6.869287895626605   dF: -5.580e+00   |Residual|: 1.224e+00   |deigs|: 4.156e+00  t[s]:     13.01
	FillingsUpdate:  mu: -0.579790849  nElectrons: 3.000000  magneticMoment: [ Abs: 0.18855  Tot: -0.12000 ]
SCF: Cycle:  1   F: -6.914378803632939   dF: -4.509e-02   |Residual|: 7.610e-01   |deigs|: 2.719e-01  t[s]:     15.69
	FillingsUpdate:  mu: -0.321224972  nElectrons: 3.000000  magneticMoment: [ Abs: 0.26135  Tot: -0.12000 ]
SCF: Cycle:  2   F: -7.040199150971316   dF: -1.258e-01   |Residual|: 3.264e-01   |deigs|: 7.173e-01  t[s]:     18.44
	FillingsUpdate:  mu: -0.355829324  nElectrons: 3.000000  magneticMoment: [ Abs: 0.28167  Tot: -0.12000 ]
SCF: Cycle:  3   F: -7.041617385487606   dF: -1.418e-03   |Residual|: 1.808e-01   |deigs|: 8.520e-02  t[s]:     21.21
	FillingsUpdate:  mu: -0.329359313  nElectrons: 3.000000  magneticMoment: [ Abs: 0.34846  Tot: -0.12000 ]
SCF: Cycle:  4   F: -7.039299794342061   dF: +2.318e-03   |Residual|: 9.016e-02   |deigs|: 2.502e-02  t[s]:     24.09
	FillingsUpdate:  mu: -0.314774049  nElectrons: 3.000000  magneticMoment: [ Abs: 0.31712  Tot: -0.12000 ]
SCF: Cycle:  5   F: -7.039126760036573   dF: +1.730e-04   |Residual|: 9.585e-02   |deigs|: 1.953e-02  t[s]:     27.00
	FillingsUpdate:  mu: -0.270247559  nElectrons: 3.000000  magneticMoment: [ Abs: 0.22209  Tot: -0.12000 ]
SCF: Cycle:  6   F: -7.043252081425158   dF: -4.125e-03   |Residual|: 5.608e-02   |deigs|: 9.985e-02  t[s]:     29.97
	FillingsUpdate:  mu: -0.239327083  nElectrons: 3.000000  magneticMoment: [ Abs: 0.20213  Tot: -0.12000 ]
SCF: Cycle:  7   F: -7.044241096970334   dF: -9.890e-04   |Residual|: 1.701e-01   |deigs|: 7.454e-02  t[s]:     33.01
	FillingsUpdate:  mu: -0.237761261  nElectrons: 3.000000  magneticMoment: [ Abs: 0.14962  Tot: -0.12000 ]
SCF: Cycle:  8   F: -7.045120114601807   dF: -8.790e-04   |Residual|: 7.541e-02   |deigs|: 3.486e-02  t[s]:     36.08
	FillingsUpdate:  mu: -0.224371884  nElectrons: 3.000000  magneticMoment: [ Abs: 0.29761  Tot: -0.12000 ]
SCF: Cycle:  9   F: -7.044530304327056   dF: +5.898e-04   |Residual|: 1.525e-01   |deigs|: 8.417e-02  t[s]:     39.31
	FillingsUpdate:  mu: -0.205495333  nElectrons: 3.000000  magneticMoment: [ Abs: 0.29246  Tot: -0.12000 ]
SCF: Cycle: 10   F: -7.044876048138420   dF: -3.457e-04   |Residual|: 1.656e-01   |deigs|: 1.464e-02  t[s]:     42.57
	FillingsUpdate:  mu: -0.170484872  nElectrons: 3.000000  magneticMoment: [ Abs: 0.24082  Tot: -0.12000 ]
SCF: Cycle: 11   F: -7.046866825403323   dF: -1.991e-03   |Residual|: 2.621e-02   |deigs|: 9.017e-02  t[s]:     45.86
	FillingsUpdate:  mu: -0.158327751  nElectrons: 3.000000  magneticMoment: [ Abs: 0.17786  Tot: -0.12000 ]
SCF: Cycle: 12   F: -7.047061857632801   dF: -1.950e-04   |Residual|: 1.061e-02   |deigs|: 9.995e-03  t[s]:     49.08
	FillingsUpdate:  mu: -0.137768196  nElectrons: 3.000000  magneticMoment: [ Abs: 0.17871  Tot: -0.12000 ]
SCF: Cycle: 13   F: -7.047102335192499   dF: -4.048e-05   |Residual|: 7.407e-03   |deigs|: 2.417e-02  t[s]:     52.43
	FillingsUpdate:  mu: -0.128013141  nElectrons: 3.000000  magneticMoment: [ Abs: 0.17095  Tot: -0.12000 ]
SCF: Cycle: 14   F: -7.047141997870314   dF: -3.966e-05   |Residual|: 6.629e-03   |deigs|: 9.416e-03  t[s]:     55.67
	FillingsUpdate:  mu: -0.119112169  nElectrons: 3.000000  magneticMoment: [ Abs: 0.16579  Tot: -0.12000 ]
SCF: Cycle: 15   F: -7.047132129803418   dF: +9.868e-06   |Residual|: 5.261e-03   |deigs|: 8.156e-03  t[s]:     58.87
	FillingsUpdate:  mu: -0.114385035  nElectrons: 3.000000  magneticMoment: [ Abs: 0.15235  Tot: -0.12000 ]
SCF: Cycle: 16   F: -7.047274990138962   dF: -1.429e-04   |Residual|: 4.218e-03   |deigs|: 4.840e-03  t[s]:     62.05
	FillingsUpdate:  mu: -0.107665554  nElectrons: 3.000000  magneticMoment: [ Abs: 0.14415  Tot: -0.12000 ]
SCF: Cycle: 17   F: -7.047400337962582   dF: -1.253e-04   |Residual|: 2.948e-03   |deigs|: 8.137e-03  t[s]:     65.22
	FillingsUpdate:  mu: -0.105837090  nElectrons: 3.000000  magneticMoment: [ Abs: 0.13434  Tot: -0.12000 ]
SCF: Cycle: 18   F: -7.047457871062407   dF: -5.753e-05   |Residual|: 2.087e-03   |deigs|: 2.528e-03  t[s]:     68.53
	FillingsUpdate:  mu: -0.106587531  nElectrons: 3.000000  magneticMoment: [ Abs: 0.12861  Tot: -0.12000 ]
SCF: Cycle: 19   F: -7.047499065684490   dF: -4.119e-05   |Residual|: 1.164e-03   |deigs|: 7.855e-04  t[s]:     71.72
	FillingsUpdate:  mu: -0.106869002  nElectrons: 3.000000  magneticMoment: [ Abs: 0.12596  Tot: -0.12000 ]
SCF: Cycle: 20   F: -7.047516621298146   dF: -1.756e-05   |Residual|: 7.573e-04   |deigs|: 5.694e-04  t[s]:     74.98
	FillingsUpdate:  mu: -0.107381781  nElectrons: 3.000000  magneticMoment: [ Abs: 0.12430  Tot: -0.12000 ]
SCF: Cycle: 21   F: -7.047522545142837   dF: -5.924e-06   |Residual|: 3.964e-04   |deigs|: 6.044e-04  t[s]:     78.26
	FillingsUpdate:  mu: -0.107102048  nElectrons: 3.000000  magneticMoment: [ Abs: 0.12375  Tot: -0.12000 ]
SCF: Cycle: 22   F: -7.047525491799289   dF: -2.947e-06   |Residual|: 2.421e-04   |deigs|: 2.658e-04  t[s]:     81.48
	FillingsUpdate:  mu: -0.106853824  nElectrons: 3.000000  magneticMoment: [ Abs: 0.12303  Tot: -0.12000 ]
SCF: Cycle: 23   F: -7.047526120701971   dF: -6.289e-07   |Residual|: 1.526e-04   |deigs|: 2.639e-04  t[s]:     84.68
	FillingsUpdate:  mu: -0.106685620  nElectrons: 3.000000  magneticMoment: [ Abs: 0.12252  Tot: -0.12000 ]
SCF: Cycle: 24   F: -7.047526664680898   dF: -5.440e-07   |Residual|: 7.832e-05   |deigs|: 1.759e-04  t[s]:     87.95
	FillingsUpdate:  mu: -0.106652760  nElectrons: 3.000000  magneticMoment: [ Abs: 0.12215  Tot: -0.12000 ]
SCF: Cycle: 25   F: -7.047526742066474   dF: -7.739e-08   |Residual|: 6.093e-05   |deigs|: 1.270e-04  t[s]:     91.23
	FillingsUpdate:  mu: -0.106640675  nElectrons: 3.000000  magneticMoment: [ Abs: 0.12163  Tot: -0.12000 ]
SCF: Cycle: 26   F: -7.047526775994661   dF: -3.393e-08   |Residual|: 4.485e-05   |deigs|: 1.100e-04  t[s]:     94.44
	FillingsUpdate:  mu: -0.106646830  nElectrons: 3.000000  magneticMoment: [ Abs: 0.12109  Tot: -0.12000 ]
SCF: Cycle: 27   F: -7.047526816414897   dF: -4.042e-08   |Residual|: 3.587e-05   |deigs|: 9.291e-05  t[s]:     97.68
	FillingsUpdate:  mu: -0.106655225  nElectrons: 3.000000  magneticMoment: [ Abs: 0.12081  Tot: -0.12000 ]
SCF: Cycle: 28   F: -7.047526807411063   dF: +9.004e-09   |Residual|: 3.055e-05   |deigs|: 7.626e-05  t[s]:    100.87
	FillingsUpdate:  mu: -0.106685909  nElectrons: 3.000000  magneticMoment: [ Abs: 0.12054  Tot: -0.12000 ]
SCF: Cycle: 29   F: -7.047526819365889   dF: -1.195e-08   |Residual|: 2.580e-05   |deigs|: 6.758e-05  t[s]:    104.11
	FillingsUpdate:  mu: -0.106733598  nElectrons: 3.000000  magneticMoment: [ Abs: 0.12027  Tot: -0.12000 ]
SCF: Cycle: 30   F: -7.047526832198299   dF: -1.283e-08   |Residual|: 2.059e-05   |deigs|: 6.705e-05  t[s]:    107.40
	FillingsUpdate:  mu: -0.106755135  nElectrons: 3.000000  magneticMoment: [ Abs: 0.12015  Tot: -0.12000 ]
SCF: Cycle: 31   F: -7.047526838181230   dF: -5.983e-09   |Residual|: 1.759e-05   |deigs|: 3.986e-05  t[s]:    110.63
	FillingsUpdate:  mu: -0.106765911  nElectrons: 3.000000  magneticMoment: [ Abs: 0.12006  Tot: -0.12000 ]
SCF: Cycle: 32   F: -7.047526841714439   dF: -3.533e-09   |Residual|: 1.445e-05   |deigs|: 2.546e-05  t[s]:    113.84
SCF: Converged (|Delta E|<1.000000e-08 for 2 iters).


# Ionic positions in lattice coordinates:
ion Li   0.000000000000000   0.000000000000000   0.000000000000000 0

# Forces in Lattice coordinates:
force Li  -0.000000000000000  -0.000000000000000   0.000000000000000 0

# Energy components:
   Eewald =       -1.3368908222468645
       EH =        2.1951139963036717
     Eloc =       -7.5333719359470992
      Enl =       -3.6005648838260260
   Epulay =       -0.0000013080581827
      Exc =       -1.5305559277413674
       KE =        4.7587449990169048
-------------------------------------
     Etot =       -7.0475258824989648
       TS =        0.0000009592154742
-------------------------------------
        F =       -7.0475268417144390

IonicMinimize: Iter:   0  F: -7.047526841714439  |grad|_K:  0.000e+00  t[s]:    113.98
IonicMinimize: Converged (|grad|_K<1.000000e-04).

#--- Lowdin population analysis ---
# oxidation-state Li +2.106
# magnetic-moments Li -0.111

End date and time: Sat Feb  5 22:56:39 2022  (Duration: 0-0:01:54.00)
Done!
