
*************** JDFTx 1.6.0 (git hash 42ebbcc2) ***************

Start date and time: Sat Feb  5 23:00:45 2022
Executable jdftx with command-line: -i Alkali.in
Running on hosts (process indices):  d-3-7-3 (0-18)
Divided in process groups (process indices):  0 (0)  1 (1)  2 (2)  3 (3)  4 (4)  5 (5)  6 (6)  7 (7)  8 (8)  9 (9)  10 (10)  11 (11)  12 (12)  13 (13)  14 (14)  15 (15)  16 (16)  17 (17)  18 (18)
Resource initialization completed at t[s]:      0.00
Run totals: 19 processes, 48 threads, 0 GPUs


Input parsed successfully to the following command list (including defaults):

basis kpoint-dependent
coords-type Lattice
core-overlap-check vector
coulomb-interaction Slab 001
davidson-band-ratio 1.1
dump End None
dump-name $INPUT.$VAR
elec-cutoff 20
elec-eigen-algo Davidson
elec-ex-corr gga-PBE
elec-initial-magnetization 0.020000 yes
elec-smearing Fermi 1e-05
electronic-minimize  \
	dirUpdateScheme      FletcherReeves \
	linminMethod         DirUpdateRecommended \
	nIterations          100 \
	history              15 \
	knormThreshold       0 \
	energyDiffThreshold  1e-08 \
	nEnergyDiff          2 \
	alphaTstart          1 \
	alphaTmin            1e-10 \
	updateTestStepSize   yes \
	alphaTreduceFactor   0.1 \
	alphaTincreaseFactor 3 \
	nAlphaAdjustMax      3 \
	wolfeEnergy          0.0001 \
	wolfeGradient        0.9 \
	fdTest               no
electronic-scf  \
	nIterations	10000 \
	energyDiffThreshold	1e-08 \
	residualThreshold	1e-07 \
	mixFraction	0.5 \
	qMetric	0.8 \
	history	10 \
	nEigSteps	2 \
	eigDiffThreshold	1e-08 \
	mixedVariable	Density \
	qKerker	0.8 \
	qKappa	-1 \
	verbose	no \
	mixFractionMag	1.5
exchange-regularization WignerSeitzTruncated
fluid None
fluid-ex-corr (null) lda-PZ
fluid-gummel-loop 10 1.000000e-05
fluid-minimize  \
	dirUpdateScheme      PolakRibiere \
	linminMethod         DirUpdateRecommended \
	nIterations          100 \
	history              15 \
	knormThreshold       0 \
	energyDiffThreshold  0 \
	nEnergyDiff          2 \
	alphaTstart          1 \
	alphaTmin            1e-10 \
	updateTestStepSize   yes \
	alphaTreduceFactor   0.1 \
	alphaTincreaseFactor 3 \
	nAlphaAdjustMax      3 \
	wolfeEnergy          0.0001 \
	wolfeGradient        0.9 \
	fdTest               no
fluid-solvent H2O 55.338 ScalarEOS \
	epsBulk 78.4 \
	pMol 0.92466 \
	epsInf 1.77 \
	Pvap 1.06736e-10 \
	sigmaBulk 4.62e-05 \
	Rvdw 2.61727 \
	Res 1.42 \
	tauNuc 343133 \
	poleEl 15 7 1
forces-output-coords Positions
ion Li   0.000000000000000   0.000000000000000   0.000000000000000 0
ion-species SG15/$ID_ONCV_PBE.upf
ion-width 0
ionic-minimize  \
	dirUpdateScheme      L-BFGS \
	linminMethod         DirUpdateRecommended \
	nIterations          0 \
	history              15 \
	knormThreshold       0.0001 \
	energyDiffThreshold  1e-06 \
	nEnergyDiff          2 \
	alphaTstart          1 \
	alphaTmin            1e-10 \
	updateTestStepSize   yes \
	alphaTreduceFactor   0.1 \
	alphaTincreaseFactor 3 \
	nAlphaAdjustMax      3 \
	wolfeEnergy          0.0001 \
	wolfeGradient        0.9 \
	fdTest               no
kpoint   0.000000000000   0.000000000000   0.000000000000  1.00000000000000
kpoint-folding 12 12 1 
latt-move-scale 1 1 1
latt-scale 3 3 1 
lattice  \
	   4.727486978767153   -2.363743489383575    0.000000000000000  \
	  -0.000000000000000    4.094123819672498    0.000000000000000  \
	   0.000000000000000    0.000000000000000   40.000000000000000 
lattice-minimize  \
	dirUpdateScheme      L-BFGS \
	linminMethod         DirUpdateRecommended \
	nIterations          0 \
	history              15 \
	knormThreshold       0 \
	energyDiffThreshold  1e-06 \
	nEnergyDiff          2 \
	alphaTstart          1 \
	alphaTmin            1e-10 \
	updateTestStepSize   yes \
	alphaTreduceFactor   0.1 \
	alphaTincreaseFactor 3 \
	nAlphaAdjustMax      3 \
	wolfeEnergy          0.0001 \
	wolfeGradient        0.9 \
	fdTest               no
lcao-params -1 1e-06 1e-05
pcm-variant GLSSA13
spintype z-spin
subspace-rotation-factor 1 yes
symmetries automatic
symmetry-threshold 0.0001



---------- Setting up symmetries ----------

Found 24 point-group symmetries of the bravais lattice
Found 24 space-group symmetries with basis
Applied RMS atom displacement 0 bohrs to make symmetries exact.

---------- Initializing the Grid ----------
R = 
[      14.1825     -7.09123            0  ]
[            0      12.2824            0  ]
[            0            0           40  ]
unit cell volume = 6967.77
G =
[   0.443025   0.255781         -0  ]
[          0   0.511561         -0  ]
[         -0         -0    0.15708  ]
Minimum fftbox size, Smin = [  60  60  164  ]
Chosen fftbox size, S = [  60  60  168  ]

---------- Exchange Correlation functional ----------
Initalized PBE GGA exchange.
Initalized PBE GGA correlation.

---------- Setting up pseudopotentials ----------
Width of ionic core gaussian charges (only for fluid interactions / plotting) set to 0

Reading pseudopotential file '/home/gridsan/aligho/DFT/build-Nov24/pseudopotentials/SG15/Li_ONCV_PBE.upf':
  'Li' pseudopotential, 'PBE' functional
  Generated using ONCVPSP code by D. R. Hamann
  Author: Martin Schlipf and Francois Gygi  Date: 150915.
  3 valence electrons, 2 orbitals, 4 projectors, 1328 radial grid points, with lMax = 1
  Transforming local potential to a uniform radial grid of dG=0.02 with 1489 points.
  Transforming nonlocal projectors to a uniform radial grid of dG=0.02 with 432 points.
    1S    l: 0   occupation:  2.0   eigenvalue: -1.905623
    2S    l: 0   occupation:  1.0   eigenvalue: -0.105624
  Transforming atomic orbitals to a uniform radial grid of dG=0.02 with 432 points.
  WARNING: large normalization error in atomic orbital 1s (integral: 0.000000).
  Core radius for overlap checks: 1.63 bohrs.
  Reading pulay file /home/gridsan/aligho/DFT/build-Nov24/pseudopotentials/SG15/Li_ONCV_PBE.pulay ... using dE_dnG = -1.230239e-02 computed for Ecut = 20.

Initialized 1 species with 1 total atoms.

Folded 1 k-points by 12x12x1 to 144 k-points.

---------- Setting up k-points, bands, fillings ----------
Reduced to 19 k-points under symmetry. 
Computing the number of bands and number of electrons
Calculating initial fillings.
nElectrons:   3.000000   nBands: 3   nStates: 38

----- Setting up reduced wavefunction bases (one per k-point) -----
average nbasis = 29766.104 , ideal nbasis = 29766.845

---------- Setting up coulomb interaction ----------
Initialized slab truncation along lattice direction 001

---------- Setting up 2D ewald sum ----------
Optimum gaussian width for ewald sums = 7.873530 bohr.
Real space sums over 289 unit cells with max indices [  8  8  0  ]
Reciprocal space sums over 81 terms with max indices [  4  4  0  ]

---------- Allocating electronic variables ----------
Initializing wave functions:  linear combination of atomic orbitals
Note: number of bands (3) exceeds available atomic orbitals (2)
Li pseudo-atom occupations:   s ( 2 1 )
	FillingsUpdate:  mu: +0.351404385  nElectrons: 3.000000  magneticMoment: [ Abs: 0.06490  Tot: +0.02000 ]
LCAOMinimize: Iter:   0  F: -1.2891494416086346  |grad|_K:  4.904e-05  alpha:  1.000e+00
	FillingsUpdate:  mu: +0.351403818  nElectrons: 3.000000  magneticMoment: [ Abs: 0.06489  Tot: +0.02000 ]
LCAOMinimize: Iter:   1  F: -1.2891498761628506  |grad|_K:  5.377e-07  alpha:  1.057e+00  linmin: -1.138e-03  cgtest:  9.530e-03  t[s]:      7.50
	FillingsUpdate:  mu: +0.351403819  nElectrons: 3.000000  magneticMoment: [ Abs: 0.06489  Tot: +0.02000 ]
LCAOMinimize: Iter:   2  F: -1.2891498762141671  |grad|_K:  2.779e-08  alpha:  1.053e+00  linmin:  2.193e-02  cgtest: -9.745e-01  t[s]:      9.48
LCAOMinimize: Converged (|Delta F|<1.000000e-06 for 2 iters).


---- Citations for features of the code used in this run ----

   Software package:
      R. Sundararaman, K. Letchworth-Weaver, K.A. Schwarz, D. Gunceler, Y. Ozhabes and T.A. Arias, 'JDFTx: software for joint density-functional theory', SoftwareX 6, 278 (2017)

   gga-PBE exchange-correlation functional:
      J.P. Perdew, K. Burke and M. Ernzerhof, Phys. Rev. Lett. 77, 3865 (1996)

   Pseudopotentials:
      M Schlipf and F Gygi, Comput. Phys. Commun. 196, 36 (2015)

   Truncated Coulomb potentials:
      R. Sundararaman and T.A. Arias, Phys. Rev. B 87, 165122 (2013)

This list may not be complete. Please suggest additional citations or
report any other bugs at https://github.com/shankar1729/jdftx/issues

Initialization completed successfully at t[s]:      9.58


-------- Electronic minimization -----------
Will mix electronic density at each iteration.
	FillingsUpdate:  mu: +0.351403819  nElectrons: 3.000000  magneticMoment: [ Abs: 0.06489  Tot: +0.02000 ]
	FillingsUpdate:  mu: -0.692385959  nElectrons: 3.000000  magneticMoment: [ Abs: 0.06489  Tot: +0.02000 ]
SCF: Cycle:  0   F: -6.868400309985867   dF: -5.579e+00   |Residual|: 1.224e+00   |deigs|: 4.156e+00  t[s]:     12.95
	FillingsUpdate:  mu: -0.580500200  nElectrons: 3.000000  magneticMoment: [ Abs: 0.05700  Tot: +0.02000 ]
SCF: Cycle:  1   F: -6.913897923780529   dF: -4.550e-02   |Residual|: 7.604e-01   |deigs|: 2.715e-01  t[s]:     15.64
	FillingsUpdate:  mu: -0.319801729  nElectrons: 3.000000  magneticMoment: [ Abs: 0.05347  Tot: +0.02000 ]
SCF: Cycle:  2   F: -7.042347365085107   dF: -1.284e-01   |Residual|: 3.235e-01   |deigs|: 7.183e-01  t[s]:     18.39
	FillingsUpdate:  mu: -0.363297376  nElectrons: 3.000000  magneticMoment: [ Abs: 0.05111  Tot: +0.02000 ]
SCF: Cycle:  3   F: -7.041670521017367   dF: +6.768e-04   |Residual|: 1.803e-01   |deigs|: 8.867e-02  t[s]:     21.13
	FillingsUpdate:  mu: -0.321490107  nElectrons: 3.000000  magneticMoment: [ Abs: 0.07302  Tot: +0.02000 ]
SCF: Cycle:  4   F: -7.036234174999107   dF: +5.436e-03   |Residual|: 1.410e-01   |deigs|: 3.734e-02  t[s]:     24.00
	FillingsUpdate:  mu: -0.315138646  nElectrons: 3.000000  magneticMoment: [ Abs: 0.06884  Tot: +0.02000 ]
SCF: Cycle:  5   F: -7.038151682942394   dF: -1.918e-03   |Residual|: 5.140e-02   |deigs|: 3.391e-02  t[s]:     26.91
	FillingsUpdate:  mu: -0.290038591  nElectrons: 3.000000  magneticMoment: [ Abs: 0.05467  Tot: +0.02000 ]
SCF: Cycle:  6   F: -7.041811199337173   dF: -3.660e-03   |Residual|: 4.115e-02   |deigs|: 5.885e-02  t[s]:     29.95
	FillingsUpdate:  mu: -0.225597868  nElectrons: 3.000000  magneticMoment: [ Abs: 0.04945  Tot: +0.02000 ]
SCF: Cycle:  7   F: -7.045128552909742   dF: -3.317e-03   |Residual|: 1.402e-01   |deigs|: 1.157e-01  t[s]:     32.97
	FillingsUpdate:  mu: -0.234566998  nElectrons: 3.000000  magneticMoment: [ Abs: 0.07318  Tot: +0.02000 ]
SCF: Cycle:  8   F: -7.045303269462804   dF: -1.747e-04   |Residual|: 4.881e-02   |deigs|: 8.107e-02  t[s]:     36.09
	FillingsUpdate:  mu: -0.228702553  nElectrons: 3.000000  magneticMoment: [ Abs: 0.07993  Tot: +0.02000 ]
SCF: Cycle:  9   F: -7.042605784778753   dF: +2.697e-03   |Residual|: 2.950e-01   |deigs|: 1.165e-01  t[s]:     39.25
	FillingsUpdate:  mu: -0.209154657  nElectrons: 3.000000  magneticMoment: [ Abs: 0.06001  Tot: +0.02000 ]
SCF: Cycle: 10   F: -7.044686287044258   dF: -2.081e-03   |Residual|: 1.823e-01   |deigs|: 5.287e-02  t[s]:     42.44
	FillingsUpdate:  mu: -0.165257868  nElectrons: 3.000000  magneticMoment: [ Abs: 0.12670  Tot: +0.02000 ]
SCF: Cycle: 11   F: -7.046262011997591   dF: -1.576e-03   |Residual|: 8.191e-02   |deigs|: 1.146e-01  t[s]:     45.64
	FillingsUpdate:  mu: -0.158949457  nElectrons: 3.000000  magneticMoment: [ Abs: 0.06746  Tot: +0.02000 ]
SCF: Cycle: 12   F: -7.046930579572209   dF: -6.686e-04   |Residual|: 1.698e-02   |deigs|: 1.680e-02  t[s]:     48.82
	FillingsUpdate:  mu: -0.142589491  nElectrons: 3.000000  magneticMoment: [ Abs: 0.05017  Tot: +0.02000 ]
SCF: Cycle: 13   F: -7.047010586085087   dF: -8.001e-05   |Residual|: 1.194e-02   |deigs|: 2.211e-02  t[s]:     52.03
	FillingsUpdate:  mu: -0.124998031  nElectrons: 3.000000  magneticMoment: [ Abs: 0.04635  Tot: +0.02000 ]
SCF: Cycle: 14   F: -7.046966369903125   dF: +4.422e-05   |Residual|: 7.705e-03   |deigs|: 2.346e-02  t[s]:     55.26
	FillingsUpdate:  mu: -0.117603527  nElectrons: 3.000000  magneticMoment: [ Abs: 0.03732  Tot: +0.02000 ]
SCF: Cycle: 15   F: -7.047027954984526   dF: -6.159e-05   |Residual|: 6.432e-03   |deigs|: 7.271e-03  t[s]:     58.53
	FillingsUpdate:  mu: -0.111583513  nElectrons: 3.000000  magneticMoment: [ Abs: 0.04177  Tot: +0.02000 ]
SCF: Cycle: 16   F: -7.047238294400307   dF: -2.103e-04   |Residual|: 4.342e-03   |deigs|: 5.460e-03  t[s]:     61.76
	FillingsUpdate:  mu: -0.108429654  nElectrons: 3.000000  magneticMoment: [ Abs: 0.03149  Tot: +0.02000 ]
SCF: Cycle: 17   F: -7.047313556921226   dF: -7.526e-05   |Residual|: 2.631e-03   |deigs|: 4.087e-03  t[s]:     65.00
	FillingsUpdate:  mu: -0.107634377  nElectrons: 3.000000  magneticMoment: [ Abs: 0.02364  Tot: +0.02000 ]
SCF: Cycle: 18   F: -7.047368896838550   dF: -5.534e-05   |Residual|: 1.730e-03   |deigs|: 1.052e-03  t[s]:     68.24
	FillingsUpdate:  mu: -0.107903346  nElectrons: 3.000000  magneticMoment: [ Abs: 0.02326  Tot: +0.02000 ]
SCF: Cycle: 19   F: -7.047403536187509   dF: -3.464e-05   |Residual|: 9.038e-04   |deigs|: 3.856e-04  t[s]:     71.46
	FillingsUpdate:  mu: -0.107529232  nElectrons: 3.000000  magneticMoment: [ Abs: 0.02191  Tot: +0.02000 ]
SCF: Cycle: 20   F: -7.047414750639993   dF: -1.121e-05   |Residual|: 5.423e-04   |deigs|: 3.137e-04  t[s]:     74.64
	FillingsUpdate:  mu: -0.107127395  nElectrons: 3.000000  magneticMoment: [ Abs: 0.02117  Tot: +0.02000 ]
SCF: Cycle: 21   F: -7.047418322740112   dF: -3.572e-06   |Residual|: 2.627e-04   |deigs|: 5.056e-04  t[s]:     77.83
	FillingsUpdate:  mu: -0.106924640  nElectrons: 3.000000  magneticMoment: [ Abs: 0.02083  Tot: +0.02000 ]
SCF: Cycle: 22   F: -7.047419398785772   dF: -1.076e-06   |Residual|: 1.523e-04   |deigs|: 1.916e-04  t[s]:     80.95
	FillingsUpdate:  mu: -0.106866231  nElectrons: 3.000000  magneticMoment: [ Abs: 0.02069  Tot: +0.02000 ]
SCF: Cycle: 23   F: -7.047419704348459   dF: -3.056e-07   |Residual|: 9.655e-05   |deigs|: 1.142e-04  t[s]:     84.15
	FillingsUpdate:  mu: -0.106860313  nElectrons: 3.000000  magneticMoment: [ Abs: 0.02058  Tot: +0.02000 ]
SCF: Cycle: 24   F: -7.047419858709188   dF: -1.544e-07   |Residual|: 5.053e-05   |deigs|: 1.131e-04  t[s]:     87.27
	FillingsUpdate:  mu: -0.106856507  nElectrons: 3.000000  magneticMoment: [ Abs: 0.02048  Tot: +0.02000 ]
SCF: Cycle: 25   F: -7.047419913671299   dF: -5.496e-08   |Residual|: 3.378e-05   |deigs|: 1.126e-04  t[s]:     90.45
	FillingsUpdate:  mu: -0.106862514  nElectrons: 3.000000  magneticMoment: [ Abs: 0.02039  Tot: +0.02000 ]
SCF: Cycle: 26   F: -7.047419933209077   dF: -1.954e-08   |Residual|: 2.232e-05   |deigs|: 1.029e-04  t[s]:     93.67
	FillingsUpdate:  mu: -0.106869955  nElectrons: 3.000000  magneticMoment: [ Abs: 0.02033  Tot: +0.02000 ]
SCF: Cycle: 27   F: -7.047419939646037   dF: -6.437e-09   |Residual|: 1.436e-05   |deigs|: 8.882e-05  t[s]:     96.86
	FillingsUpdate:  mu: -0.106876870  nElectrons: 3.000000  magneticMoment: [ Abs: 0.02027  Tot: +0.02000 ]
SCF: Cycle: 28   F: -7.047419942199252   dF: -2.553e-09   |Residual|: 8.752e-06   |deigs|: 7.093e-05  t[s]:    100.02
SCF: Converged (|Delta E|<1.000000e-08 for 2 iters).


# Ionic positions in lattice coordinates:
ion Li   0.000000000000000   0.000000000000000   0.000000000000000 0

# Forces in Lattice coordinates:
force Li   0.000000000000000  -0.000000000000000   0.000000000000000 0

# Energy components:
   Eewald =       -1.3368908222468645
       EH =        2.1945474349549503
     Eloc =       -7.5326381149239179
      Enl =       -3.6004703772768369
   Epulay =       -0.0000013080581827
      Exc =       -1.5302943231621078
       KE =        4.7583281203393444
-------------------------------------
     Etot =       -7.0474193903736158
       TS =        0.0000005518256370
-------------------------------------
        F =       -7.0474199421992525

IonicMinimize: Iter:   0  F: -7.047419942199252  |grad|_K:  0.000e+00  t[s]:    100.16
IonicMinimize: Converged (|grad|_K<1.000000e-04).

#--- Lowdin population analysis ---
# oxidation-state Li +2.107
# magnetic-moments Li +0.018

End date and time: Sat Feb  5 23:02:25 2022  (Duration: 0-0:01:40.17)
Done!
