
*************** JDFTx 1.6.0 (git hash 42ebbcc2) ***************

Start date and time: Sat Feb  5 22:46:55 2022
Executable jdftx with command-line: -i Alkali.in
Running on hosts (process indices):  d-6-10-3 (0-18)
Divided in process groups (process indices):  0 (0)  1 (1)  2 (2)  3 (3)  4 (4)  5 (5)  6 (6)  7 (7)  8 (8)  9 (9)  10 (10)  11 (11)  12 (12)  13 (13)  14 (14)  15 (15)  16 (16)  17 (17)  18 (18)
Resource initialization completed at t[s]:      0.00
Run totals: 19 processes, 48 threads, 0 GPUs


Input parsed successfully to the following command list (including defaults):

basis kpoint-dependent
coords-type Lattice
core-overlap-check vector
coulomb-interaction Slab 001
davidson-band-ratio 1.1
dump End None
dump-name $INPUT.$VAR
elec-cutoff 20
elec-eigen-algo Davidson
elec-ex-corr gga-PBE
elec-initial-magnetization -0.720000 yes
elec-smearing Fermi 1e-05
electronic-minimize  \
	dirUpdateScheme      FletcherReeves \
	linminMethod         DirUpdateRecommended \
	nIterations          100 \
	history              15 \
	knormThreshold       0 \
	energyDiffThreshold  1e-08 \
	nEnergyDiff          2 \
	alphaTstart          1 \
	alphaTmin            1e-10 \
	updateTestStepSize   yes \
	alphaTreduceFactor   0.1 \
	alphaTincreaseFactor 3 \
	nAlphaAdjustMax      3 \
	wolfeEnergy          0.0001 \
	wolfeGradient        0.9 \
	fdTest               no
electronic-scf  \
	nIterations	10000 \
	energyDiffThreshold	1e-08 \
	residualThreshold	1e-07 \
	mixFraction	0.5 \
	qMetric	0.8 \
	history	10 \
	nEigSteps	2 \
	eigDiffThreshold	1e-08 \
	mixedVariable	Density \
	qKerker	0.8 \
	qKappa	-1 \
	verbose	no \
	mixFractionMag	1.5
exchange-regularization WignerSeitzTruncated
fluid None
fluid-ex-corr (null) lda-PZ
fluid-gummel-loop 10 1.000000e-05
fluid-minimize  \
	dirUpdateScheme      PolakRibiere \
	linminMethod         DirUpdateRecommended \
	nIterations          100 \
	history              15 \
	knormThreshold       0 \
	energyDiffThreshold  0 \
	nEnergyDiff          2 \
	alphaTstart          1 \
	alphaTmin            1e-10 \
	updateTestStepSize   yes \
	alphaTreduceFactor   0.1 \
	alphaTincreaseFactor 3 \
	nAlphaAdjustMax      3 \
	wolfeEnergy          0.0001 \
	wolfeGradient        0.9 \
	fdTest               no
fluid-solvent H2O 55.338 ScalarEOS \
	epsBulk 78.4 \
	pMol 0.92466 \
	epsInf 1.77 \
	Pvap 1.06736e-10 \
	sigmaBulk 4.62e-05 \
	Rvdw 2.61727 \
	Res 1.42 \
	tauNuc 343133 \
	poleEl 15 7 1
forces-output-coords Positions
ion Li   0.000000000000000   0.000000000000000   0.000000000000000 0
ion-species SG15/$ID_ONCV_PBE.upf
ion-width 0
ionic-minimize  \
	dirUpdateScheme      L-BFGS \
	linminMethod         DirUpdateRecommended \
	nIterations          0 \
	history              15 \
	knormThreshold       0.0001 \
	energyDiffThreshold  1e-06 \
	nEnergyDiff          2 \
	alphaTstart          1 \
	alphaTmin            1e-10 \
	updateTestStepSize   yes \
	alphaTreduceFactor   0.1 \
	alphaTincreaseFactor 3 \
	nAlphaAdjustMax      3 \
	wolfeEnergy          0.0001 \
	wolfeGradient        0.9 \
	fdTest               no
kpoint   0.000000000000   0.000000000000   0.000000000000  1.00000000000000
kpoint-folding 12 12 1 
latt-move-scale 1 1 1
latt-scale 3 3 1 
lattice  \
	   4.727486978767153   -2.363743489383575    0.000000000000000  \
	  -0.000000000000000    4.094123819672498    0.000000000000000  \
	   0.000000000000000    0.000000000000000   40.000000000000000 
lattice-minimize  \
	dirUpdateScheme      L-BFGS \
	linminMethod         DirUpdateRecommended \
	nIterations          0 \
	history              15 \
	knormThreshold       0 \
	energyDiffThreshold  1e-06 \
	nEnergyDiff          2 \
	alphaTstart          1 \
	alphaTmin            1e-10 \
	updateTestStepSize   yes \
	alphaTreduceFactor   0.1 \
	alphaTincreaseFactor 3 \
	nAlphaAdjustMax      3 \
	wolfeEnergy          0.0001 \
	wolfeGradient        0.9 \
	fdTest               no
lcao-params -1 1e-06 1e-05
pcm-variant GLSSA13
spintype z-spin
subspace-rotation-factor 1 yes
symmetries automatic
symmetry-threshold 0.0001



---------- Setting up symmetries ----------

Found 24 point-group symmetries of the bravais lattice
Found 24 space-group symmetries with basis
Applied RMS atom displacement 0 bohrs to make symmetries exact.

---------- Initializing the Grid ----------
R = 
[      14.1825     -7.09123            0  ]
[            0      12.2824            0  ]
[            0            0           40  ]
unit cell volume = 6967.77
G =
[   0.443025   0.255781         -0  ]
[          0   0.511561         -0  ]
[         -0         -0    0.15708  ]
Minimum fftbox size, Smin = [  60  60  164  ]
Chosen fftbox size, S = [  60  60  168  ]

---------- Exchange Correlation functional ----------
Initalized PBE GGA exchange.
Initalized PBE GGA correlation.

---------- Setting up pseudopotentials ----------
Width of ionic core gaussian charges (only for fluid interactions / plotting) set to 0

Reading pseudopotential file '/home/gridsan/aligho/DFT/build-Nov24/pseudopotentials/SG15/Li_ONCV_PBE.upf':
  'Li' pseudopotential, 'PBE' functional
  Generated using ONCVPSP code by D. R. Hamann
  Author: Martin Schlipf and Francois Gygi  Date: 150915.
  3 valence electrons, 2 orbitals, 4 projectors, 1328 radial grid points, with lMax = 1
  Transforming local potential to a uniform radial grid of dG=0.02 with 1489 points.
  Transforming nonlocal projectors to a uniform radial grid of dG=0.02 with 432 points.
    1S    l: 0   occupation:  2.0   eigenvalue: -1.905623
    2S    l: 0   occupation:  1.0   eigenvalue: -0.105624
  Transforming atomic orbitals to a uniform radial grid of dG=0.02 with 432 points.
  WARNING: large normalization error in atomic orbital 1s (integral: 0.000000).
  Core radius for overlap checks: 1.63 bohrs.
  Reading pulay file /home/gridsan/aligho/DFT/build-Nov24/pseudopotentials/SG15/Li_ONCV_PBE.pulay ... using dE_dnG = -1.230239e-02 computed for Ecut = 20.

Initialized 1 species with 1 total atoms.

Folded 1 k-points by 12x12x1 to 144 k-points.

---------- Setting up k-points, bands, fillings ----------
Reduced to 19 k-points under symmetry. 
Computing the number of bands and number of electrons
Calculating initial fillings.
nElectrons:   3.000000   nBands: 3   nStates: 38

----- Setting up reduced wavefunction bases (one per k-point) -----
average nbasis = 29766.104 , ideal nbasis = 29766.845

---------- Setting up coulomb interaction ----------
Initialized slab truncation along lattice direction 001

---------- Setting up 2D ewald sum ----------
Optimum gaussian width for ewald sums = 7.873530 bohr.
Real space sums over 289 unit cells with max indices [  8  8  0  ]
Reciprocal space sums over 81 terms with max indices [  4  4  0  ]

---------- Allocating electronic variables ----------
Initializing wave functions:  linear combination of atomic orbitals
Note: number of bands (3) exceeds available atomic orbitals (2)
Li pseudo-atom occupations:   s ( 2 1 )
	FillingsUpdate:  mu: +0.350113938  nElectrons: 3.000000  magneticMoment: [ Abs: 0.72000  Tot: -0.72000 ]
LCAOMinimize: Iter:   0  F: -1.2816542293557864  |grad|_K:  4.494e-05  alpha:  1.000e+00
	FillingsUpdate:  mu: +0.350113336  nElectrons: 3.000000  magneticMoment: [ Abs: 0.72000  Tot: -0.72000 ]
LCAOMinimize: Iter:   1  F: -1.2816545950408034  |grad|_K:  3.616e-07  alpha:  1.059e+00  linmin: -1.435e-03  cgtest:  8.788e-03  t[s]:      7.60
LCAOMinimize: Encountered beta<0, resetting CG.
	FillingsUpdate:  mu: +0.350113337  nElectrons: 3.000000  magneticMoment: [ Abs: 0.72000  Tot: -0.72000 ]
LCAOMinimize: Iter:   2  F: -1.2816545950634517  |grad|_K:  2.459e-08  alpha:  9.678e-01  linmin: -2.389e-02  cgtest:  8.241e-01  t[s]:      9.63
LCAOMinimize: Encountered beta<0, resetting CG.
LCAOMinimize: Converged (|Delta F|<1.000000e-06 for 2 iters).


---- Citations for features of the code used in this run ----

   Software package:
      R. Sundararaman, K. Letchworth-Weaver, K.A. Schwarz, D. Gunceler, Y. Ozhabes and T.A. Arias, 'JDFTx: software for joint density-functional theory', SoftwareX 6, 278 (2017)

   gga-PBE exchange-correlation functional:
      J.P. Perdew, K. Burke and M. Ernzerhof, Phys. Rev. Lett. 77, 3865 (1996)

   Pseudopotentials:
      M Schlipf and F Gygi, Comput. Phys. Commun. 196, 36 (2015)

   Truncated Coulomb potentials:
      R. Sundararaman and T.A. Arias, Phys. Rev. B 87, 165122 (2013)

This list may not be complete. Please suggest additional citations or
report any other bugs at https://github.com/shankar1729/jdftx/issues

Initialization completed successfully at t[s]:      9.72


-------- Electronic minimization -----------
Will mix electronic density at each iteration.
	FillingsUpdate:  mu: +0.350113337  nElectrons: 3.000000  magneticMoment: [ Abs: 0.72000  Tot: -0.72000 ]
	FillingsUpdate:  mu: -0.695970602  nElectrons: 3.000000  magneticMoment: [ Abs: 0.72000  Tot: -0.72000 ]
SCF: Cycle:  0   F: -6.883968133074435   dF: -5.602e+00   |Residual|: 1.224e+00   |deigs|: 4.156e+00  t[s]:     13.09
	FillingsUpdate:  mu: -0.570160186  nElectrons: 3.000000  magneticMoment: [ Abs: 1.14177  Tot: -0.72000 ]
SCF: Cycle:  1   F: -6.918193918213870   dF: -3.423e-02   |Residual|: 7.648e-01   |deigs|: 2.733e-01  t[s]:     15.85
	FillingsUpdate:  mu: -0.373662654  nElectrons: 3.000000  magneticMoment: [ Abs: 1.57209  Tot: -0.72000 ]
SCF: Cycle:  2   F: -7.038701563114556   dF: -1.205e-01   |Residual|: 3.312e-01   |deigs|: 7.078e-01  t[s]:     18.60
	FillingsUpdate:  mu: -0.381104355  nElectrons: 3.000000  magneticMoment: [ Abs: 1.39889  Tot: -0.72000 ]
SCF: Cycle:  3   F: -7.040297846194505   dF: -1.596e-03   |Residual|: 1.686e-01   |deigs|: 8.783e-02  t[s]:     21.41
	FillingsUpdate:  mu: -0.329948883  nElectrons: 3.000000  magneticMoment: [ Abs: 1.16227  Tot: -0.72000 ]
SCF: Cycle:  4   F: -7.044251720001449   dF: -3.954e-03   |Residual|: 3.853e-02   |deigs|: 4.373e-02  t[s]:     24.27
	FillingsUpdate:  mu: -0.310235009  nElectrons: 3.000000  magneticMoment: [ Abs: 1.07848  Tot: -0.72000 ]
SCF: Cycle:  5   F: -7.044523370322350   dF: -2.717e-04   |Residual|: 7.320e-02   |deigs|: 1.872e-02  t[s]:     27.21
	FillingsUpdate:  mu: -0.278020408  nElectrons: 3.000000  magneticMoment: [ Abs: 0.88828  Tot: -0.72000 ]
SCF: Cycle:  6   F: -7.046345500883341   dF: -1.822e-03   |Residual|: 3.637e-02   |deigs|: 6.048e-02  t[s]:     30.21
	FillingsUpdate:  mu: -0.261088454  nElectrons: 3.000000  magneticMoment: [ Abs: 0.85806  Tot: -0.72000 ]
SCF: Cycle:  7   F: -7.048074298930638   dF: -1.729e-03   |Residual|: 3.995e-02   |deigs|: 4.034e-02  t[s]:     33.31
	FillingsUpdate:  mu: -0.256514845  nElectrons: 3.000000  magneticMoment: [ Abs: 0.82471  Tot: -0.72000 ]
SCF: Cycle:  8   F: -7.048505343633135   dF: -4.310e-04   |Residual|: 4.782e-02   |deigs|: 4.974e-03  t[s]:     36.46
	FillingsUpdate:  mu: -0.234006492  nElectrons: 3.000000  magneticMoment: [ Abs: 0.78949  Tot: -0.72000 ]
SCF: Cycle:  9   F: -7.049571780966364   dF: -1.066e-03   |Residual|: 1.637e-02   |deigs|: 1.917e-02  t[s]:     39.67
	FillingsUpdate:  mu: -0.206446341  nElectrons: 3.000000  magneticMoment: [ Abs: 0.85650  Tot: -0.72000 ]
SCF: Cycle: 10   F: -7.049950657066167   dF: -3.789e-04   |Residual|: 6.293e-02   |deigs|: 2.288e-02  t[s]:     42.99
	FillingsUpdate:  mu: -0.190347192  nElectrons: 3.000000  magneticMoment: [ Abs: 0.89810  Tot: -0.72000 ]
SCF: Cycle: 11   F: -7.050233473292448   dF: -2.828e-04   |Residual|: 1.338e-02   |deigs|: 2.559e-02  t[s]:     46.26
	FillingsUpdate:  mu: -0.173720784  nElectrons: 3.000000  magneticMoment: [ Abs: 0.91289  Tot: -0.72000 ]
SCF: Cycle: 12   F: -7.050379868794932   dF: -1.464e-04   |Residual|: 1.010e-02   |deigs|: 1.765e-02  t[s]:     49.51
	FillingsUpdate:  mu: -0.149336689  nElectrons: 3.000000  magneticMoment: [ Abs: 0.90436  Tot: -0.72000 ]
SCF: Cycle: 13   F: -7.050241686967540   dF: +1.382e-04   |Residual|: 7.928e-03   |deigs|: 2.557e-02  t[s]:     52.73
	FillingsUpdate:  mu: -0.136519311  nElectrons: 3.000000  magneticMoment: [ Abs: 0.87108  Tot: -0.72000 ]
SCF: Cycle: 14   F: -7.050263081671693   dF: -2.139e-05   |Residual|: 7.655e-03   |deigs|: 1.357e-02  t[s]:     56.01
	FillingsUpdate:  mu: -0.123342419  nElectrons: 3.000000  magneticMoment: [ Abs: 0.84350  Tot: -0.72000 ]
SCF: Cycle: 15   F: -7.050399808006961   dF: -1.367e-04   |Residual|: 6.653e-03   |deigs|: 1.386e-02  t[s]:     59.28
	FillingsUpdate:  mu: -0.112860368  nElectrons: 3.000000  magneticMoment: [ Abs: 0.80299  Tot: -0.72000 ]
SCF: Cycle: 16   F: -7.050662271312198   dF: -2.625e-04   |Residual|: 4.410e-03   |deigs|: 1.115e-02  t[s]:     62.54
	FillingsUpdate:  mu: -0.104914551  nElectrons: 3.000000  magneticMoment: [ Abs: 0.76845  Tot: -0.72000 ]
SCF: Cycle: 17   F: -7.050884764341149   dF: -2.225e-04   |Residual|: 3.001e-03   |deigs|: 9.470e-03  t[s]:     65.76
	FillingsUpdate:  mu: -0.103637944  nElectrons: 3.000000  magneticMoment: [ Abs: 0.75408  Tot: -0.72000 ]
SCF: Cycle: 18   F: -7.050945026220197   dF: -6.026e-05   |Residual|: 2.073e-03   |deigs|: 1.721e-03  t[s]:     69.03
	FillingsUpdate:  mu: -0.102871793  nElectrons: 3.000000  magneticMoment: [ Abs: 0.74631  Tot: -0.72000 ]
SCF: Cycle: 19   F: -7.050971143129076   dF: -2.612e-05   |Residual|: 1.309e-03   |deigs|: 1.022e-03  t[s]:     72.29
	FillingsUpdate:  mu: -0.102482757  nElectrons: 3.000000  magneticMoment: [ Abs: 0.74242  Tot: -0.72000 ]
SCF: Cycle: 20   F: -7.050989427426996   dF: -1.828e-05   |Residual|: 8.809e-04   |deigs|: 6.207e-04  t[s]:     75.61
	FillingsUpdate:  mu: -0.102355082  nElectrons: 3.000000  magneticMoment: [ Abs: 0.73836  Tot: -0.72000 ]
SCF: Cycle: 21   F: -7.051000916056823   dF: -1.149e-05   |Residual|: 5.048e-04   |deigs|: 2.652e-04  t[s]:     78.87
	FillingsUpdate:  mu: -0.102285703  nElectrons: 3.000000  magneticMoment: [ Abs: 0.73532  Tot: -0.72000 ]
SCF: Cycle: 22   F: -7.051002710229980   dF: -1.794e-06   |Residual|: 3.736e-04   |deigs|: 2.251e-04  t[s]:     82.08
	FillingsUpdate:  mu: -0.102375063  nElectrons: 3.000000  magneticMoment: [ Abs: 0.73049  Tot: -0.72000 ]
SCF: Cycle: 23   F: -7.051003695232599   dF: -9.850e-07   |Residual|: 3.122e-04   |deigs|: 2.875e-04  t[s]:     85.38
	FillingsUpdate:  mu: -0.102627583  nElectrons: 3.000000  magneticMoment: [ Abs: 0.72610  Tot: -0.72000 ]
SCF: Cycle: 24   F: -7.051003661448400   dF: +3.378e-08   |Residual|: 2.614e-04   |deigs|: 2.991e-04  t[s]:     88.63
	FillingsUpdate:  mu: -0.102976108  nElectrons: 3.000000  magneticMoment: [ Abs: 0.72277  Tot: -0.72000 ]
SCF: Cycle: 25   F: -7.051003647792847   dF: +1.366e-08   |Residual|: 1.964e-04   |deigs|: 4.454e-04  t[s]:     91.88
	FillingsUpdate:  mu: -0.103375556  nElectrons: 3.000000  magneticMoment: [ Abs: 0.72074  Tot: -0.72000 ]
SCF: Cycle: 26   F: -7.051004625476033   dF: -9.777e-07   |Residual|: 1.270e-04   |deigs|: 4.609e-04  t[s]:     95.15
	FillingsUpdate:  mu: -0.103502961  nElectrons: 3.000000  magneticMoment: [ Abs: 0.72051  Tot: -0.72000 ]
SCF: Cycle: 27   F: -7.051005120326868   dF: -4.949e-07   |Residual|: 7.879e-05   |deigs|: 1.808e-04  t[s]:     98.39
	FillingsUpdate:  mu: -0.103514786  nElectrons: 3.000000  magneticMoment: [ Abs: 0.72032  Tot: -0.72000 ]
SCF: Cycle: 28   F: -7.051005389048518   dF: -2.687e-07   |Residual|: 4.535e-05   |deigs|: 9.626e-05  t[s]:    101.62
	FillingsUpdate:  mu: -0.103509236  nElectrons: 3.000000  magneticMoment: [ Abs: 0.72028  Tot: -0.72000 ]
SCF: Cycle: 29   F: -7.051005446365189   dF: -5.732e-08   |Residual|: 3.189e-05   |deigs|: 7.699e-05  t[s]:    104.85
	FillingsUpdate:  mu: -0.103470038  nElectrons: 3.000000  magneticMoment: [ Abs: 0.72013  Tot: -0.72000 ]
SCF: Cycle: 30   F: -7.051005491720328   dF: -4.536e-08   |Residual|: 1.838e-05   |deigs|: 7.393e-05  t[s]:    108.17
	FillingsUpdate:  mu: -0.103452924  nElectrons: 3.000000  magneticMoment: [ Abs: 0.72008  Tot: -0.72000 ]
SCF: Cycle: 31   F: -7.051005517964029   dF: -2.624e-08   |Residual|: 1.017e-05   |deigs|: 5.298e-05  t[s]:    111.43
	FillingsUpdate:  mu: -0.103447623  nElectrons: 3.000000  magneticMoment: [ Abs: 0.72004  Tot: -0.72000 ]
SCF: Cycle: 32   F: -7.051005519495789   dF: -1.532e-09   |Residual|: 7.359e-06   |deigs|: 3.214e-05  t[s]:    114.74
	FillingsUpdate:  mu: -0.103440996  nElectrons: 3.000000  magneticMoment: [ Abs: 0.72001  Tot: -0.72000 ]
SCF: Cycle: 33   F: -7.051005521089157   dF: -1.593e-09   |Residual|: 4.279e-06   |deigs|: 2.274e-05  t[s]:    117.93
SCF: Converged (|Delta E|<1.000000e-08 for 2 iters).


# Ionic positions in lattice coordinates:
ion Li   0.000000000000000   0.000000000000000   0.000000000000000 0

# Forces in Lattice coordinates:
force Li  -0.000000000000000  -0.000000000000000   0.000000000000000 0

# Energy components:
   Eewald =       -1.3368908222468645
       EH =        2.2164211584590090
     Eloc =       -7.5605744992504187
      Enl =       -3.6038730649179298
   Epulay =       -0.0000013080581827
      Exc =       -1.5404729210092452
       KE =        4.7743862497671063
-------------------------------------
     Etot =       -7.0510052072565248
       TS =        0.0000003138326323
-------------------------------------
        F =       -7.0510055210891567

IonicMinimize: Iter:   0  F: -7.051005521089157  |grad|_K:  0.000e+00  t[s]:    118.07
IonicMinimize: Converged (|grad|_K<1.000000e-04).

#--- Lowdin population analysis ---
# oxidation-state Li +2.080
# magnetic-moments Li -0.664

End date and time: Sat Feb  5 22:48:53 2022  (Duration: 0-0:01:58.09)
Done!
