
*************** JDFTx 1.6.0 (git hash 42ebbcc2) ***************

Start date and time: Sat Feb  5 23:14:01 2022
Executable jdftx with command-line: -i Alkali.in
Running on hosts (process indices):  d-6-10-3 (0-18)
Divided in process groups (process indices):  0 (0)  1 (1)  2 (2)  3 (3)  4 (4)  5 (5)  6 (6)  7 (7)  8 (8)  9 (9)  10 (10)  11 (11)  12 (12)  13 (13)  14 (14)  15 (15)  16 (16)  17 (17)  18 (18)
Resource initialization completed at t[s]:      0.00
Run totals: 19 processes, 48 threads, 0 GPUs


Input parsed successfully to the following command list (including defaults):

basis kpoint-dependent
coords-type Lattice
core-overlap-check vector
coulomb-interaction Slab 001
davidson-band-ratio 1.1
dump End None
dump-name $INPUT.$VAR
elec-cutoff 20
elec-eigen-algo Davidson
elec-ex-corr gga-PBE
elec-initial-magnetization 0.920000 yes
elec-smearing Fermi 1e-05
electronic-minimize  \
	dirUpdateScheme      FletcherReeves \
	linminMethod         DirUpdateRecommended \
	nIterations          100 \
	history              15 \
	knormThreshold       0 \
	energyDiffThreshold  1e-08 \
	nEnergyDiff          2 \
	alphaTstart          1 \
	alphaTmin            1e-10 \
	updateTestStepSize   yes \
	alphaTreduceFactor   0.1 \
	alphaTincreaseFactor 3 \
	nAlphaAdjustMax      3 \
	wolfeEnergy          0.0001 \
	wolfeGradient        0.9 \
	fdTest               no
electronic-scf  \
	nIterations	10000 \
	energyDiffThreshold	1e-08 \
	residualThreshold	1e-07 \
	mixFraction	0.5 \
	qMetric	0.8 \
	history	10 \
	nEigSteps	2 \
	eigDiffThreshold	1e-08 \
	mixedVariable	Density \
	qKerker	0.8 \
	qKappa	-1 \
	verbose	no \
	mixFractionMag	1.5
exchange-regularization WignerSeitzTruncated
fluid None
fluid-ex-corr (null) lda-PZ
fluid-gummel-loop 10 1.000000e-05
fluid-minimize  \
	dirUpdateScheme      PolakRibiere \
	linminMethod         DirUpdateRecommended \
	nIterations          100 \
	history              15 \
	knormThreshold       0 \
	energyDiffThreshold  0 \
	nEnergyDiff          2 \
	alphaTstart          1 \
	alphaTmin            1e-10 \
	updateTestStepSize   yes \
	alphaTreduceFactor   0.1 \
	alphaTincreaseFactor 3 \
	nAlphaAdjustMax      3 \
	wolfeEnergy          0.0001 \
	wolfeGradient        0.9 \
	fdTest               no
fluid-solvent H2O 55.338 ScalarEOS \
	epsBulk 78.4 \
	pMol 0.92466 \
	epsInf 1.77 \
	Pvap 1.06736e-10 \
	sigmaBulk 4.62e-05 \
	Rvdw 2.61727 \
	Res 1.42 \
	tauNuc 343133 \
	poleEl 15 7 1
forces-output-coords Positions
ion Li   0.000000000000000   0.000000000000000   0.000000000000000 0
ion-species SG15/$ID_ONCV_PBE.upf
ion-width 0
ionic-minimize  \
	dirUpdateScheme      L-BFGS \
	linminMethod         DirUpdateRecommended \
	nIterations          0 \
	history              15 \
	knormThreshold       0.0001 \
	energyDiffThreshold  1e-06 \
	nEnergyDiff          2 \
	alphaTstart          1 \
	alphaTmin            1e-10 \
	updateTestStepSize   yes \
	alphaTreduceFactor   0.1 \
	alphaTincreaseFactor 3 \
	nAlphaAdjustMax      3 \
	wolfeEnergy          0.0001 \
	wolfeGradient        0.9 \
	fdTest               no
kpoint   0.000000000000   0.000000000000   0.000000000000  1.00000000000000
kpoint-folding 12 12 1 
latt-move-scale 1 1 1
latt-scale 3 3 1 
lattice  \
	   4.727486978767153   -2.363743489383575    0.000000000000000  \
	  -0.000000000000000    4.094123819672498    0.000000000000000  \
	   0.000000000000000    0.000000000000000   40.000000000000000 
lattice-minimize  \
	dirUpdateScheme      L-BFGS \
	linminMethod         DirUpdateRecommended \
	nIterations          0 \
	history              15 \
	knormThreshold       0 \
	energyDiffThreshold  1e-06 \
	nEnergyDiff          2 \
	alphaTstart          1 \
	alphaTmin            1e-10 \
	updateTestStepSize   yes \
	alphaTreduceFactor   0.1 \
	alphaTincreaseFactor 3 \
	nAlphaAdjustMax      3 \
	wolfeEnergy          0.0001 \
	wolfeGradient        0.9 \
	fdTest               no
lcao-params -1 1e-06 1e-05
pcm-variant GLSSA13
spintype z-spin
subspace-rotation-factor 1 yes
symmetries automatic
symmetry-threshold 0.0001



---------- Setting up symmetries ----------

Found 24 point-group symmetries of the bravais lattice
Found 24 space-group symmetries with basis
Applied RMS atom displacement 0 bohrs to make symmetries exact.

---------- Initializing the Grid ----------
R = 
[      14.1825     -7.09123            0  ]
[            0      12.2824            0  ]
[            0            0           40  ]
unit cell volume = 6967.77
G =
[   0.443025   0.255781         -0  ]
[          0   0.511561         -0  ]
[         -0         -0    0.15708  ]
Minimum fftbox size, Smin = [  60  60  164  ]
Chosen fftbox size, S = [  60  60  168  ]

---------- Exchange Correlation functional ----------
Initalized PBE GGA exchange.
Initalized PBE GGA correlation.

---------- Setting up pseudopotentials ----------
Width of ionic core gaussian charges (only for fluid interactions / plotting) set to 0

Reading pseudopotential file '/home/gridsan/aligho/DFT/build-Nov24/pseudopotentials/SG15/Li_ONCV_PBE.upf':
  'Li' pseudopotential, 'PBE' functional
  Generated using ONCVPSP code by D. R. Hamann
  Author: Martin Schlipf and Francois Gygi  Date: 150915.
  3 valence electrons, 2 orbitals, 4 projectors, 1328 radial grid points, with lMax = 1
  Transforming local potential to a uniform radial grid of dG=0.02 with 1489 points.
  Transforming nonlocal projectors to a uniform radial grid of dG=0.02 with 432 points.
    1S    l: 0   occupation:  2.0   eigenvalue: -1.905623
    2S    l: 0   occupation:  1.0   eigenvalue: -0.105624
  Transforming atomic orbitals to a uniform radial grid of dG=0.02 with 432 points.
  WARNING: large normalization error in atomic orbital 1s (integral: 0.000000).
  Core radius for overlap checks: 1.63 bohrs.
  Reading pulay file /home/gridsan/aligho/DFT/build-Nov24/pseudopotentials/SG15/Li_ONCV_PBE.pulay ... using dE_dnG = -1.230239e-02 computed for Ecut = 20.

Initialized 1 species with 1 total atoms.

Folded 1 k-points by 12x12x1 to 144 k-points.

---------- Setting up k-points, bands, fillings ----------
Reduced to 19 k-points under symmetry. 
Computing the number of bands and number of electrons
Calculating initial fillings.
nElectrons:   3.000000   nBands: 3   nStates: 38

----- Setting up reduced wavefunction bases (one per k-point) -----
average nbasis = 29766.104 , ideal nbasis = 29766.845

---------- Setting up coulomb interaction ----------
Initialized slab truncation along lattice direction 001

---------- Setting up 2D ewald sum ----------
Optimum gaussian width for ewald sums = 7.873530 bohr.
Real space sums over 289 unit cells with max indices [  8  8  0  ]
Reciprocal space sums over 81 terms with max indices [  4  4  0  ]

---------- Allocating electronic variables ----------
Initializing wave functions:  linear combination of atomic orbitals
Note: number of bands (3) exceeds available atomic orbitals (2)
Li pseudo-atom occupations:   s ( 2 1 )
	FillingsUpdate:  mu: +0.346637771  nElectrons: 3.000000  magneticMoment: [ Abs: 0.92000  Tot: +0.92000 ]
LCAOMinimize: Iter:   0  F: -1.2783234747655230  |grad|_K:  4.315e-05  alpha:  1.000e+00
	FillingsUpdate:  mu: +0.346637449  nElectrons: 3.000000  magneticMoment: [ Abs: 0.92000  Tot: +0.92000 ]
LCAOMinimize: Iter:   1  F: -1.2783238121213487  |grad|_K:  2.989e-07  alpha:  1.060e+00  linmin: -1.479e-03  cgtest:  1.145e-02  t[s]:      7.54
LCAOMinimize: Encountered beta<0, resetting CG.
	FillingsUpdate:  mu: +0.346637450  nElectrons: 3.000000  magneticMoment: [ Abs: 0.92000  Tot: +0.92000 ]
LCAOMinimize: Iter:   2  F: -1.2783238121372316  |grad|_K:  1.408e-08  alpha:  1.070e+00  linmin:  2.418e-03  cgtest: -2.006e-01  t[s]:      9.49
LCAOMinimize: Converged (|Delta F|<1.000000e-06 for 2 iters).


---- Citations for features of the code used in this run ----

   Software package:
      R. Sundararaman, K. Letchworth-Weaver, K.A. Schwarz, D. Gunceler, Y. Ozhabes and T.A. Arias, 'JDFTx: software for joint density-functional theory', SoftwareX 6, 278 (2017)

   gga-PBE exchange-correlation functional:
      J.P. Perdew, K. Burke and M. Ernzerhof, Phys. Rev. Lett. 77, 3865 (1996)

   Pseudopotentials:
      M Schlipf and F Gygi, Comput. Phys. Commun. 196, 36 (2015)

   Truncated Coulomb potentials:
      R. Sundararaman and T.A. Arias, Phys. Rev. B 87, 165122 (2013)

This list may not be complete. Please suggest additional citations or
report any other bugs at https://github.com/shankar1729/jdftx/issues

Initialization completed successfully at t[s]:      9.59


-------- Electronic minimization -----------
Will mix electronic density at each iteration.
	FillingsUpdate:  mu: +0.346637450  nElectrons: 3.000000  magneticMoment: [ Abs: 0.92000  Tot: +0.92000 ]
	FillingsUpdate:  mu: -0.695574145  nElectrons: 3.000000  magneticMoment: [ Abs: 0.92000  Tot: +0.92000 ]
SCF: Cycle:  0   F: -6.890310187871363   dF: -5.612e+00   |Residual|: 1.224e+00   |deigs|: 4.155e+00  t[s]:     12.99
	FillingsUpdate:  mu: -0.572570220  nElectrons: 3.000000  magneticMoment: [ Abs: 1.46775  Tot: +0.92000 ]
SCF: Cycle:  1   F: -6.915963918888253   dF: -2.565e-02   |Residual|: 7.674e-01   |deigs|: 2.729e-01  t[s]:     15.66
	FillingsUpdate:  mu: -0.384483191  nElectrons: 3.000000  magneticMoment: [ Abs: 2.01915  Tot: +0.92000 ]
SCF: Cycle:  2   F: -7.040316635073466   dF: -1.244e-01   |Residual|: 3.365e-01   |deigs|: 7.102e-01  t[s]:     18.44
	FillingsUpdate:  mu: -0.390632670  nElectrons: 3.000000  magneticMoment: [ Abs: 1.75389  Tot: +0.92000 ]
SCF: Cycle:  3   F: -7.041715578938574   dF: -1.399e-03   |Residual|: 1.563e-01   |deigs|: 9.619e-02  t[s]:     21.26
	FillingsUpdate:  mu: -0.341747188  nElectrons: 3.000000  magneticMoment: [ Abs: 1.44443  Tot: +0.92000 ]
SCF: Cycle:  4   F: -7.046201107867558   dF: -4.486e-03   |Residual|: 3.973e-02   |deigs|: 4.484e-02  t[s]:     24.11
	FillingsUpdate:  mu: -0.315792743  nElectrons: 3.000000  magneticMoment: [ Abs: 1.32294  Tot: +0.92000 ]
SCF: Cycle:  5   F: -7.047276177255524   dF: -1.075e-03   |Residual|: 5.809e-02   |deigs|: 2.585e-02  t[s]:     27.07
	FillingsUpdate:  mu: -0.279980589  nElectrons: 3.000000  magneticMoment: [ Abs: 1.12241  Tot: +0.92000 ]
SCF: Cycle:  6   F: -7.048904822738555   dF: -1.629e-03   |Residual|: 4.121e-02   |deigs|: 4.951e-02  t[s]:     30.07
	FillingsUpdate:  mu: -0.264792455  nElectrons: 3.000000  magneticMoment: [ Abs: 1.08680  Tot: +0.92000 ]
SCF: Cycle:  7   F: -7.050609038419061   dF: -1.704e-03   |Residual|: 2.437e-02   |deigs|: 3.820e-02  t[s]:     33.14
	FillingsUpdate:  mu: -0.251921768  nElectrons: 3.000000  magneticMoment: [ Abs: 1.06466  Tot: +0.92000 ]
SCF: Cycle:  8   F: -7.051419740108296   dF: -8.107e-04   |Residual|: 4.784e-02   |deigs|: 1.858e-02  t[s]:     36.34
	FillingsUpdate:  mu: -0.235996332  nElectrons: 3.000000  magneticMoment: [ Abs: 1.01182  Tot: +0.92000 ]
SCF: Cycle:  9   F: -7.052242101083241   dF: -8.224e-04   |Residual|: 2.352e-02   |deigs|: 1.377e-02  t[s]:     39.55
	FillingsUpdate:  mu: -0.209327925  nElectrons: 3.000000  magneticMoment: [ Abs: 1.05456  Tot: +0.92000 ]
SCF: Cycle: 10   F: -7.052572057286133   dF: -3.300e-04   |Residual|: 5.227e-02   |deigs|: 2.434e-02  t[s]:     42.82
	FillingsUpdate:  mu: -0.191308099  nElectrons: 3.000000  magneticMoment: [ Abs: 1.09876  Tot: +0.92000 ]
SCF: Cycle: 11   F: -7.052788669184311   dF: -2.166e-04   |Residual|: 1.289e-02   |deigs|: 2.611e-02  t[s]:     46.04
	FillingsUpdate:  mu: -0.172568074  nElectrons: 3.000000  magneticMoment: [ Abs: 1.12585  Tot: +0.92000 ]
SCF: Cycle: 12   F: -7.052860690739122   dF: -7.202e-05   |Residual|: 9.528e-03   |deigs|: 1.982e-02  t[s]:     49.29
	FillingsUpdate:  mu: -0.157645177  nElectrons: 3.000000  magneticMoment: [ Abs: 1.12119  Tot: +0.92000 ]
SCF: Cycle: 13   F: -7.052934822430523   dF: -7.413e-05   |Residual|: 8.186e-03   |deigs|: 1.693e-02  t[s]:     52.54
	FillingsUpdate:  mu: -0.141497244  nElectrons: 3.000000  magneticMoment: [ Abs: 1.08289  Tot: +0.92000 ]
SCF: Cycle: 14   F: -7.052955025038326   dF: -2.020e-05   |Residual|: 7.971e-03   |deigs|: 1.646e-02  t[s]:     55.79
	FillingsUpdate:  mu: -0.122785157  nElectrons: 3.000000  magneticMoment: [ Abs: 1.05202  Tot: +0.92000 ]
SCF: Cycle: 15   F: -7.053079574121686   dF: -1.245e-04   |Residual|: 7.235e-03   |deigs|: 1.922e-02  t[s]:     59.07
	FillingsUpdate:  mu: -0.104615817  nElectrons: 3.000000  magneticMoment: [ Abs: 0.99835  Tot: +0.92000 ]
SCF: Cycle: 16   F: -7.053273017093924   dF: -1.934e-04   |Residual|: 4.826e-03   |deigs|: 1.756e-02  t[s]:     62.27
	FillingsUpdate:  mu: -0.099425296  nElectrons: 3.000000  magneticMoment: [ Abs: 0.97319  Tot: +0.92000 ]
SCF: Cycle: 17   F: -7.053379063347104   dF: -1.060e-04   |Residual|: 3.346e-03   |deigs|: 8.498e-03  t[s]:     65.53
	FillingsUpdate:  mu: -0.098888308  nElectrons: 3.000000  magneticMoment: [ Abs: 0.95265  Tot: +0.92000 ]
SCF: Cycle: 18   F: -7.053447176987389   dF: -6.811e-05   |Residual|: 2.196e-03   |deigs|: 1.399e-03  t[s]:     68.74
	FillingsUpdate:  mu: -0.098701714  nElectrons: 3.000000  magneticMoment: [ Abs: 0.94455  Tot: +0.92000 ]
SCF: Cycle: 19   F: -7.053467730505870   dF: -2.055e-05   |Residual|: 1.338e-03   |deigs|: 8.535e-04  t[s]:     72.03
	FillingsUpdate:  mu: -0.098083866  nElectrons: 3.000000  magneticMoment: [ Abs: 0.93940  Tot: +0.92000 ]
SCF: Cycle: 20   F: -7.053480267445473   dF: -1.254e-05   |Residual|: 9.204e-04   |deigs|: 8.506e-04  t[s]:     75.24
	FillingsUpdate:  mu: -0.098421876  nElectrons: 3.000000  magneticMoment: [ Abs: 0.93466  Tot: +0.92000 ]
SCF: Cycle: 21   F: -7.053490502744601   dF: -1.024e-05   |Residual|: 5.898e-04   |deigs|: 7.887e-04  t[s]:     78.51
	FillingsUpdate:  mu: -0.098777513  nElectrons: 3.000000  magneticMoment: [ Abs: 0.93189  Tot: +0.92000 ]
SCF: Cycle: 22   F: -7.053492632150774   dF: -2.129e-06   |Residual|: 4.384e-04   |deigs|: 5.796e-04  t[s]:     81.70
	FillingsUpdate:  mu: -0.099135504  nElectrons: 3.000000  magneticMoment: [ Abs: 0.92794  Tot: +0.92000 ]
SCF: Cycle: 23   F: -7.053494681040632   dF: -2.049e-06   |Residual|: 3.557e-04   |deigs|: 4.285e-04  t[s]:     85.02
	FillingsUpdate:  mu: -0.099435535  nElectrons: 3.000000  magneticMoment: [ Abs: 0.92371  Tot: +0.92000 ]
SCF: Cycle: 24   F: -7.053496077186033   dF: -1.396e-06   |Residual|: 2.855e-04   |deigs|: 4.709e-04  t[s]:     88.33
	FillingsUpdate:  mu: -0.099777734  nElectrons: 3.000000  magneticMoment: [ Abs: 0.92120  Tot: +0.92000 ]
SCF: Cycle: 25   F: -7.053494672590675   dF: +1.405e-06   |Residual|: 1.814e-04   |deigs|: 3.488e-04  t[s]:     91.71
	FillingsUpdate:  mu: -0.099752015  nElectrons: 3.000000  magneticMoment: [ Abs: 0.92029  Tot: +0.92000 ]
SCF: Cycle: 26   F: -7.053496518916609   dF: -1.846e-06   |Residual|: 1.342e-04   |deigs|: 1.364e-04  t[s]:     94.86
	FillingsUpdate:  mu: -0.099755426  nElectrons: 3.000000  magneticMoment: [ Abs: 0.92003  Tot: +0.92000 ]
SCF: Cycle: 27   F: -7.053496877673755   dF: -3.588e-07   |Residual|: 9.466e-05   |deigs|: 8.264e-05  t[s]:     98.08
	FillingsUpdate:  mu: -0.099642467  nElectrons: 3.000000  magneticMoment: [ Abs: 0.92012  Tot: +0.92000 ]
SCF: Cycle: 28   F: -7.053497201741886   dF: -3.241e-07   |Residual|: 4.938e-05   |deigs|: 1.180e-04  t[s]:    101.33
	FillingsUpdate:  mu: -0.099611968  nElectrons: 3.000000  magneticMoment: [ Abs: 0.92004  Tot: +0.92000 ]
SCF: Cycle: 29   F: -7.053497306998609   dF: -1.053e-07   |Residual|: 3.876e-05   |deigs|: 4.500e-05  t[s]:    104.60
	FillingsUpdate:  mu: -0.099582642  nElectrons: 3.000000  magneticMoment: [ Abs: 0.92000  Tot: +0.92000 ]
SCF: Cycle: 30   F: -7.053497164179976   dF: +1.428e-07   |Residual|: 2.854e-05   |deigs|: 5.560e-05  t[s]:    107.88
	FillingsUpdate:  mu: -0.099553481  nElectrons: 3.000000  magneticMoment: [ Abs: 0.92003  Tot: +0.92000 ]
SCF: Cycle: 31   F: -7.053497304875336   dF: -1.407e-07   |Residual|: 2.017e-05   |deigs|: 4.003e-05  t[s]:    111.17
	FillingsUpdate:  mu: -0.099537905  nElectrons: 3.000000  magneticMoment: [ Abs: 0.92000  Tot: +0.92000 ]
SCF: Cycle: 32   F: -7.053497367316869   dF: -6.244e-08   |Residual|: 1.399e-05   |deigs|: 2.552e-05  t[s]:    114.42
	FillingsUpdate:  mu: -0.099533012  nElectrons: 3.000000  magneticMoment: [ Abs: 0.92000  Tot: +0.92000 ]
SCF: Cycle: 33   F: -7.053497401936768   dF: -3.462e-08   |Residual|: 8.478e-06   |deigs|: 2.311e-05  t[s]:    117.71
	FillingsUpdate:  mu: -0.099532001  nElectrons: 3.000000  magneticMoment: [ Abs: 0.92001  Tot: +0.92000 ]
SCF: Cycle: 34   F: -7.053497410602240   dF: -8.665e-09   |Residual|: 5.251e-06   |deigs|: 1.851e-05  t[s]:    120.94
	FillingsUpdate:  mu: -0.099529290  nElectrons: 3.000000  magneticMoment: [ Abs: 0.92000  Tot: +0.92000 ]
SCF: Cycle: 35   F: -7.053497417668391   dF: -7.066e-09   |Residual|: 3.014e-06   |deigs|: 1.755e-05  t[s]:    124.15
SCF: Converged (|Delta E|<1.000000e-08 for 2 iters).


# Ionic positions in lattice coordinates:
ion Li   0.000000000000000   0.000000000000000   0.000000000000000 0

# Forces in Lattice coordinates:
force Li   0.000000000000000  -0.000000000000000   0.000000000000000 0

# Energy components:
   Eewald =       -1.3368908222468645
       EH =        2.2284768048625643
     Eloc =       -7.5758942007887873
      Enl =       -3.6058975592862597
   Epulay =       -0.0000013080581827
      Exc =       -1.5469045170157791
       KE =        4.7836149152775214
-------------------------------------
     Etot =       -7.0534966872557874
       TS =        0.0000007304126033
-------------------------------------
        F =       -7.0534974176683907

IonicMinimize: Iter:   0  F: -7.053497417668391  |grad|_K:  0.000e+00  t[s]:    124.29
IonicMinimize: Converged (|grad|_K<1.000000e-04).

#--- Lowdin population analysis ---
# oxidation-state Li +2.066
# magnetic-moments Li +0.851

End date and time: Sat Feb  5 23:16:05 2022  (Duration: 0-0:02:04.31)
Done!
