
*************** JDFTx 1.6.0 (git hash 42ebbcc2) ***************

Start date and time: Sat Feb  5 23:01:24 2022
Executable jdftx with command-line: -i Alkali.in
Running on hosts (process indices):  d-6-4-1 (0-18)
Divided in process groups (process indices):  0 (0)  1 (1)  2 (2)  3 (3)  4 (4)  5 (5)  6 (6)  7 (7)  8 (8)  9 (9)  10 (10)  11 (11)  12 (12)  13 (13)  14 (14)  15 (15)  16 (16)  17 (17)  18 (18)
Resource initialization completed at t[s]:      0.00
Run totals: 19 processes, 48 threads, 0 GPUs


Input parsed successfully to the following command list (including defaults):

basis kpoint-dependent
coords-type Lattice
core-overlap-check vector
coulomb-interaction Slab 001
davidson-band-ratio 1.1
dump End None
dump-name $INPUT.$VAR
elec-cutoff 20
elec-eigen-algo Davidson
elec-ex-corr gga-PBE
elec-initial-magnetization 0.340000 yes
elec-smearing Fermi 1e-05
electronic-minimize  \
	dirUpdateScheme      FletcherReeves \
	linminMethod         DirUpdateRecommended \
	nIterations          100 \
	history              15 \
	knormThreshold       0 \
	energyDiffThreshold  1e-08 \
	nEnergyDiff          2 \
	alphaTstart          1 \
	alphaTmin            1e-10 \
	updateTestStepSize   yes \
	alphaTreduceFactor   0.1 \
	alphaTincreaseFactor 3 \
	nAlphaAdjustMax      3 \
	wolfeEnergy          0.0001 \
	wolfeGradient        0.9 \
	fdTest               no
electronic-scf  \
	nIterations	10000 \
	energyDiffThreshold	1e-08 \
	residualThreshold	1e-07 \
	mixFraction	0.5 \
	qMetric	0.8 \
	history	10 \
	nEigSteps	2 \
	eigDiffThreshold	1e-08 \
	mixedVariable	Density \
	qKerker	0.8 \
	qKappa	-1 \
	verbose	no \
	mixFractionMag	1.5
exchange-regularization WignerSeitzTruncated
fluid None
fluid-ex-corr (null) lda-PZ
fluid-gummel-loop 10 1.000000e-05
fluid-minimize  \
	dirUpdateScheme      PolakRibiere \
	linminMethod         DirUpdateRecommended \
	nIterations          100 \
	history              15 \
	knormThreshold       0 \
	energyDiffThreshold  0 \
	nEnergyDiff          2 \
	alphaTstart          1 \
	alphaTmin            1e-10 \
	updateTestStepSize   yes \
	alphaTreduceFactor   0.1 \
	alphaTincreaseFactor 3 \
	nAlphaAdjustMax      3 \
	wolfeEnergy          0.0001 \
	wolfeGradient        0.9 \
	fdTest               no
fluid-solvent H2O 55.338 ScalarEOS \
	epsBulk 78.4 \
	pMol 0.92466 \
	epsInf 1.77 \
	Pvap 1.06736e-10 \
	sigmaBulk 4.62e-05 \
	Rvdw 2.61727 \
	Res 1.42 \
	tauNuc 343133 \
	poleEl 15 7 1
forces-output-coords Positions
ion Li   0.000000000000000   0.000000000000000   0.000000000000000 0
ion-species SG15/$ID_ONCV_PBE.upf
ion-width 0
ionic-minimize  \
	dirUpdateScheme      L-BFGS \
	linminMethod         DirUpdateRecommended \
	nIterations          0 \
	history              15 \
	knormThreshold       0.0001 \
	energyDiffThreshold  1e-06 \
	nEnergyDiff          2 \
	alphaTstart          1 \
	alphaTmin            1e-10 \
	updateTestStepSize   yes \
	alphaTreduceFactor   0.1 \
	alphaTincreaseFactor 3 \
	nAlphaAdjustMax      3 \
	wolfeEnergy          0.0001 \
	wolfeGradient        0.9 \
	fdTest               no
kpoint   0.000000000000   0.000000000000   0.000000000000  1.00000000000000
kpoint-folding 12 12 1 
latt-move-scale 1 1 1
latt-scale 3 3 1 
lattice  \
	   4.727486978767153   -2.363743489383575    0.000000000000000  \
	  -0.000000000000000    4.094123819672498    0.000000000000000  \
	   0.000000000000000    0.000000000000000   40.000000000000000 
lattice-minimize  \
	dirUpdateScheme      L-BFGS \
	linminMethod         DirUpdateRecommended \
	nIterations          0 \
	history              15 \
	knormThreshold       0 \
	energyDiffThreshold  1e-06 \
	nEnergyDiff          2 \
	alphaTstart          1 \
	alphaTmin            1e-10 \
	updateTestStepSize   yes \
	alphaTreduceFactor   0.1 \
	alphaTincreaseFactor 3 \
	nAlphaAdjustMax      3 \
	wolfeEnergy          0.0001 \
	wolfeGradient        0.9 \
	fdTest               no
lcao-params -1 1e-06 1e-05
pcm-variant GLSSA13
spintype z-spin
subspace-rotation-factor 1 yes
symmetries automatic
symmetry-threshold 0.0001



---------- Setting up symmetries ----------

Found 24 point-group symmetries of the bravais lattice
Found 24 space-group symmetries with basis
Applied RMS atom displacement 0 bohrs to make symmetries exact.

---------- Initializing the Grid ----------
R = 
[      14.1825     -7.09123            0  ]
[            0      12.2824            0  ]
[            0            0           40  ]
unit cell volume = 6967.77
G =
[   0.443025   0.255781         -0  ]
[          0   0.511561         -0  ]
[         -0         -0    0.15708  ]
Minimum fftbox size, Smin = [  60  60  164  ]
Chosen fftbox size, S = [  60  60  168  ]

---------- Exchange Correlation functional ----------
Initalized PBE GGA exchange.
Initalized PBE GGA correlation.

---------- Setting up pseudopotentials ----------
Width of ionic core gaussian charges (only for fluid interactions / plotting) set to 0

Reading pseudopotential file '/home/gridsan/aligho/DFT/build-Nov24/pseudopotentials/SG15/Li_ONCV_PBE.upf':
  'Li' pseudopotential, 'PBE' functional
  Generated using ONCVPSP code by D. R. Hamann
  Author: Martin Schlipf and Francois Gygi  Date: 150915.
  3 valence electrons, 2 orbitals, 4 projectors, 1328 radial grid points, with lMax = 1
  Transforming local potential to a uniform radial grid of dG=0.02 with 1489 points.
  Transforming nonlocal projectors to a uniform radial grid of dG=0.02 with 432 points.
    1S    l: 0   occupation:  2.0   eigenvalue: -1.905623
    2S    l: 0   occupation:  1.0   eigenvalue: -0.105624
  Transforming atomic orbitals to a uniform radial grid of dG=0.02 with 432 points.
  WARNING: large normalization error in atomic orbital 1s (integral: 0.000000).
  Core radius for overlap checks: 1.63 bohrs.
  Reading pulay file /home/gridsan/aligho/DFT/build-Nov24/pseudopotentials/SG15/Li_ONCV_PBE.pulay ... using dE_dnG = -1.230239e-02 computed for Ecut = 20.

Initialized 1 species with 1 total atoms.

Folded 1 k-points by 12x12x1 to 144 k-points.

---------- Setting up k-points, bands, fillings ----------
Reduced to 19 k-points under symmetry. 
Computing the number of bands and number of electrons
Calculating initial fillings.
nElectrons:   3.000000   nBands: 3   nStates: 38

----- Setting up reduced wavefunction bases (one per k-point) -----
average nbasis = 29766.104 , ideal nbasis = 29766.845

---------- Setting up coulomb interaction ----------
Initialized slab truncation along lattice direction 001

---------- Setting up 2D ewald sum ----------
Optimum gaussian width for ewald sums = 7.873530 bohr.
Real space sums over 289 unit cells with max indices [  8  8  0  ]
Reciprocal space sums over 81 terms with max indices [  4  4  0  ]

---------- Allocating electronic variables ----------
Initializing wave functions:  linear combination of atomic orbitals
Note: number of bands (3) exceeds available atomic orbitals (2)
Li pseudo-atom occupations:   s ( 2 1 )
	FillingsUpdate:  mu: +0.352474246  nElectrons: 3.000000  magneticMoment: [ Abs: 0.34000  Tot: +0.34000 ]
LCAOMinimize: Iter:   0  F: -1.2888716766006700  |grad|_K:  4.891e-05  alpha:  1.000e+00
	FillingsUpdate:  mu: +0.352473704  nElectrons: 3.000000  magneticMoment: [ Abs: 0.34000  Tot: +0.34000 ]
LCAOMinimize: Iter:   1  F: -1.2888721090361770  |grad|_K:  4.741e-07  alpha:  1.057e+00  linmin: -1.211e-03  cgtest:  9.442e-03  t[s]:      7.43
	FillingsUpdate:  mu: +0.352473708  nElectrons: 3.000000  magneticMoment: [ Abs: 0.34000  Tot: +0.34000 ]
LCAOMinimize: Iter:   2  F: -1.2888721090753466  |grad|_K:  9.015e-09  alpha:  1.001e+00  linmin: -5.732e-03  cgtest:  2.001e-01  t[s]:      9.41
LCAOMinimize: Encountered beta<0, resetting CG.
LCAOMinimize: Converged (|Delta F|<1.000000e-06 for 2 iters).


---- Citations for features of the code used in this run ----

   Software package:
      R. Sundararaman, K. Letchworth-Weaver, K.A. Schwarz, D. Gunceler, Y. Ozhabes and T.A. Arias, 'JDFTx: software for joint density-functional theory', SoftwareX 6, 278 (2017)

   gga-PBE exchange-correlation functional:
      J.P. Perdew, K. Burke and M. Ernzerhof, Phys. Rev. Lett. 77, 3865 (1996)

   Pseudopotentials:
      M Schlipf and F Gygi, Comput. Phys. Commun. 196, 36 (2015)

   Truncated Coulomb potentials:
      R. Sundararaman and T.A. Arias, Phys. Rev. B 87, 165122 (2013)

This list may not be complete. Please suggest additional citations or
report any other bugs at https://github.com/shankar1729/jdftx/issues

Initialization completed successfully at t[s]:      9.50


-------- Electronic minimization -----------
Will mix electronic density at each iteration.
	FillingsUpdate:  mu: +0.352473708  nElectrons: 3.000000  magneticMoment: [ Abs: 0.34000  Tot: +0.34000 ]
	FillingsUpdate:  mu: -0.694469727  nElectrons: 3.000000  magneticMoment: [ Abs: 0.34000  Tot: +0.34000 ]
SCF: Cycle:  0   F: -6.870785100145470   dF: -5.582e+00   |Residual|: 1.224e+00   |deigs|: 4.156e+00  t[s]:     12.85
	FillingsUpdate:  mu: -0.572556028  nElectrons: 3.000000  magneticMoment: [ Abs: 0.54921  Tot: +0.34000 ]
SCF: Cycle:  1   F: -6.916392624941438   dF: -4.561e-02   |Residual|: 7.624e-01   |deigs|: 2.739e-01  t[s]:     15.49
	FillingsUpdate:  mu: -0.343693000  nElectrons: 3.000000  magneticMoment: [ Abs: 0.74330  Tot: +0.34000 ]
SCF: Cycle:  2   F: -7.039372396331257   dF: -1.230e-01   |Residual|: 3.300e-01   |deigs|: 7.119e-01  t[s]:     18.25
	FillingsUpdate:  mu: -0.359471508  nElectrons: 3.000000  magneticMoment: [ Abs: 0.69951  Tot: +0.34000 ]
SCF: Cycle:  3   F: -7.041192154813789   dF: -1.820e-03   |Residual|: 1.894e-01   |deigs|: 7.788e-02  t[s]:     21.13
	FillingsUpdate:  mu: -0.328298791  nElectrons: 3.000000  magneticMoment: [ Abs: 0.67973  Tot: +0.34000 ]
SCF: Cycle:  4   F: -7.040807369061609   dF: +3.848e-04   |Residual|: 4.585e-02   |deigs|: 2.566e-02  t[s]:     23.99
	FillingsUpdate:  mu: -0.316327008  nElectrons: 3.000000  magneticMoment: [ Abs: 0.63144  Tot: +0.34000 ]
SCF: Cycle:  5   F: -7.040248809138201   dF: +5.586e-04   |Residual|: 1.011e-01   |deigs|: 1.232e-02  t[s]:     26.90
	FillingsUpdate:  mu: -0.264110239  nElectrons: 3.000000  magneticMoment: [ Abs: 0.46967  Tot: +0.34000 ]
SCF: Cycle:  6   F: -7.044239993059315   dF: -3.991e-03   |Residual|: 6.017e-02   |deigs|: 9.128e-02  t[s]:     29.94
	FillingsUpdate:  mu: -0.236076058  nElectrons: 3.000000  magneticMoment: [ Abs: 0.41883  Tot: +0.34000 ]
SCF: Cycle:  7   F: -7.045674657537393   dF: -1.435e-03   |Residual|: 1.129e-01   |deigs|: 7.964e-02  t[s]:     33.00
	FillingsUpdate:  mu: -0.237906873  nElectrons: 3.000000  magneticMoment: [ Abs: 0.40444  Tot: +0.34000 ]
SCF: Cycle:  8   F: -7.045687578673435   dF: -1.292e-05   |Residual|: 9.122e-02   |deigs|: 1.249e-02  t[s]:     36.14
	FillingsUpdate:  mu: -0.227507790  nElectrons: 3.000000  magneticMoment: [ Abs: 0.44542  Tot: +0.34000 ]
SCF: Cycle:  9   F: -7.046110182013274   dF: -4.226e-04   |Residual|: 8.912e-02   |deigs|: 6.689e-02  t[s]:     39.35
	FillingsUpdate:  mu: -0.201678898  nElectrons: 3.000000  magneticMoment: [ Abs: 0.42872  Tot: +0.34000 ]
SCF: Cycle: 10   F: -7.046744651891831   dF: -6.345e-04   |Residual|: 6.398e-02   |deigs|: 2.827e-02  t[s]:     42.55
	FillingsUpdate:  mu: -0.173481971  nElectrons: 3.000000  magneticMoment: [ Abs: 0.45798  Tot: +0.34000 ]
SCF: Cycle: 11   F: -7.047548894596604   dF: -8.042e-04   |Residual|: 2.884e-02   |deigs|: 4.835e-02  t[s]:     45.80
	FillingsUpdate:  mu: -0.165749555  nElectrons: 3.000000  magneticMoment: [ Abs: 0.45461  Tot: +0.34000 ]
SCF: Cycle: 12   F: -7.047703355555979   dF: -1.545e-04   |Residual|: 1.027e-02   |deigs|: 7.748e-03  t[s]:     49.09
	FillingsUpdate:  mu: -0.147862541  nElectrons: 3.000000  magneticMoment: [ Abs: 0.45832  Tot: +0.34000 ]
SCF: Cycle: 13   F: -7.047768986321382   dF: -6.563e-05   |Residual|: 7.987e-03   |deigs|: 1.659e-02  t[s]:     52.33
	FillingsUpdate:  mu: -0.134255662  nElectrons: 3.000000  magneticMoment: [ Abs: 0.44529  Tot: +0.34000 ]
SCF: Cycle: 14   F: -7.047709509069642   dF: +5.948e-05   |Residual|: 6.942e-03   |deigs|: 1.460e-02  t[s]:     55.54
	FillingsUpdate:  mu: -0.121786054  nElectrons: 3.000000  magneticMoment: [ Abs: 0.42429  Tot: +0.34000 ]
SCF: Cycle: 15   F: -7.047694257365969   dF: +1.525e-05   |Residual|: 6.198e-03   |deigs|: 1.361e-02  t[s]:     58.74
	FillingsUpdate:  mu: -0.111430282  nElectrons: 3.000000  magneticMoment: [ Abs: 0.39002  Tot: +0.34000 ]
SCF: Cycle: 16   F: -7.047923817800930   dF: -2.296e-04   |Residual|: 4.219e-03   |deigs|: 1.051e-02  t[s]:     62.08
	FillingsUpdate:  mu: -0.108504069  nElectrons: 3.000000  magneticMoment: [ Abs: 0.38144  Tot: +0.34000 ]
SCF: Cycle: 17   F: -7.048025553787224   dF: -1.017e-04   |Residual|: 2.763e-03   |deigs|: 3.659e-03  t[s]:     65.29
	FillingsUpdate:  mu: -0.107376621  nElectrons: 3.000000  magneticMoment: [ Abs: 0.36553  Tot: +0.34000 ]
SCF: Cycle: 18   F: -7.048105530344548   dF: -7.998e-05   |Residual|: 1.935e-03   |deigs|: 1.660e-03  t[s]:     68.53
	FillingsUpdate:  mu: -0.106755234  nElectrons: 3.000000  magneticMoment: [ Abs: 0.35635  Tot: +0.34000 ]
SCF: Cycle: 19   F: -7.048147680542456   dF: -4.215e-05   |Residual|: 1.109e-03   |deigs|: 7.208e-04  t[s]:     71.79
	FillingsUpdate:  mu: -0.106059807  nElectrons: 3.000000  magneticMoment: [ Abs: 0.35366  Tot: +0.34000 ]
SCF: Cycle: 20   F: -7.048163226839008   dF: -1.555e-05   |Residual|: 7.127e-04   |deigs|: 7.289e-04  t[s]:     74.97
	FillingsUpdate:  mu: -0.105717986  nElectrons: 3.000000  magneticMoment: [ Abs: 0.35159  Tot: +0.34000 ]
SCF: Cycle: 21   F: -7.048170464880637   dF: -7.238e-06   |Residual|: 4.326e-04   |deigs|: 4.448e-04  t[s]:     78.20
	FillingsUpdate:  mu: -0.105503983  nElectrons: 3.000000  magneticMoment: [ Abs: 0.34994  Tot: +0.34000 ]
SCF: Cycle: 22   F: -7.048172460724053   dF: -1.996e-06   |Residual|: 2.929e-04   |deigs|: 2.794e-04  t[s]:     81.42
	FillingsUpdate:  mu: -0.105604511  nElectrons: 3.000000  magneticMoment: [ Abs: 0.34691  Tot: +0.34000 ]
SCF: Cycle: 23   F: -7.048173670437339   dF: -1.210e-06   |Residual|: 1.694e-04   |deigs|: 1.601e-04  t[s]:     84.67
	FillingsUpdate:  mu: -0.105741809  nElectrons: 3.000000  magneticMoment: [ Abs: 0.34499  Tot: +0.34000 ]
SCF: Cycle: 24   F: -7.048173791387951   dF: -1.210e-07   |Residual|: 1.436e-04   |deigs|: 1.674e-04  t[s]:     87.90
	FillingsUpdate:  mu: -0.105924252  nElectrons: 3.000000  magneticMoment: [ Abs: 0.34339  Tot: +0.34000 ]
SCF: Cycle: 25   F: -7.048173869870205   dF: -7.848e-08   |Residual|: 1.252e-04   |deigs|: 2.147e-04  t[s]:     91.12
	FillingsUpdate:  mu: -0.106048264  nElectrons: 3.000000  magneticMoment: [ Abs: 0.34210  Tot: +0.34000 ]
SCF: Cycle: 26   F: -7.048173877874818   dF: -8.005e-09   |Residual|: 1.061e-04   |deigs|: 1.780e-04  t[s]:     94.34
	FillingsUpdate:  mu: -0.106130326  nElectrons: 3.000000  magneticMoment: [ Abs: 0.34091  Tot: +0.34000 ]
SCF: Cycle: 27   F: -7.048173936525550   dF: -5.865e-08   |Residual|: 7.244e-05   |deigs|: 1.422e-04  t[s]:     97.56
	FillingsUpdate:  mu: -0.106154380  nElectrons: 3.000000  magneticMoment: [ Abs: 0.34032  Tot: +0.34000 ]
SCF: Cycle: 28   F: -7.048174003302720   dF: -6.678e-08   |Residual|: 5.508e-05   |deigs|: 1.001e-04  t[s]:    100.72
	FillingsUpdate:  mu: -0.106160116  nElectrons: 3.000000  magneticMoment: [ Abs: 0.34006  Tot: +0.34000 ]
SCF: Cycle: 29   F: -7.048174058411409   dF: -5.511e-08   |Residual|: 4.340e-05   |deigs|: 8.014e-05  t[s]:    103.93
	FillingsUpdate:  mu: -0.106150187  nElectrons: 3.000000  magneticMoment: [ Abs: 0.34008  Tot: +0.34000 ]
SCF: Cycle: 30   F: -7.048174079274964   dF: -2.086e-08   |Residual|: 3.634e-05   |deigs|: 6.144e-05  t[s]:    107.20
	FillingsUpdate:  mu: -0.106131060  nElectrons: 3.000000  magneticMoment: [ Abs: 0.34000  Tot: +0.34000 ]
SCF: Cycle: 31   F: -7.048174087192185   dF: -7.917e-09   |Residual|: 2.801e-05   |deigs|: 4.650e-05  t[s]:    110.47
	FillingsUpdate:  mu: -0.106116353  nElectrons: 3.000000  magneticMoment: [ Abs: 0.34002  Tot: +0.34000 ]
SCF: Cycle: 32   F: -7.048174117255207   dF: -3.006e-08   |Residual|: 1.849e-05   |deigs|: 3.610e-05  t[s]:    113.70
	FillingsUpdate:  mu: -0.106111729  nElectrons: 3.000000  magneticMoment: [ Abs: 0.34000  Tot: +0.34000 ]
SCF: Cycle: 33   F: -7.048174127602131   dF: -1.035e-08   |Residual|: 1.233e-05   |deigs|: 2.669e-05  t[s]:    116.99
	FillingsUpdate:  mu: -0.106115706  nElectrons: 3.000000  magneticMoment: [ Abs: 0.34000  Tot: +0.34000 ]
SCF: Cycle: 34   F: -7.048174132672042   dF: -5.070e-09   |Residual|: 8.934e-06   |deigs|: 2.049e-05  t[s]:    120.20
	FillingsUpdate:  mu: -0.106121177  nElectrons: 3.000000  magneticMoment: [ Abs: 0.34000  Tot: +0.34000 ]
SCF: Cycle: 35   F: -7.048174133932541   dF: -1.260e-09   |Residual|: 7.464e-06   |deigs|: 1.640e-05  t[s]:    123.39
SCF: Converged (|Delta E|<1.000000e-08 for 2 iters).


# Ionic positions in lattice coordinates:
ion Li   0.000000000000000   0.000000000000000   0.000000000000000 0

# Forces in Lattice coordinates:
force Li  -0.000000000000000  -0.000000000000000   0.000000000000000 0

# Energy components:
   Eewald =       -1.3368908222468645
       EH =        2.1998422895075955
     Eloc =       -7.5394403085818578
      Enl =       -3.6013015563876642
   Epulay =       -0.0000013080581827
      Exc =       -1.5325942254311693
       KE =        4.7622127588737726
-------------------------------------
     Etot =       -7.0481731723243719
       TS =        0.0000009616081688
-------------------------------------
        F =       -7.0481741339325410

IonicMinimize: Iter:   0  F: -7.048174133932541  |grad|_K:  0.000e+00  t[s]:    123.55
IonicMinimize: Converged (|grad|_K<1.000000e-04).

#--- Lowdin population analysis ---
# oxidation-state Li +2.100
# magnetic-moments Li +0.313

End date and time: Sat Feb  5 23:03:27 2022  (Duration: 0-0:02:03.56)
Done!
