
*************** JDFTx 1.6.0 (git hash 42ebbcc2) ***************

Start date and time: Sat Feb  5 22:54:16 2022
Executable jdftx with command-line: -i Alkali.in
Running on hosts (process indices):  d-3-7-3 (0-18)
Divided in process groups (process indices):  0 (0)  1 (1)  2 (2)  3 (3)  4 (4)  5 (5)  6 (6)  7 (7)  8 (8)  9 (9)  10 (10)  11 (11)  12 (12)  13 (13)  14 (14)  15 (15)  16 (16)  17 (17)  18 (18)
Resource initialization completed at t[s]:      0.00
Run totals: 19 processes, 48 threads, 0 GPUs


Input parsed successfully to the following command list (including defaults):

basis kpoint-dependent
coords-type Lattice
core-overlap-check vector
coulomb-interaction Slab 001
davidson-band-ratio 1.1
dump End None
dump-name $INPUT.$VAR
elec-cutoff 20
elec-eigen-algo Davidson
elec-ex-corr gga-PBE
elec-initial-magnetization -0.340000 yes
elec-smearing Fermi 1e-05
electronic-minimize  \
	dirUpdateScheme      FletcherReeves \
	linminMethod         DirUpdateRecommended \
	nIterations          100 \
	history              15 \
	knormThreshold       0 \
	energyDiffThreshold  1e-08 \
	nEnergyDiff          2 \
	alphaTstart          1 \
	alphaTmin            1e-10 \
	updateTestStepSize   yes \
	alphaTreduceFactor   0.1 \
	alphaTincreaseFactor 3 \
	nAlphaAdjustMax      3 \
	wolfeEnergy          0.0001 \
	wolfeGradient        0.9 \
	fdTest               no
electronic-scf  \
	nIterations	10000 \
	energyDiffThreshold	1e-08 \
	residualThreshold	1e-07 \
	mixFraction	0.5 \
	qMetric	0.8 \
	history	10 \
	nEigSteps	2 \
	eigDiffThreshold	1e-08 \
	mixedVariable	Density \
	qKerker	0.8 \
	qKappa	-1 \
	verbose	no \
	mixFractionMag	1.5
exchange-regularization WignerSeitzTruncated
fluid None
fluid-ex-corr (null) lda-PZ
fluid-gummel-loop 10 1.000000e-05
fluid-minimize  \
	dirUpdateScheme      PolakRibiere \
	linminMethod         DirUpdateRecommended \
	nIterations          100 \
	history              15 \
	knormThreshold       0 \
	energyDiffThreshold  0 \
	nEnergyDiff          2 \
	alphaTstart          1 \
	alphaTmin            1e-10 \
	updateTestStepSize   yes \
	alphaTreduceFactor   0.1 \
	alphaTincreaseFactor 3 \
	nAlphaAdjustMax      3 \
	wolfeEnergy          0.0001 \
	wolfeGradient        0.9 \
	fdTest               no
fluid-solvent H2O 55.338 ScalarEOS \
	epsBulk 78.4 \
	pMol 0.92466 \
	epsInf 1.77 \
	Pvap 1.06736e-10 \
	sigmaBulk 4.62e-05 \
	Rvdw 2.61727 \
	Res 1.42 \
	tauNuc 343133 \
	poleEl 15 7 1
forces-output-coords Positions
ion Li   0.000000000000000   0.000000000000000   0.000000000000000 0
ion-species SG15/$ID_ONCV_PBE.upf
ion-width 0
ionic-minimize  \
	dirUpdateScheme      L-BFGS \
	linminMethod         DirUpdateRecommended \
	nIterations          0 \
	history              15 \
	knormThreshold       0.0001 \
	energyDiffThreshold  1e-06 \
	nEnergyDiff          2 \
	alphaTstart          1 \
	alphaTmin            1e-10 \
	updateTestStepSize   yes \
	alphaTreduceFactor   0.1 \
	alphaTincreaseFactor 3 \
	nAlphaAdjustMax      3 \
	wolfeEnergy          0.0001 \
	wolfeGradient        0.9 \
	fdTest               no
kpoint   0.000000000000   0.000000000000   0.000000000000  1.00000000000000
kpoint-folding 12 12 1 
latt-move-scale 1 1 1
latt-scale 3 3 1 
lattice  \
	   4.727486978767153   -2.363743489383575    0.000000000000000  \
	  -0.000000000000000    4.094123819672498    0.000000000000000  \
	   0.000000000000000    0.000000000000000   40.000000000000000 
lattice-minimize  \
	dirUpdateScheme      L-BFGS \
	linminMethod         DirUpdateRecommended \
	nIterations          0 \
	history              15 \
	knormThreshold       0 \
	energyDiffThreshold  1e-06 \
	nEnergyDiff          2 \
	alphaTstart          1 \
	alphaTmin            1e-10 \
	updateTestStepSize   yes \
	alphaTreduceFactor   0.1 \
	alphaTincreaseFactor 3 \
	nAlphaAdjustMax      3 \
	wolfeEnergy          0.0001 \
	wolfeGradient        0.9 \
	fdTest               no
lcao-params -1 1e-06 1e-05
pcm-variant GLSSA13
spintype z-spin
subspace-rotation-factor 1 yes
symmetries automatic
symmetry-threshold 0.0001



---------- Setting up symmetries ----------

Found 24 point-group symmetries of the bravais lattice
Found 24 space-group symmetries with basis
Applied RMS atom displacement 0 bohrs to make symmetries exact.

---------- Initializing the Grid ----------
R = 
[      14.1825     -7.09123            0  ]
[            0      12.2824            0  ]
[            0            0           40  ]
unit cell volume = 6967.77
G =
[   0.443025   0.255781         -0  ]
[          0   0.511561         -0  ]
[         -0         -0    0.15708  ]
Minimum fftbox size, Smin = [  60  60  164  ]
Chosen fftbox size, S = [  60  60  168  ]

---------- Exchange Correlation functional ----------
Initalized PBE GGA exchange.
Initalized PBE GGA correlation.

---------- Setting up pseudopotentials ----------
Width of ionic core gaussian charges (only for fluid interactions / plotting) set to 0

Reading pseudopotential file '/home/gridsan/aligho/DFT/build-Nov24/pseudopotentials/SG15/Li_ONCV_PBE.upf':
  'Li' pseudopotential, 'PBE' functional
  Generated using ONCVPSP code by D. R. Hamann
  Author: Martin Schlipf and Francois Gygi  Date: 150915.
  3 valence electrons, 2 orbitals, 4 projectors, 1328 radial grid points, with lMax = 1
  Transforming local potential to a uniform radial grid of dG=0.02 with 1489 points.
  Transforming nonlocal projectors to a uniform radial grid of dG=0.02 with 432 points.
    1S    l: 0   occupation:  2.0   eigenvalue: -1.905623
    2S    l: 0   occupation:  1.0   eigenvalue: -0.105624
  Transforming atomic orbitals to a uniform radial grid of dG=0.02 with 432 points.
  WARNING: large normalization error in atomic orbital 1s (integral: 0.000000).
  Core radius for overlap checks: 1.63 bohrs.
  Reading pulay file /home/gridsan/aligho/DFT/build-Nov24/pseudopotentials/SG15/Li_ONCV_PBE.pulay ... using dE_dnG = -1.230239e-02 computed for Ecut = 20.

Initialized 1 species with 1 total atoms.

Folded 1 k-points by 12x12x1 to 144 k-points.

---------- Setting up k-points, bands, fillings ----------
Reduced to 19 k-points under symmetry. 
Computing the number of bands and number of electrons
Calculating initial fillings.
nElectrons:   3.000000   nBands: 3   nStates: 38

----- Setting up reduced wavefunction bases (one per k-point) -----
average nbasis = 29766.104 , ideal nbasis = 29766.845

---------- Setting up coulomb interaction ----------
Initialized slab truncation along lattice direction 001

---------- Setting up 2D ewald sum ----------
Optimum gaussian width for ewald sums = 7.873530 bohr.
Real space sums over 289 unit cells with max indices [  8  8  0  ]
Reciprocal space sums over 81 terms with max indices [  4  4  0  ]

---------- Allocating electronic variables ----------
Initializing wave functions:  linear combination of atomic orbitals
Note: number of bands (3) exceeds available atomic orbitals (2)
Li pseudo-atom occupations:   s ( 2 1 )
	FillingsUpdate:  mu: +0.352721828  nElectrons: 3.000000  magneticMoment: [ Abs: 0.34069  Tot: -0.34000 ]
LCAOMinimize: Iter:   0  F: -1.2877465307727536  |grad|_K:  4.818e-05  alpha:  1.000e+00
	FillingsUpdate:  mu: +0.352721284  nElectrons: 3.000000  magneticMoment: [ Abs: 0.34069  Tot: -0.34000 ]
LCAOMinimize: Iter:   1  F: -1.2877469504579948  |grad|_K:  4.768e-07  alpha:  1.057e+00  linmin: -1.018e-03  cgtest:  8.559e-03  t[s]:      7.44
	FillingsUpdate:  mu: +0.352721286  nElectrons: 3.000000  magneticMoment: [ Abs: 0.34069  Tot: -0.34000 ]
LCAOMinimize: Iter:   2  F: -1.2877469504967898  |grad|_K:  7.590e-09  alpha:  1.012e+00  linmin:  1.329e-02  cgtest: -5.865e-01  t[s]:      9.39
LCAOMinimize: Converged (|Delta F|<1.000000e-06 for 2 iters).


---- Citations for features of the code used in this run ----

   Software package:
      R. Sundararaman, K. Letchworth-Weaver, K.A. Schwarz, D. Gunceler, Y. Ozhabes and T.A. Arias, 'JDFTx: software for joint density-functional theory', SoftwareX 6, 278 (2017)

   gga-PBE exchange-correlation functional:
      J.P. Perdew, K. Burke and M. Ernzerhof, Phys. Rev. Lett. 77, 3865 (1996)

   Pseudopotentials:
      M Schlipf and F Gygi, Comput. Phys. Commun. 196, 36 (2015)

   Truncated Coulomb potentials:
      R. Sundararaman and T.A. Arias, Phys. Rev. B 87, 165122 (2013)

This list may not be complete. Please suggest additional citations or
report any other bugs at https://github.com/shankar1729/jdftx/issues

Initialization completed successfully at t[s]:      9.48


-------- Electronic minimization -----------
Will mix electronic density at each iteration.
	FillingsUpdate:  mu: +0.352721286  nElectrons: 3.000000  magneticMoment: [ Abs: 0.34069  Tot: -0.34000 ]
	FillingsUpdate:  mu: -0.694640144  nElectrons: 3.000000  magneticMoment: [ Abs: 0.34069  Tot: -0.34000 ]
SCF: Cycle:  0   F: -6.872754389157254   dF: -5.585e+00   |Residual|: 1.224e+00   |deigs|: 4.156e+00  t[s]:     12.81
	FillingsUpdate:  mu: -0.574639490  nElectrons: 3.000000  magneticMoment: [ Abs: 0.53960  Tot: -0.34000 ]
SCF: Cycle:  1   F: -6.916711693839519   dF: -4.396e-02   |Residual|: 7.622e-01   |deigs|: 2.732e-01  t[s]:     15.57
	FillingsUpdate:  mu: -0.343594761  nElectrons: 3.000000  magneticMoment: [ Abs: 0.74062  Tot: -0.34000 ]
SCF: Cycle:  2   F: -7.039009094153042   dF: -1.223e-01   |Residual|: 3.290e-01   |deigs|: 7.123e-01  t[s]:     18.28
	FillingsUpdate:  mu: -0.360019478  nElectrons: 3.000000  magneticMoment: [ Abs: 0.70340  Tot: -0.34000 ]
SCF: Cycle:  3   F: -7.040836186286133   dF: -1.827e-03   |Residual|: 1.855e-01   |deigs|: 7.964e-02  t[s]:     21.09
	FillingsUpdate:  mu: -0.327475163  nElectrons: 3.000000  magneticMoment: [ Abs: 0.68653  Tot: -0.34000 ]
SCF: Cycle:  4   F: -7.040790870271253   dF: +4.532e-05   |Residual|: 5.304e-02   |deigs|: 2.662e-02  t[s]:     23.96
	FillingsUpdate:  mu: -0.312876740  nElectrons: 3.000000  magneticMoment: [ Abs: 0.62619  Tot: -0.34000 ]
SCF: Cycle:  5   F: -7.040249131397732   dF: +5.417e-04   |Residual|: 1.158e-01   |deigs|: 1.412e-02  t[s]:     26.91
	FillingsUpdate:  mu: -0.246102644  nElectrons: 3.000000  magneticMoment: [ Abs: 0.47840  Tot: -0.34000 ]
SCF: Cycle:  6   F: -7.045357917774268   dF: -5.109e-03   |Residual|: 4.608e-02   |deigs|: 1.325e-01  t[s]:     29.85
	FillingsUpdate:  mu: -0.234781719  nElectrons: 3.000000  magneticMoment: [ Abs: 0.44035  Tot: -0.34000 ]
SCF: Cycle:  7   F: -7.045552985250128   dF: -1.951e-04   |Residual|: 1.298e-01   |deigs|: 4.241e-02  t[s]:     32.89
	FillingsUpdate:  mu: -0.239415988  nElectrons: 3.000000  magneticMoment: [ Abs: 0.41033  Tot: -0.34000 ]
SCF: Cycle:  8   F: -7.045614700537502   dF: -6.172e-05   |Residual|: 9.436e-02   |deigs|: 1.958e-02  t[s]:     36.01
	FillingsUpdate:  mu: -0.217520980  nElectrons: 3.000000  magneticMoment: [ Abs: 0.40642  Tot: -0.34000 ]
SCF: Cycle:  9   F: -7.046466554845070   dF: -8.519e-04   |Residual|: 6.913e-02   |deigs|: 5.310e-02  t[s]:     39.16
	FillingsUpdate:  mu: -0.206209533  nElectrons: 3.000000  magneticMoment: [ Abs: 0.41935  Tot: -0.34000 ]
SCF: Cycle: 10   F: -7.046561123451296   dF: -9.457e-05   |Residual|: 8.247e-02   |deigs|: 1.331e-02  t[s]:     42.39
	FillingsUpdate:  mu: -0.176629259  nElectrons: 3.000000  magneticMoment: [ Abs: 0.44852  Tot: -0.34000 ]
SCF: Cycle: 11   F: -7.047507857327465   dF: -9.467e-04   |Residual|: 1.605e-02   |deigs|: 5.130e-02  t[s]:     45.65
	FillingsUpdate:  mu: -0.163995139  nElectrons: 3.000000  magneticMoment: [ Abs: 0.45449  Tot: -0.34000 ]
SCF: Cycle: 12   F: -7.047705498733480   dF: -1.976e-04   |Residual|: 1.009e-02   |deigs|: 1.149e-02  t[s]:     48.88
	FillingsUpdate:  mu: -0.144907383  nElectrons: 3.000000  magneticMoment: [ Abs: 0.45447  Tot: -0.34000 ]
SCF: Cycle: 13   F: -7.047712455581691   dF: -6.957e-06   |Residual|: 8.687e-03   |deigs|: 1.773e-02  t[s]:     52.08
	FillingsUpdate:  mu: -0.133354784  nElectrons: 3.000000  magneticMoment: [ Abs: 0.44341  Tot: -0.34000 ]
SCF: Cycle: 14   F: -7.047684275715691   dF: +2.818e-05   |Residual|: 7.078e-03   |deigs|: 1.285e-02  t[s]:     55.31
	FillingsUpdate:  mu: -0.120952272  nElectrons: 3.000000  magneticMoment: [ Abs: 0.42192  Tot: -0.34000 ]
SCF: Cycle: 15   F: -7.047660948786426   dF: +2.333e-05   |Residual|: 5.649e-03   |deigs|: 1.380e-02  t[s]:     58.52
	FillingsUpdate:  mu: -0.110636310  nElectrons: 3.000000  magneticMoment: [ Abs: 0.39144  Tot: -0.34000 ]
SCF: Cycle: 16   F: -7.047903120173864   dF: -2.422e-04   |Residual|: 4.028e-03   |deigs|: 1.140e-02  t[s]:     61.71
	FillingsUpdate:  mu: -0.108428697  nElectrons: 3.000000  magneticMoment: [ Abs: 0.37653  Tot: -0.34000 ]
SCF: Cycle: 17   F: -7.048023588437509   dF: -1.205e-04   |Residual|: 2.903e-03   |deigs|: 2.268e-03  t[s]:     64.91
	FillingsUpdate:  mu: -0.108337907  nElectrons: 3.000000  magneticMoment: [ Abs: 0.36304  Tot: -0.34000 ]
SCF: Cycle: 18   F: -7.048096462322680   dF: -7.287e-05   |Residual|: 1.862e-03   |deigs|: 8.444e-04  t[s]:     68.20
	FillingsUpdate:  mu: -0.107519557  nElectrons: 3.000000  magneticMoment: [ Abs: 0.35630  Tot: -0.34000 ]
SCF: Cycle: 19   F: -7.048140757157360   dF: -4.429e-05   |Residual|: 1.226e-03   |deigs|: 1.206e-03  t[s]:     71.41
	FillingsUpdate:  mu: -0.106376038  nElectrons: 3.000000  magneticMoment: [ Abs: 0.35363  Tot: -0.34000 ]
SCF: Cycle: 20   F: -7.048160659235489   dF: -1.990e-05   |Residual|: 7.829e-04   |deigs|: 1.473e-03  t[s]:     74.58
	FillingsUpdate:  mu: -0.105744150  nElectrons: 3.000000  magneticMoment: [ Abs: 0.35215  Tot: -0.34000 ]
SCF: Cycle: 21   F: -7.048168707662547   dF: -8.048e-06   |Residual|: 4.966e-04   |deigs|: 7.285e-04  t[s]:     77.78
	FillingsUpdate:  mu: -0.105777530  nElectrons: 3.000000  magneticMoment: [ Abs: 0.34986  Tot: -0.34000 ]
SCF: Cycle: 22   F: -7.048171439860942   dF: -2.732e-06   |Residual|: 3.239e-04   |deigs|: 2.004e-04  t[s]:     80.98
	FillingsUpdate:  mu: -0.105933307  nElectrons: 3.000000  magneticMoment: [ Abs: 0.34657  Tot: -0.34000 ]
SCF: Cycle: 23   F: -7.048173430490851   dF: -1.991e-06   |Residual|: 1.836e-04   |deigs|: 3.697e-04  t[s]:     84.23
	FillingsUpdate:  mu: -0.106010109  nElectrons: 3.000000  magneticMoment: [ Abs: 0.34535  Tot: -0.34000 ]
SCF: Cycle: 24   F: -7.048173688820571   dF: -2.583e-07   |Residual|: 1.572e-04   |deigs|: 1.356e-04  t[s]:     87.43
	FillingsUpdate:  mu: -0.105995677  nElectrons: 3.000000  magneticMoment: [ Abs: 0.34338  Tot: -0.34000 ]
SCF: Cycle: 25   F: -7.048173778758177   dF: -8.994e-08   |Residual|: 1.157e-04   |deigs|: 1.600e-04  t[s]:     90.59
	FillingsUpdate:  mu: -0.106067083  nElectrons: 3.000000  magneticMoment: [ Abs: 0.34191  Tot: -0.34000 ]
SCF: Cycle: 26   F: -7.048173851976896   dF: -7.322e-08   |Residual|: 1.024e-04   |deigs|: 1.262e-04  t[s]:     93.80
	FillingsUpdate:  mu: -0.106102660  nElectrons: 3.000000  magneticMoment: [ Abs: 0.34117  Tot: -0.34000 ]
SCF: Cycle: 27   F: -7.048173870632737   dF: -1.866e-08   |Residual|: 8.189e-05   |deigs|: 1.112e-04  t[s]:     97.05
	FillingsUpdate:  mu: -0.106136889  nElectrons: 3.000000  magneticMoment: [ Abs: 0.34037  Tot: -0.34000 ]
SCF: Cycle: 28   F: -7.048174010675834   dF: -1.400e-07   |Residual|: 5.308e-05   |deigs|: 1.101e-04  t[s]:    100.24
	FillingsUpdate:  mu: -0.106138949  nElectrons: 3.000000  magneticMoment: [ Abs: 0.34016  Tot: -0.34000 ]
SCF: Cycle: 29   F: -7.048174072923661   dF: -6.225e-08   |Residual|: 4.072e-05   |deigs|: 8.514e-05  t[s]:    103.43
	FillingsUpdate:  mu: -0.106124490  nElectrons: 3.000000  magneticMoment: [ Abs: 0.34003  Tot: -0.34000 ]
SCF: Cycle: 30   F: -7.048174086774337   dF: -1.385e-08   |Residual|: 2.997e-05   |deigs|: 7.104e-05  t[s]:    106.66
	FillingsUpdate:  mu: -0.106116571  nElectrons: 3.000000  magneticMoment: [ Abs: 0.34000  Tot: -0.34000 ]
SCF: Cycle: 31   F: -7.048174118561128   dF: -3.179e-08   |Residual|: 2.164e-05   |deigs|: 5.594e-05  t[s]:    109.86
	FillingsUpdate:  mu: -0.106121122  nElectrons: 3.000000  magneticMoment: [ Abs: 0.34000  Tot: -0.34000 ]
SCF: Cycle: 32   F: -7.048174126813992   dF: -8.253e-09   |Residual|: 1.399e-05   |deigs|: 4.398e-05  t[s]:    113.07
	FillingsUpdate:  mu: -0.106132185  nElectrons: 3.000000  magneticMoment: [ Abs: 0.34000  Tot: -0.34000 ]
SCF: Cycle: 33   F: -7.048174126469885   dF: +3.441e-10   |Residual|: 8.685e-06   |deigs|: 3.881e-05  t[s]:    116.32
	FillingsUpdate:  mu: -0.106140839  nElectrons: 3.000000  magneticMoment: [ Abs: 0.34000  Tot: -0.34000 ]
SCF: Cycle: 34   F: -7.048174132589350   dF: -6.119e-09   |Residual|: 5.642e-06   |deigs|: 3.013e-05  t[s]:    119.52
	FillingsUpdate:  mu: -0.106145338  nElectrons: 3.000000  magneticMoment: [ Abs: 0.34000  Tot: -0.34000 ]
SCF: Cycle: 35   F: -7.048174134976037   dF: -2.387e-09   |Residual|: 4.515e-06   |deigs|: 2.125e-05  t[s]:    122.71
SCF: Converged (|Delta E|<1.000000e-08 for 2 iters).


# Ionic positions in lattice coordinates:
ion Li   0.000000000000000   0.000000000000000   0.000000000000000 0

# Forces in Lattice coordinates:
force Li  -0.000000000000000  -0.000000000000000   0.000000000000000 0

# Energy components:
   Eewald =       -1.3368908222468645
       EH =        2.1998563859657732
     Eloc =       -7.5394570859481451
      Enl =       -3.6013036886035144
   Epulay =       -0.0000013080581827
      Exc =       -1.5325965416957623
       KE =        4.7622198872245907
-------------------------------------
     Etot =       -7.0481731733621036
       TS =        0.0000009616139334
-------------------------------------
        F =       -7.0481741349760370

IonicMinimize: Iter:   0  F: -7.048174134976037  |grad|_K:  0.000e+00  t[s]:    122.85
IonicMinimize: Converged (|grad|_K<1.000000e-04).

#--- Lowdin population analysis ---
# oxidation-state Li +2.100
# magnetic-moments Li -0.313

End date and time: Sat Feb  5 22:56:19 2022  (Duration: 0-0:02:02.87)
Done!
