
*************** JDFTx 1.6.0 (git hash 42ebbcc2) ***************

Start date and time: Sat Feb  5 22:54:24 2022
Executable jdftx with command-line: -i Alkali.in
Running on hosts (process indices):  d-16-5-2 (0-18)
Divided in process groups (process indices):  0 (0)  1 (1)  2 (2)  3 (3)  4 (4)  5 (5)  6 (6)  7 (7)  8 (8)  9 (9)  10 (10)  11 (11)  12 (12)  13 (13)  14 (14)  15 (15)  16 (16)  17 (17)  18 (18)
Resource initialization completed at t[s]:      0.00
Run totals: 19 processes, 48 threads, 0 GPUs


Input parsed successfully to the following command list (including defaults):

basis kpoint-dependent
coords-type Lattice
core-overlap-check vector
coulomb-interaction Slab 001
davidson-band-ratio 1.1
dump End None
dump-name $INPUT.$VAR
elec-cutoff 20
elec-eigen-algo Davidson
elec-ex-corr gga-PBE
elec-initial-magnetization -0.200000 yes
elec-smearing Fermi 1e-05
electronic-minimize  \
	dirUpdateScheme      FletcherReeves \
	linminMethod         DirUpdateRecommended \
	nIterations          100 \
	history              15 \
	knormThreshold       0 \
	energyDiffThreshold  1e-08 \
	nEnergyDiff          2 \
	alphaTstart          1 \
	alphaTmin            1e-10 \
	updateTestStepSize   yes \
	alphaTreduceFactor   0.1 \
	alphaTincreaseFactor 3 \
	nAlphaAdjustMax      3 \
	wolfeEnergy          0.0001 \
	wolfeGradient        0.9 \
	fdTest               no
electronic-scf  \
	nIterations	10000 \
	energyDiffThreshold	1e-08 \
	residualThreshold	1e-07 \
	mixFraction	0.5 \
	qMetric	0.8 \
	history	10 \
	nEigSteps	2 \
	eigDiffThreshold	1e-08 \
	mixedVariable	Density \
	qKerker	0.8 \
	qKappa	-1 \
	verbose	no \
	mixFractionMag	1.5
exchange-regularization WignerSeitzTruncated
fluid None
fluid-ex-corr (null) lda-PZ
fluid-gummel-loop 10 1.000000e-05
fluid-minimize  \
	dirUpdateScheme      PolakRibiere \
	linminMethod         DirUpdateRecommended \
	nIterations          100 \
	history              15 \
	knormThreshold       0 \
	energyDiffThreshold  0 \
	nEnergyDiff          2 \
	alphaTstart          1 \
	alphaTmin            1e-10 \
	updateTestStepSize   yes \
	alphaTreduceFactor   0.1 \
	alphaTincreaseFactor 3 \
	nAlphaAdjustMax      3 \
	wolfeEnergy          0.0001 \
	wolfeGradient        0.9 \
	fdTest               no
fluid-solvent H2O 55.338 ScalarEOS \
	epsBulk 78.4 \
	pMol 0.92466 \
	epsInf 1.77 \
	Pvap 1.06736e-10 \
	sigmaBulk 4.62e-05 \
	Rvdw 2.61727 \
	Res 1.42 \
	tauNuc 343133 \
	poleEl 15 7 1
forces-output-coords Positions
ion Li   0.000000000000000   0.000000000000000   0.000000000000000 0
ion-species SG15/$ID_ONCV_PBE.upf
ion-width 0
ionic-minimize  \
	dirUpdateScheme      L-BFGS \
	linminMethod         DirUpdateRecommended \
	nIterations          0 \
	history              15 \
	knormThreshold       0.0001 \
	energyDiffThreshold  1e-06 \
	nEnergyDiff          2 \
	alphaTstart          1 \
	alphaTmin            1e-10 \
	updateTestStepSize   yes \
	alphaTreduceFactor   0.1 \
	alphaTincreaseFactor 3 \
	nAlphaAdjustMax      3 \
	wolfeEnergy          0.0001 \
	wolfeGradient        0.9 \
	fdTest               no
kpoint   0.000000000000   0.000000000000   0.000000000000  1.00000000000000
kpoint-folding 12 12 1 
latt-move-scale 1 1 1
latt-scale 3 3 1 
lattice  \
	   4.727486978767153   -2.363743489383575    0.000000000000000  \
	  -0.000000000000000    4.094123819672498    0.000000000000000  \
	   0.000000000000000    0.000000000000000   40.000000000000000 
lattice-minimize  \
	dirUpdateScheme      L-BFGS \
	linminMethod         DirUpdateRecommended \
	nIterations          0 \
	history              15 \
	knormThreshold       0 \
	energyDiffThreshold  1e-06 \
	nEnergyDiff          2 \
	alphaTstart          1 \
	alphaTmin            1e-10 \
	updateTestStepSize   yes \
	alphaTreduceFactor   0.1 \
	alphaTincreaseFactor 3 \
	nAlphaAdjustMax      3 \
	wolfeEnergy          0.0001 \
	wolfeGradient        0.9 \
	fdTest               no
lcao-params -1 1e-06 1e-05
pcm-variant GLSSA13
spintype z-spin
subspace-rotation-factor 1 yes
symmetries automatic
symmetry-threshold 0.0001



---------- Setting up symmetries ----------

Found 24 point-group symmetries of the bravais lattice
Found 24 space-group symmetries with basis
Applied RMS atom displacement 0 bohrs to make symmetries exact.

---------- Initializing the Grid ----------
R = 
[      14.1825     -7.09123            0  ]
[            0      12.2824            0  ]
[            0            0           40  ]
unit cell volume = 6967.77
G =
[   0.443025   0.255781         -0  ]
[          0   0.511561         -0  ]
[         -0         -0    0.15708  ]
Minimum fftbox size, Smin = [  60  60  164  ]
Chosen fftbox size, S = [  60  60  168  ]

---------- Exchange Correlation functional ----------
Initalized PBE GGA exchange.
Initalized PBE GGA correlation.

---------- Setting up pseudopotentials ----------
Width of ionic core gaussian charges (only for fluid interactions / plotting) set to 0

Reading pseudopotential file '/home/gridsan/aligho/DFT/build-Nov24/pseudopotentials/SG15/Li_ONCV_PBE.upf':
  'Li' pseudopotential, 'PBE' functional
  Generated using ONCVPSP code by D. R. Hamann
  Author: Martin Schlipf and Francois Gygi  Date: 150915.
  3 valence electrons, 2 orbitals, 4 projectors, 1328 radial grid points, with lMax = 1
  Transforming local potential to a uniform radial grid of dG=0.02 with 1489 points.
  Transforming nonlocal projectors to a uniform radial grid of dG=0.02 with 432 points.
    1S    l: 0   occupation:  2.0   eigenvalue: -1.905623
    2S    l: 0   occupation:  1.0   eigenvalue: -0.105624
  Transforming atomic orbitals to a uniform radial grid of dG=0.02 with 432 points.
  WARNING: large normalization error in atomic orbital 1s (integral: 0.000000).
  Core radius for overlap checks: 1.63 bohrs.
  Reading pulay file /home/gridsan/aligho/DFT/build-Nov24/pseudopotentials/SG15/Li_ONCV_PBE.pulay ... using dE_dnG = -1.230239e-02 computed for Ecut = 20.

Initialized 1 species with 1 total atoms.

Folded 1 k-points by 12x12x1 to 144 k-points.

---------- Setting up k-points, bands, fillings ----------
Reduced to 19 k-points under symmetry. 
Computing the number of bands and number of electrons
Calculating initial fillings.
nElectrons:   3.000000   nBands: 3   nStates: 38

----- Setting up reduced wavefunction bases (one per k-point) -----
average nbasis = 29766.104 , ideal nbasis = 29766.845

---------- Setting up coulomb interaction ----------
Initialized slab truncation along lattice direction 001

---------- Setting up 2D ewald sum ----------
Optimum gaussian width for ewald sums = 7.873530 bohr.
Real space sums over 289 unit cells with max indices [  8  8  0  ]
Reciprocal space sums over 81 terms with max indices [  4  4  0  ]

---------- Allocating electronic variables ----------
Initializing wave functions:  linear combination of atomic orbitals
Note: number of bands (3) exceeds available atomic orbitals (2)
Li pseudo-atom occupations:   s ( 2 1 )
	FillingsUpdate:  mu: +0.351609372  nElectrons: 3.000000  magneticMoment: [ Abs: 0.20184  Tot: -0.20000 ]
LCAOMinimize: Iter:   0  F: -1.2887094922273674  |grad|_K:  4.771e-05  alpha:  1.000e+00
	FillingsUpdate:  mu: +0.351608552  nElectrons: 3.000000  magneticMoment: [ Abs: 0.20184  Tot: -0.20000 ]
LCAOMinimize: Iter:   1  F: -1.2887099035862981  |grad|_K:  4.709e-07  alpha:  1.057e+00  linmin: -1.175e-03  cgtest:  9.140e-03  t[s]:      7.59
	FillingsUpdate:  mu: +0.351608553  nElectrons: 3.000000  magneticMoment: [ Abs: 0.20184  Tot: -0.20000 ]
LCAOMinimize: Iter:   2  F: -1.2887099036233556  |grad|_K:  4.703e-09  alpha:  1.003e+00  linmin:  1.615e-03  cgtest: -5.719e-02  t[s]:      9.64
LCAOMinimize: Converged (|Delta F|<1.000000e-06 for 2 iters).


---- Citations for features of the code used in this run ----

   Software package:
      R. Sundararaman, K. Letchworth-Weaver, K.A. Schwarz, D. Gunceler, Y. Ozhabes and T.A. Arias, 'JDFTx: software for joint density-functional theory', SoftwareX 6, 278 (2017)

   gga-PBE exchange-correlation functional:
      J.P. Perdew, K. Burke and M. Ernzerhof, Phys. Rev. Lett. 77, 3865 (1996)

   Pseudopotentials:
      M Schlipf and F Gygi, Comput. Phys. Commun. 196, 36 (2015)

   Truncated Coulomb potentials:
      R. Sundararaman and T.A. Arias, Phys. Rev. B 87, 165122 (2013)

This list may not be complete. Please suggest additional citations or
report any other bugs at https://github.com/shankar1729/jdftx/issues

Initialization completed successfully at t[s]:      9.73


-------- Electronic minimization -----------
Will mix electronic density at each iteration.
	FillingsUpdate:  mu: +0.351608553  nElectrons: 3.000000  magneticMoment: [ Abs: 0.20184  Tot: -0.20000 ]
	FillingsUpdate:  mu: -0.694333099  nElectrons: 3.000000  magneticMoment: [ Abs: 0.20184  Tot: -0.20000 ]
SCF: Cycle:  0   F: -6.870249558189744   dF: -5.582e+00   |Residual|: 1.224e+00   |deigs|: 4.156e+00  t[s]:     13.16
	FillingsUpdate:  mu: -0.577889763  nElectrons: 3.000000  magneticMoment: [ Abs: 0.31506  Tot: -0.20000 ]
SCF: Cycle:  1   F: -6.915705726827201   dF: -4.546e-02   |Residual|: 7.612e-01   |deigs|: 2.723e-01  t[s]:     15.87
	FillingsUpdate:  mu: -0.333034806  nElectrons: 3.000000  magneticMoment: [ Abs: 0.43469  Tot: -0.20000 ]
SCF: Cycle:  2   F: -7.039388817986931   dF: -1.237e-01   |Residual|: 3.277e-01   |deigs|: 7.139e-01  t[s]:     18.69
	FillingsUpdate:  mu: -0.355728185  nElectrons: 3.000000  magneticMoment: [ Abs: 0.43810  Tot: -0.20000 ]
SCF: Cycle:  3   F: -7.041255348833436   dF: -1.867e-03   |Residual|: 1.835e-01   |deigs|: 8.055e-02  t[s]:     21.51
	FillingsUpdate:  mu: -0.330417186  nElectrons: 3.000000  magneticMoment: [ Abs: 0.49177  Tot: -0.20000 ]
SCF: Cycle:  4   F: -7.039934196427333   dF: +1.321e-03   |Residual|: 5.660e-02   |deigs|: 2.274e-02  t[s]:     24.46
	FillingsUpdate:  mu: -0.315714970  nElectrons: 3.000000  magneticMoment: [ Abs: 0.45578  Tot: -0.20000 ]
SCF: Cycle:  5   F: -7.039526848197084   dF: +4.073e-04   |Residual|: 1.315e-01   |deigs|: 1.390e-02  t[s]:     27.46
	FillingsUpdate:  mu: -0.272671771  nElectrons: 3.000000  magneticMoment: [ Abs: 0.30027  Tot: -0.20000 ]
SCF: Cycle:  6   F: -7.043091011011212   dF: -3.564e-03   |Residual|: 5.400e-02   |deigs|: 8.148e-02  t[s]:     30.45
	FillingsUpdate:  mu: -0.239935973  nElectrons: 3.000000  magneticMoment: [ Abs: 0.24744  Tot: -0.20000 ]
SCF: Cycle:  7   F: -7.044695141807731   dF: -1.604e-03   |Residual|: 1.485e-01   |deigs|: 9.542e-02  t[s]:     33.60
	FillingsUpdate:  mu: -0.241772586  nElectrons: 3.000000  magneticMoment: [ Abs: 0.22876  Tot: -0.20000 ]
SCF: Cycle:  8   F: -7.044932572372647   dF: -2.374e-04   |Residual|: 1.016e-01   |deigs|: 1.961e-02  t[s]:     36.75
	FillingsUpdate:  mu: -0.235665814  nElectrons: 3.000000  magneticMoment: [ Abs: 0.37657  Tot: -0.20000 ]
SCF: Cycle:  9   F: -7.043985749115867   dF: +9.468e-04   |Residual|: 2.126e-01   |deigs|: 1.243e-01  t[s]:     40.00
	FillingsUpdate:  mu: -0.208315477  nElectrons: 3.000000  magneticMoment: [ Abs: 0.33222  Tot: -0.20000 ]
SCF: Cycle: 10   F: -7.044915394103797   dF: -9.296e-04   |Residual|: 1.664e-01   |deigs|: 3.352e-02  t[s]:     43.36
	FillingsUpdate:  mu: -0.166944318  nElectrons: 3.000000  magneticMoment: [ Abs: 0.28352  Tot: -0.20000 ]
SCF: Cycle: 11   F: -7.047082510510453   dF: -2.167e-03   |Residual|: 3.595e-02   |deigs|: 1.094e-01  t[s]:     46.64
	FillingsUpdate:  mu: -0.162489062  nElectrons: 3.000000  magneticMoment: [ Abs: 0.27580  Tot: -0.20000 ]
SCF: Cycle: 12   F: -7.047204756745389   dF: -1.222e-04   |Residual|: 1.182e-02   |deigs|: 1.221e-02  t[s]:     49.91
	FillingsUpdate:  mu: -0.142924302  nElectrons: 3.000000  magneticMoment: [ Abs: 0.27665  Tot: -0.20000 ]
SCF: Cycle: 13   F: -7.047341077439472   dF: -1.363e-04   |Residual|: 7.958e-03   |deigs|: 1.885e-02  t[s]:     53.20
	FillingsUpdate:  mu: -0.130953089  nElectrons: 3.000000  magneticMoment: [ Abs: 0.27232  Tot: -0.20000 ]
SCF: Cycle: 14   F: -7.047306297067965   dF: +3.478e-05   |Residual|: 6.564e-03   |deigs|: 1.371e-02  t[s]:     56.53
	FillingsUpdate:  mu: -0.119733537  nElectrons: 3.000000  magneticMoment: [ Abs: 0.26051  Tot: -0.20000 ]
SCF: Cycle: 15   F: -7.047327146901554   dF: -2.085e-05   |Residual|: 5.426e-03   |deigs|: 1.155e-02  t[s]:     59.80
	FillingsUpdate:  mu: -0.113671983  nElectrons: 3.000000  magneticMoment: [ Abs: 0.24373  Tot: -0.20000 ]
SCF: Cycle: 16   F: -7.047434762451263   dF: -1.076e-04   |Residual|: 4.173e-03   |deigs|: 6.319e-03  t[s]:     63.12
	FillingsUpdate:  mu: -0.109828897  nElectrons: 3.000000  magneticMoment: [ Abs: 0.23015  Tot: -0.20000 ]
SCF: Cycle: 17   F: -7.047569227682854   dF: -1.345e-04   |Residual|: 2.869e-03   |deigs|: 3.948e-03  t[s]:     66.44
	FillingsUpdate:  mu: -0.107496620  nElectrons: 3.000000  magneticMoment: [ Abs: 0.22267  Tot: -0.20000 ]
SCF: Cycle: 18   F: -7.047645320144445   dF: -7.609e-05   |Residual|: 1.767e-03   |deigs|: 2.761e-03  t[s]:     69.83
	FillingsUpdate:  mu: -0.106260364  nElectrons: 3.000000  magneticMoment: [ Abs: 0.21582  Tot: -0.20000 ]
SCF: Cycle: 19   F: -7.047684670626006   dF: -3.935e-05   |Residual|: 1.142e-03   |deigs|: 1.589e-03  t[s]:     73.14
	FillingsUpdate:  mu: -0.106196530  nElectrons: 3.000000  magneticMoment: [ Abs: 0.21083  Tot: -0.20000 ]
SCF: Cycle: 20   F: -7.047699192476945   dF: -1.452e-05   |Residual|: 7.418e-04   |deigs|: 2.692e-04  t[s]:     76.43
	FillingsUpdate:  mu: -0.105786207  nElectrons: 3.000000  magneticMoment: [ Abs: 0.20911  Tot: -0.20000 ]
SCF: Cycle: 21   F: -7.047709266601430   dF: -1.007e-05   |Residual|: 3.936e-04   |deigs|: 4.017e-04  t[s]:     79.67
	FillingsUpdate:  mu: -0.105892570  nElectrons: 3.000000  magneticMoment: [ Abs: 0.20745  Tot: -0.20000 ]
SCF: Cycle: 22   F: -7.047711969612534   dF: -2.703e-06   |Residual|: 2.391e-04   |deigs|: 2.246e-04  t[s]:     82.86
	FillingsUpdate:  mu: -0.105964186  nElectrons: 3.000000  magneticMoment: [ Abs: 0.20566  Tot: -0.20000 ]
SCF: Cycle: 23   F: -7.047712614391063   dF: -6.448e-07   |Residual|: 1.588e-04   |deigs|: 1.776e-04  t[s]:     86.15
	FillingsUpdate:  mu: -0.106138839  nElectrons: 3.000000  magneticMoment: [ Abs: 0.20409  Tot: -0.20000 ]
SCF: Cycle: 24   F: -7.047713041686371   dF: -4.273e-07   |Residual|: 1.309e-04   |deigs|: 2.234e-04  t[s]:     89.41
	FillingsUpdate:  mu: -0.106339105  nElectrons: 3.000000  magneticMoment: [ Abs: 0.20297  Tot: -0.20000 ]
SCF: Cycle: 25   F: -7.047712832170245   dF: +2.095e-07   |Residual|: 1.168e-04   |deigs|: 2.255e-04  t[s]:     92.74
	FillingsUpdate:  mu: -0.106577756  nElectrons: 3.000000  magneticMoment: [ Abs: 0.20160  Tot: -0.20000 ]
SCF: Cycle: 26   F: -7.047712982456400   dF: -1.503e-07   |Residual|: 8.584e-05   |deigs|: 2.509e-04  t[s]:     96.10
	FillingsUpdate:  mu: -0.106642804  nElectrons: 3.000000  magneticMoment: [ Abs: 0.20083  Tot: -0.20000 ]
SCF: Cycle: 27   F: -7.047713159889338   dF: -1.774e-07   |Residual|: 5.470e-05   |deigs|: 1.282e-04  t[s]:     99.37
	FillingsUpdate:  mu: -0.106655700  nElectrons: 3.000000  magneticMoment: [ Abs: 0.20058  Tot: -0.20000 ]
SCF: Cycle: 28   F: -7.047713246029221   dF: -8.614e-08   |Residual|: 3.770e-05   |deigs|: 9.750e-05  t[s]:    102.69
	FillingsUpdate:  mu: -0.106659833  nElectrons: 3.000000  magneticMoment: [ Abs: 0.20032  Tot: -0.20000 ]
SCF: Cycle: 29   F: -7.047713287913516   dF: -4.188e-08   |Residual|: 2.737e-05   |deigs|: 8.039e-05  t[s]:    106.01
	FillingsUpdate:  mu: -0.106669600  nElectrons: 3.000000  magneticMoment: [ Abs: 0.20017  Tot: -0.20000 ]
SCF: Cycle: 30   F: -7.047713307550208   dF: -1.964e-08   |Residual|: 2.073e-05   |deigs|: 6.590e-05  t[s]:    109.29
	FillingsUpdate:  mu: -0.106683162  nElectrons: 3.000000  magneticMoment: [ Abs: 0.20010  Tot: -0.20000 ]
SCF: Cycle: 31   F: -7.047713313680934   dF: -6.131e-09   |Residual|: 1.574e-05   |deigs|: 5.220e-05  t[s]:    112.54
	FillingsUpdate:  mu: -0.106692760  nElectrons: 3.000000  magneticMoment: [ Abs: 0.20007  Tot: -0.20000 ]
SCF: Cycle: 32   F: -7.047713321789082   dF: -8.108e-09   |Residual|: 1.129e-05   |deigs|: 3.895e-05  t[s]:    115.83
SCF: Converged (|Delta E|<1.000000e-08 for 2 iters).


# Ionic positions in lattice coordinates:
ion Li   0.000000000000000   0.000000000000000   0.000000000000000 0

# Forces in Lattice coordinates:
force Li   0.000000000000000  -0.000000000000000   0.000000000000000 0

# Energy components:
   Eewald =       -1.3368908222468645
       EH =        2.1961701318628362
     Eloc =       -7.5347251897949423
      Enl =       -3.6007302671684966
   Epulay =       -0.0000013080581827
      Exc =       -1.5310348950013584
       KE =        4.7594995400781537
-------------------------------------
     Etot =       -7.0477128103288544
       TS =        0.0000005114602277
-------------------------------------
        F =       -7.0477133217890824

IonicMinimize: Iter:   0  F: -7.047713321789082  |grad|_K:  0.000e+00  t[s]:    115.98
IonicMinimize: Converged (|grad|_K<1.000000e-04).

#--- Lowdin population analysis ---
# oxidation-state Li +2.105
# magnetic-moments Li -0.184

End date and time: Sat Feb  5 22:56:20 2022  (Duration: 0-0:01:56.00)
Done!
