
*************** JDFTx 1.6.0 (git hash 42ebbcc2) ***************

Start date and time: Sat Feb  5 22:47:00 2022
Executable jdftx with command-line: -i Alkali.in
Running on hosts (process indices):  d-6-12-3 (0-18)
Divided in process groups (process indices):  0 (0)  1 (1)  2 (2)  3 (3)  4 (4)  5 (5)  6 (6)  7 (7)  8 (8)  9 (9)  10 (10)  11 (11)  12 (12)  13 (13)  14 (14)  15 (15)  16 (16)  17 (17)  18 (18)
Resource initialization completed at t[s]:      0.00
Run totals: 19 processes, 48 threads, 0 GPUs


Input parsed successfully to the following command list (including defaults):

basis kpoint-dependent
coords-type Lattice
core-overlap-check vector
coulomb-interaction Slab 001
davidson-band-ratio 1.1
dump End None
dump-name $INPUT.$VAR
elec-cutoff 20
elec-eigen-algo Davidson
elec-ex-corr gga-PBE
elec-initial-magnetization -0.700000 yes
elec-smearing Fermi 1e-05
electronic-minimize  \
	dirUpdateScheme      FletcherReeves \
	linminMethod         DirUpdateRecommended \
	nIterations          100 \
	history              15 \
	knormThreshold       0 \
	energyDiffThreshold  1e-08 \
	nEnergyDiff          2 \
	alphaTstart          1 \
	alphaTmin            1e-10 \
	updateTestStepSize   yes \
	alphaTreduceFactor   0.1 \
	alphaTincreaseFactor 3 \
	nAlphaAdjustMax      3 \
	wolfeEnergy          0.0001 \
	wolfeGradient        0.9 \
	fdTest               no
electronic-scf  \
	nIterations	10000 \
	energyDiffThreshold	1e-08 \
	residualThreshold	1e-07 \
	mixFraction	0.5 \
	qMetric	0.8 \
	history	10 \
	nEigSteps	2 \
	eigDiffThreshold	1e-08 \
	mixedVariable	Density \
	qKerker	0.8 \
	qKappa	-1 \
	verbose	no \
	mixFractionMag	1.5
exchange-regularization WignerSeitzTruncated
fluid None
fluid-ex-corr (null) lda-PZ
fluid-gummel-loop 10 1.000000e-05
fluid-minimize  \
	dirUpdateScheme      PolakRibiere \
	linminMethod         DirUpdateRecommended \
	nIterations          100 \
	history              15 \
	knormThreshold       0 \
	energyDiffThreshold  0 \
	nEnergyDiff          2 \
	alphaTstart          1 \
	alphaTmin            1e-10 \
	updateTestStepSize   yes \
	alphaTreduceFactor   0.1 \
	alphaTincreaseFactor 3 \
	nAlphaAdjustMax      3 \
	wolfeEnergy          0.0001 \
	wolfeGradient        0.9 \
	fdTest               no
fluid-solvent H2O 55.338 ScalarEOS \
	epsBulk 78.4 \
	pMol 0.92466 \
	epsInf 1.77 \
	Pvap 1.06736e-10 \
	sigmaBulk 4.62e-05 \
	Rvdw 2.61727 \
	Res 1.42 \
	tauNuc 343133 \
	poleEl 15 7 1
forces-output-coords Positions
ion Li   0.000000000000000   0.000000000000000   0.000000000000000 0
ion-species SG15/$ID_ONCV_PBE.upf
ion-width 0
ionic-minimize  \
	dirUpdateScheme      L-BFGS \
	linminMethod         DirUpdateRecommended \
	nIterations          0 \
	history              15 \
	knormThreshold       0.0001 \
	energyDiffThreshold  1e-06 \
	nEnergyDiff          2 \
	alphaTstart          1 \
	alphaTmin            1e-10 \
	updateTestStepSize   yes \
	alphaTreduceFactor   0.1 \
	alphaTincreaseFactor 3 \
	nAlphaAdjustMax      3 \
	wolfeEnergy          0.0001 \
	wolfeGradient        0.9 \
	fdTest               no
kpoint   0.000000000000   0.000000000000   0.000000000000  1.00000000000000
kpoint-folding 12 12 1 
latt-move-scale 1 1 1
latt-scale 3 3 1 
lattice  \
	   4.727486978767153   -2.363743489383575    0.000000000000000  \
	  -0.000000000000000    4.094123819672498    0.000000000000000  \
	   0.000000000000000    0.000000000000000   40.000000000000000 
lattice-minimize  \
	dirUpdateScheme      L-BFGS \
	linminMethod         DirUpdateRecommended \
	nIterations          0 \
	history              15 \
	knormThreshold       0 \
	energyDiffThreshold  1e-06 \
	nEnergyDiff          2 \
	alphaTstart          1 \
	alphaTmin            1e-10 \
	updateTestStepSize   yes \
	alphaTreduceFactor   0.1 \
	alphaTincreaseFactor 3 \
	nAlphaAdjustMax      3 \
	wolfeEnergy          0.0001 \
	wolfeGradient        0.9 \
	fdTest               no
lcao-params -1 1e-06 1e-05
pcm-variant GLSSA13
spintype z-spin
subspace-rotation-factor 1 yes
symmetries automatic
symmetry-threshold 0.0001



---------- Setting up symmetries ----------

Found 24 point-group symmetries of the bravais lattice
Found 24 space-group symmetries with basis
Applied RMS atom displacement 0 bohrs to make symmetries exact.

---------- Initializing the Grid ----------
R = 
[      14.1825     -7.09123            0  ]
[            0      12.2824            0  ]
[            0            0           40  ]
unit cell volume = 6967.77
G =
[   0.443025   0.255781         -0  ]
[          0   0.511561         -0  ]
[         -0         -0    0.15708  ]
Minimum fftbox size, Smin = [  60  60  164  ]
Chosen fftbox size, S = [  60  60  168  ]

---------- Exchange Correlation functional ----------
Initalized PBE GGA exchange.
Initalized PBE GGA correlation.

---------- Setting up pseudopotentials ----------
Width of ionic core gaussian charges (only for fluid interactions / plotting) set to 0

Reading pseudopotential file '/home/gridsan/aligho/DFT/build-Nov24/pseudopotentials/SG15/Li_ONCV_PBE.upf':
  'Li' pseudopotential, 'PBE' functional
  Generated using ONCVPSP code by D. R. Hamann
  Author: Martin Schlipf and Francois Gygi  Date: 150915.
  3 valence electrons, 2 orbitals, 4 projectors, 1328 radial grid points, with lMax = 1
  Transforming local potential to a uniform radial grid of dG=0.02 with 1489 points.
  Transforming nonlocal projectors to a uniform radial grid of dG=0.02 with 432 points.
    1S    l: 0   occupation:  2.0   eigenvalue: -1.905623
    2S    l: 0   occupation:  1.0   eigenvalue: -0.105624
  Transforming atomic orbitals to a uniform radial grid of dG=0.02 with 432 points.
  WARNING: large normalization error in atomic orbital 1s (integral: 0.000000).
  Core radius for overlap checks: 1.63 bohrs.
  Reading pulay file /home/gridsan/aligho/DFT/build-Nov24/pseudopotentials/SG15/Li_ONCV_PBE.pulay ... using dE_dnG = -1.230239e-02 computed for Ecut = 20.

Initialized 1 species with 1 total atoms.

Folded 1 k-points by 12x12x1 to 144 k-points.

---------- Setting up k-points, bands, fillings ----------
Reduced to 19 k-points under symmetry. 
Computing the number of bands and number of electrons
Calculating initial fillings.
nElectrons:   3.000000   nBands: 3   nStates: 38

----- Setting up reduced wavefunction bases (one per k-point) -----
average nbasis = 29766.104 , ideal nbasis = 29766.845

---------- Setting up coulomb interaction ----------
Initialized slab truncation along lattice direction 001

---------- Setting up 2D ewald sum ----------
Optimum gaussian width for ewald sums = 7.873530 bohr.
Real space sums over 289 unit cells with max indices [  8  8  0  ]
Reciprocal space sums over 81 terms with max indices [  4  4  0  ]

---------- Allocating electronic variables ----------
Initializing wave functions:  linear combination of atomic orbitals
Note: number of bands (3) exceeds available atomic orbitals (2)
Li pseudo-atom occupations:   s ( 2 1 )
	FillingsUpdate:  mu: +0.349776724  nElectrons: 3.000000  magneticMoment: [ Abs: 0.70000  Tot: -0.70000 ]
LCAOMinimize: Iter:   0  F: -1.2821019341721773  |grad|_K:  4.538e-05  alpha:  1.000e+00
	FillingsUpdate:  mu: +0.349775030  nElectrons: 3.000000  magneticMoment: [ Abs: 0.70000  Tot: -0.70000 ]
LCAOMinimize: Iter:   1  F: -1.2821023060263117  |grad|_K:  3.821e-06  alpha:  1.059e+00  linmin:  1.306e-02  cgtest:  8.823e-04  t[s]:      7.56
	FillingsUpdate:  mu: +0.349776048  nElectrons: 3.000000  magneticMoment: [ Abs: 0.70000  Tot: -0.70000 ]
LCAOMinimize: Iter:   2  F: -1.2821023069278827  |grad|_K:  5.843e-07  alpha:  6.614e-01  linmin: -1.193e-02  cgtest:  3.270e+00  t[s]:      9.54
LCAOMinimize: Encountered beta<0, resetting CG.
LCAOMinimize: Converged (|Delta F|<1.000000e-06 for 2 iters).


---- Citations for features of the code used in this run ----

   Software package:
      R. Sundararaman, K. Letchworth-Weaver, K.A. Schwarz, D. Gunceler, Y. Ozhabes and T.A. Arias, 'JDFTx: software for joint density-functional theory', SoftwareX 6, 278 (2017)

   gga-PBE exchange-correlation functional:
      J.P. Perdew, K. Burke and M. Ernzerhof, Phys. Rev. Lett. 77, 3865 (1996)

   Pseudopotentials:
      M Schlipf and F Gygi, Comput. Phys. Commun. 196, 36 (2015)

   Truncated Coulomb potentials:
      R. Sundararaman and T.A. Arias, Phys. Rev. B 87, 165122 (2013)

This list may not be complete. Please suggest additional citations or
report any other bugs at https://github.com/shankar1729/jdftx/issues

Initialization completed successfully at t[s]:      9.64


-------- Electronic minimization -----------
Will mix electronic density at each iteration.
	FillingsUpdate:  mu: +0.349776048  nElectrons: 3.000000  magneticMoment: [ Abs: 0.70000  Tot: -0.70000 ]
	FillingsUpdate:  mu: -0.696757460  nElectrons: 3.000000  magneticMoment: [ Abs: 0.70000  Tot: -0.70000 ]
SCF: Cycle:  0   F: -6.883211131439108   dF: -5.601e+00   |Residual|: 1.224e+00   |deigs|: 4.156e+00  t[s]:     13.00
	FillingsUpdate:  mu: -0.569908973  nElectrons: 3.000000  magneticMoment: [ Abs: 1.10942  Tot: -0.70000 ]
SCF: Cycle:  1   F: -6.918294157933429   dF: -3.508e-02   |Residual|: 7.645e-01   |deigs|: 2.734e-01  t[s]:     15.68
	FillingsUpdate:  mu: -0.372389699  nElectrons: 3.000000  magneticMoment: [ Abs: 1.52760  Tot: -0.70000 ]
SCF: Cycle:  2   F: -7.038628615872589   dF: -1.203e-01   |Residual|: 3.309e-01   |deigs|: 7.078e-01  t[s]:     18.51
	FillingsUpdate:  mu: -0.380028066  nElectrons: 3.000000  magneticMoment: [ Abs: 1.36285  Tot: -0.70000 ]
SCF: Cycle:  3   F: -7.040225006959317   dF: -1.596e-03   |Residual|: 1.701e-01   |deigs|: 8.697e-02  t[s]:     21.28
	FillingsUpdate:  mu: -0.329393439  nElectrons: 3.000000  magneticMoment: [ Abs: 1.13507  Tot: -0.70000 ]
SCF: Cycle:  4   F: -7.044041180572913   dF: -3.816e-03   |Residual|: 3.907e-02   |deigs|: 4.285e-02  t[s]:     24.20
	FillingsUpdate:  mu: -0.309881916  nElectrons: 3.000000  magneticMoment: [ Abs: 1.05400  Tot: -0.70000 ]
SCF: Cycle:  5   F: -7.044271820335600   dF: -2.306e-04   |Residual|: 7.476e-02   |deigs|: 1.850e-02  t[s]:     27.15
	FillingsUpdate:  mu: -0.277568976  nElectrons: 3.000000  magneticMoment: [ Abs: 0.86483  Tot: -0.70000 ]
SCF: Cycle:  6   F: -7.046128483364489   dF: -1.857e-03   |Residual|: 3.609e-02   |deigs|: 6.175e-02  t[s]:     30.24
	FillingsUpdate:  mu: -0.260693576  nElectrons: 3.000000  magneticMoment: [ Abs: 0.83440  Tot: -0.70000 ]
SCF: Cycle:  7   F: -7.047850361077631   dF: -1.722e-03   |Residual|: 4.214e-02   |deigs|: 4.072e-02  t[s]:     33.33
	FillingsUpdate:  mu: -0.256602258  nElectrons: 3.000000  magneticMoment: [ Abs: 0.80048  Tot: -0.70000 ]
SCF: Cycle:  8   F: -7.048251248887053   dF: -4.009e-04   |Residual|: 4.853e-02   |deigs|: 4.177e-03  t[s]:     36.43
	FillingsUpdate:  mu: -0.233633202  nElectrons: 3.000000  magneticMoment: [ Abs: 0.76823  Tot: -0.70000 ]
SCF: Cycle:  9   F: -7.049339312091973   dF: -1.088e-03   |Residual|: 1.687e-02   |deigs|: 1.980e-02  t[s]:     39.69
	FillingsUpdate:  mu: -0.206096419  nElectrons: 3.000000  magneticMoment: [ Abs: 0.83479  Tot: -0.70000 ]
SCF: Cycle: 10   F: -7.049723026089388   dF: -3.837e-04   |Residual|: 6.317e-02   |deigs|: 2.266e-02  t[s]:     43.04
	FillingsUpdate:  mu: -0.189377764  nElectrons: 3.000000  magneticMoment: [ Abs: 0.87711  Tot: -0.70000 ]
SCF: Cycle: 11   F: -7.050010025786807   dF: -2.870e-04   |Residual|: 1.330e-02   |deigs|: 2.595e-02  t[s]:     46.28
	FillingsUpdate:  mu: -0.173889383  nElectrons: 3.000000  magneticMoment: [ Abs: 0.89035  Tot: -0.70000 ]
SCF: Cycle: 12   F: -7.050193771265910   dF: -1.837e-04   |Residual|: 1.020e-02   |deigs|: 1.680e-02  t[s]:     49.53
	FillingsUpdate:  mu: -0.148623035  nElectrons: 3.000000  magneticMoment: [ Abs: 0.88252  Tot: -0.70000 ]
SCF: Cycle: 13   F: -7.050036046050451   dF: +1.577e-04   |Residual|: 7.938e-03   |deigs|: 2.665e-02  t[s]:     52.83
	FillingsUpdate:  mu: -0.136680754  nElectrons: 3.000000  magneticMoment: [ Abs: 0.85057  Tot: -0.70000 ]
SCF: Cycle: 14   F: -7.050051635886839   dF: -1.559e-05   |Residual|: 7.536e-03   |deigs|: 1.245e-02  t[s]:     56.10
	FillingsUpdate:  mu: -0.123264953  nElectrons: 3.000000  magneticMoment: [ Abs: 0.82193  Tot: -0.70000 ]
SCF: Cycle: 15   F: -7.050182925435614   dF: -1.313e-04   |Residual|: 6.561e-03   |deigs|: 1.406e-02  t[s]:     59.36
	FillingsUpdate:  mu: -0.113412917  nElectrons: 3.000000  magneticMoment: [ Abs: 0.78466  Tot: -0.70000 ]
SCF: Cycle: 16   F: -7.050426651085219   dF: -2.437e-04   |Residual|: 4.475e-03   |deigs|: 1.049e-02  t[s]:     62.63
	FillingsUpdate:  mu: -0.105268018  nElectrons: 3.000000  magneticMoment: [ Abs: 0.74940  Tot: -0.70000 ]
SCF: Cycle: 17   F: -7.050665442645084   dF: -2.388e-04   |Residual|: 3.013e-03   |deigs|: 9.638e-03  t[s]:     65.91
	FillingsUpdate:  mu: -0.104026308  nElectrons: 3.000000  magneticMoment: [ Abs: 0.73499  Tot: -0.70000 ]
SCF: Cycle: 18   F: -7.050730590577863   dF: -6.515e-05   |Residual|: 2.093e-03   |deigs|: 1.640e-03  t[s]:     69.18
	FillingsUpdate:  mu: -0.103326261  nElectrons: 3.000000  magneticMoment: [ Abs: 0.72571  Tot: -0.70000 ]
SCF: Cycle: 19   F: -7.050759890955544   dF: -2.930e-05   |Residual|: 1.292e-03   |deigs|: 9.779e-04  t[s]:     72.43
	FillingsUpdate:  mu: -0.102984300  nElectrons: 3.000000  magneticMoment: [ Abs: 0.72142  Tot: -0.70000 ]
SCF: Cycle: 20   F: -7.050776293306669   dF: -1.640e-05   |Residual|: 8.633e-04   |deigs|: 5.503e-04  t[s]:     75.68
	FillingsUpdate:  mu: -0.102856870  nElectrons: 3.000000  magneticMoment: [ Abs: 0.71706  Tot: -0.70000 ]
SCF: Cycle: 21   F: -7.050786920760798   dF: -1.063e-05   |Residual|: 4.906e-04   |deigs|: 2.297e-04  t[s]:     78.92
	FillingsUpdate:  mu: -0.102806192  nElectrons: 3.000000  magneticMoment: [ Abs: 0.71406  Tot: -0.70000 ]
SCF: Cycle: 22   F: -7.050788585313612   dF: -1.665e-06   |Residual|: 3.686e-04   |deigs|: 2.102e-04  t[s]:     82.31
	FillingsUpdate:  mu: -0.102893401  nElectrons: 3.000000  magneticMoment: [ Abs: 0.70976  Tot: -0.70000 ]
SCF: Cycle: 23   F: -7.050789211902473   dF: -6.266e-07   |Residual|: 3.014e-04   |deigs|: 2.527e-04  t[s]:     85.56
	FillingsUpdate:  mu: -0.103097658  nElectrons: 3.000000  magneticMoment: [ Abs: 0.70553  Tot: -0.70000 ]
SCF: Cycle: 24   F: -7.050789255508247   dF: -4.361e-08   |Residual|: 2.498e-04   |deigs|: 2.464e-04  t[s]:     88.83
	FillingsUpdate:  mu: -0.103343219  nElectrons: 3.000000  magneticMoment: [ Abs: 0.70289  Tot: -0.70000 ]
SCF: Cycle: 25   F: -7.050789386444833   dF: -1.309e-07   |Residual|: 1.898e-04   |deigs|: 3.323e-04  t[s]:     92.10
	FillingsUpdate:  mu: -0.103719581  nElectrons: 3.000000  magneticMoment: [ Abs: 0.70064  Tot: -0.70000 ]
SCF: Cycle: 26   F: -7.050790181294603   dF: -7.948e-07   |Residual|: 1.144e-04   |deigs|: 4.404e-04  t[s]:     95.36
	FillingsUpdate:  mu: -0.103836329  nElectrons: 3.000000  magneticMoment: [ Abs: 0.70039  Tot: -0.70000 ]
SCF: Cycle: 27   F: -7.050790601227480   dF: -4.199e-07   |Residual|: 7.154e-05   |deigs|: 1.784e-04  t[s]:     98.61
	FillingsUpdate:  mu: -0.103848395  nElectrons: 3.000000  magneticMoment: [ Abs: 0.70016  Tot: -0.70000 ]
SCF: Cycle: 28   F: -7.050790797617940   dF: -1.964e-07   |Residual|: 4.487e-05   |deigs|: 1.008e-04  t[s]:    101.81
	FillingsUpdate:  mu: -0.103848570  nElectrons: 3.000000  magneticMoment: [ Abs: 0.70014  Tot: -0.70000 ]
SCF: Cycle: 29   F: -7.050790875157379   dF: -7.754e-08   |Residual|: 2.849e-05   |deigs|: 8.006e-05  t[s]:    105.10
	FillingsUpdate:  mu: -0.103822496  nElectrons: 3.000000  magneticMoment: [ Abs: 0.70008  Tot: -0.70000 ]
SCF: Cycle: 30   F: -7.050790896924166   dF: -2.177e-08   |Residual|: 1.914e-05   |deigs|: 6.668e-05  t[s]:    108.31
	FillingsUpdate:  mu: -0.103799733  nElectrons: 3.000000  magneticMoment: [ Abs: 0.70006  Tot: -0.70000 ]
SCF: Cycle: 31   F: -7.050790905571477   dF: -8.647e-09   |Residual|: 1.362e-05   |deigs|: 5.238e-05  t[s]:    111.57
	FillingsUpdate:  mu: -0.103787814  nElectrons: 3.000000  magneticMoment: [ Abs: 0.70002  Tot: -0.70000 ]
SCF: Cycle: 32   F: -7.050790906968284   dF: -1.397e-09   |Residual|: 1.131e-05   |deigs|: 3.393e-05  t[s]:    114.86
SCF: Converged (|Delta E|<1.000000e-08 for 2 iters).


# Ionic positions in lattice coordinates:
ion Li   0.000000000000000   0.000000000000000   0.000000000000000 0

# Forces in Lattice coordinates:
force Li   0.000000000000000   0.000000000000000   0.000000000000000 0

# Energy components:
   Eewald =       -1.3368908222468645
       EH =        2.2153833081645318
     Eloc =       -7.5592602325635836
      Enl =       -3.6037110859295551
   Epulay =       -0.0000013080581827
      Exc =       -1.5399361710246693
       KE =        4.7736260727424398
-------------------------------------
     Etot =       -7.0507902389158836
       TS =        0.0000006680523997
-------------------------------------
        F =       -7.0507909069682837

IonicMinimize: Iter:   0  F: -7.050790906968284  |grad|_K:  0.000e+00  t[s]:    115.00
IonicMinimize: Converged (|grad|_K<1.000000e-04).

#--- Lowdin population analysis ---
# oxidation-state Li +2.081
# magnetic-moments Li -0.645

End date and time: Sat Feb  5 22:48:55 2022  (Duration: 0-0:01:55.02)
Done!
