
*************** JDFTx 1.6.0 (git hash 42ebbcc2) ***************

Start date and time: Sat Feb  5 22:53:40 2022
Executable jdftx with command-line: -i Alkali.in
Running on hosts (process indices):  d-6-12-3 (0-18)
Divided in process groups (process indices):  0 (0)  1 (1)  2 (2)  3 (3)  4 (4)  5 (5)  6 (6)  7 (7)  8 (8)  9 (9)  10 (10)  11 (11)  12 (12)  13 (13)  14 (14)  15 (15)  16 (16)  17 (17)  18 (18)
Resource initialization completed at t[s]:      0.00
Run totals: 19 processes, 48 threads, 0 GPUs


Input parsed successfully to the following command list (including defaults):

basis kpoint-dependent
coords-type Lattice
core-overlap-check vector
coulomb-interaction Slab 001
davidson-band-ratio 1.1
dump End None
dump-name $INPUT.$VAR
elec-cutoff 20
elec-eigen-algo Davidson
elec-ex-corr gga-PBE
elec-initial-magnetization -0.400000 yes
elec-smearing Fermi 1e-05
electronic-minimize  \
	dirUpdateScheme      FletcherReeves \
	linminMethod         DirUpdateRecommended \
	nIterations          100 \
	history              15 \
	knormThreshold       0 \
	energyDiffThreshold  1e-08 \
	nEnergyDiff          2 \
	alphaTstart          1 \
	alphaTmin            1e-10 \
	updateTestStepSize   yes \
	alphaTreduceFactor   0.1 \
	alphaTincreaseFactor 3 \
	nAlphaAdjustMax      3 \
	wolfeEnergy          0.0001 \
	wolfeGradient        0.9 \
	fdTest               no
electronic-scf  \
	nIterations	10000 \
	energyDiffThreshold	1e-08 \
	residualThreshold	1e-07 \
	mixFraction	0.5 \
	qMetric	0.8 \
	history	10 \
	nEigSteps	2 \
	eigDiffThreshold	1e-08 \
	mixedVariable	Density \
	qKerker	0.8 \
	qKappa	-1 \
	verbose	no \
	mixFractionMag	1.5
exchange-regularization WignerSeitzTruncated
fluid None
fluid-ex-corr (null) lda-PZ
fluid-gummel-loop 10 1.000000e-05
fluid-minimize  \
	dirUpdateScheme      PolakRibiere \
	linminMethod         DirUpdateRecommended \
	nIterations          100 \
	history              15 \
	knormThreshold       0 \
	energyDiffThreshold  0 \
	nEnergyDiff          2 \
	alphaTstart          1 \
	alphaTmin            1e-10 \
	updateTestStepSize   yes \
	alphaTreduceFactor   0.1 \
	alphaTincreaseFactor 3 \
	nAlphaAdjustMax      3 \
	wolfeEnergy          0.0001 \
	wolfeGradient        0.9 \
	fdTest               no
fluid-solvent H2O 55.338 ScalarEOS \
	epsBulk 78.4 \
	pMol 0.92466 \
	epsInf 1.77 \
	Pvap 1.06736e-10 \
	sigmaBulk 4.62e-05 \
	Rvdw 2.61727 \
	Res 1.42 \
	tauNuc 343133 \
	poleEl 15 7 1
forces-output-coords Positions
ion Li   0.000000000000000   0.000000000000000   0.000000000000000 0
ion-species SG15/$ID_ONCV_PBE.upf
ion-width 0
ionic-minimize  \
	dirUpdateScheme      L-BFGS \
	linminMethod         DirUpdateRecommended \
	nIterations          0 \
	history              15 \
	knormThreshold       0.0001 \
	energyDiffThreshold  1e-06 \
	nEnergyDiff          2 \
	alphaTstart          1 \
	alphaTmin            1e-10 \
	updateTestStepSize   yes \
	alphaTreduceFactor   0.1 \
	alphaTincreaseFactor 3 \
	nAlphaAdjustMax      3 \
	wolfeEnergy          0.0001 \
	wolfeGradient        0.9 \
	fdTest               no
kpoint   0.000000000000   0.000000000000   0.000000000000  1.00000000000000
kpoint-folding 12 12 1 
latt-move-scale 1 1 1
latt-scale 3 3 1 
lattice  \
	   4.727486978767153   -2.363743489383575    0.000000000000000  \
	  -0.000000000000000    4.094123819672498    0.000000000000000  \
	   0.000000000000000    0.000000000000000   40.000000000000000 
lattice-minimize  \
	dirUpdateScheme      L-BFGS \
	linminMethod         DirUpdateRecommended \
	nIterations          0 \
	history              15 \
	knormThreshold       0 \
	energyDiffThreshold  1e-06 \
	nEnergyDiff          2 \
	alphaTstart          1 \
	alphaTmin            1e-10 \
	updateTestStepSize   yes \
	alphaTreduceFactor   0.1 \
	alphaTincreaseFactor 3 \
	nAlphaAdjustMax      3 \
	wolfeEnergy          0.0001 \
	wolfeGradient        0.9 \
	fdTest               no
lcao-params -1 1e-06 1e-05
pcm-variant GLSSA13
spintype z-spin
subspace-rotation-factor 1 yes
symmetries automatic
symmetry-threshold 0.0001



---------- Setting up symmetries ----------

Found 24 point-group symmetries of the bravais lattice
Found 24 space-group symmetries with basis
Applied RMS atom displacement 0 bohrs to make symmetries exact.

---------- Initializing the Grid ----------
R = 
[      14.1825     -7.09123            0  ]
[            0      12.2824            0  ]
[            0            0           40  ]
unit cell volume = 6967.77
G =
[   0.443025   0.255781         -0  ]
[          0   0.511561         -0  ]
[         -0         -0    0.15708  ]
Minimum fftbox size, Smin = [  60  60  164  ]
Chosen fftbox size, S = [  60  60  168  ]

---------- Exchange Correlation functional ----------
Initalized PBE GGA exchange.
Initalized PBE GGA correlation.

---------- Setting up pseudopotentials ----------
Width of ionic core gaussian charges (only for fluid interactions / plotting) set to 0

Reading pseudopotential file '/home/gridsan/aligho/DFT/build-Nov24/pseudopotentials/SG15/Li_ONCV_PBE.upf':
  'Li' pseudopotential, 'PBE' functional
  Generated using ONCVPSP code by D. R. Hamann
  Author: Martin Schlipf and Francois Gygi  Date: 150915.
  3 valence electrons, 2 orbitals, 4 projectors, 1328 radial grid points, with lMax = 1
  Transforming local potential to a uniform radial grid of dG=0.02 with 1489 points.
  Transforming nonlocal projectors to a uniform radial grid of dG=0.02 with 432 points.
    1S    l: 0   occupation:  2.0   eigenvalue: -1.905623
    2S    l: 0   occupation:  1.0   eigenvalue: -0.105624
  Transforming atomic orbitals to a uniform radial grid of dG=0.02 with 432 points.
  WARNING: large normalization error in atomic orbital 1s (integral: 0.000000).
  Core radius for overlap checks: 1.63 bohrs.
  Reading pulay file /home/gridsan/aligho/DFT/build-Nov24/pseudopotentials/SG15/Li_ONCV_PBE.pulay ... using dE_dnG = -1.230239e-02 computed for Ecut = 20.

Initialized 1 species with 1 total atoms.

Folded 1 k-points by 12x12x1 to 144 k-points.

---------- Setting up k-points, bands, fillings ----------
Reduced to 19 k-points under symmetry. 
Computing the number of bands and number of electrons
Calculating initial fillings.
nElectrons:   3.000000   nBands: 3   nStates: 38

----- Setting up reduced wavefunction bases (one per k-point) -----
average nbasis = 29766.104 , ideal nbasis = 29766.845

---------- Setting up coulomb interaction ----------
Initialized slab truncation along lattice direction 001

---------- Setting up 2D ewald sum ----------
Optimum gaussian width for ewald sums = 7.873530 bohr.
Real space sums over 289 unit cells with max indices [  8  8  0  ]
Reciprocal space sums over 81 terms with max indices [  4  4  0  ]

---------- Allocating electronic variables ----------
Initializing wave functions:  linear combination of atomic orbitals
Note: number of bands (3) exceeds available atomic orbitals (2)
Li pseudo-atom occupations:   s ( 2 1 )
	FillingsUpdate:  mu: +0.352942020  nElectrons: 3.000000  magneticMoment: [ Abs: 0.40047  Tot: -0.40000 ]
LCAOMinimize: Iter:   0  F: -1.2871403518881561  |grad|_K:  4.862e-05  alpha:  1.000e+00
	FillingsUpdate:  mu: +0.352941484  nElectrons: 3.000000  magneticMoment: [ Abs: 0.40047  Tot: -0.40000 ]
LCAOMinimize: Iter:   1  F: -1.2871407792497507  |grad|_K:  4.852e-07  alpha:  1.057e+00  linmin: -1.174e-03  cgtest:  9.944e-03  t[s]:      7.58
	FillingsUpdate:  mu: +0.352941485  nElectrons: 3.000000  magneticMoment: [ Abs: 0.40047  Tot: -0.40000 ]
LCAOMinimize: Iter:   2  F: -1.2871407792875973  |grad|_K:  7.848e-09  alpha:  1.003e+00  linmin: -1.671e-03  cgtest:  6.175e-02  t[s]:      9.58
LCAOMinimize: Encountered beta<0, resetting CG.
LCAOMinimize: Converged (|Delta F|<1.000000e-06 for 2 iters).


---- Citations for features of the code used in this run ----

   Software package:
      R. Sundararaman, K. Letchworth-Weaver, K.A. Schwarz, D. Gunceler, Y. Ozhabes and T.A. Arias, 'JDFTx: software for joint density-functional theory', SoftwareX 6, 278 (2017)

   gga-PBE exchange-correlation functional:
      J.P. Perdew, K. Burke and M. Ernzerhof, Phys. Rev. Lett. 77, 3865 (1996)

   Pseudopotentials:
      M Schlipf and F Gygi, Comput. Phys. Commun. 196, 36 (2015)

   Truncated Coulomb potentials:
      R. Sundararaman and T.A. Arias, Phys. Rev. B 87, 165122 (2013)

This list may not be complete. Please suggest additional citations or
report any other bugs at https://github.com/shankar1729/jdftx/issues

Initialization completed successfully at t[s]:      9.67


-------- Electronic minimization -----------
Will mix electronic density at each iteration.
	FillingsUpdate:  mu: +0.352941485  nElectrons: 3.000000  magneticMoment: [ Abs: 0.40047  Tot: -0.40000 ]
	FillingsUpdate:  mu: -0.694425790  nElectrons: 3.000000  magneticMoment: [ Abs: 0.40047  Tot: -0.40000 ]
SCF: Cycle:  0   F: -6.874097583070890   dF: -5.587e+00   |Residual|: 1.224e+00   |deigs|: 4.156e+00  t[s]:     13.08
	FillingsUpdate:  mu: -0.572696227  nElectrons: 3.000000  magneticMoment: [ Abs: 0.63440  Tot: -0.40000 ]
SCF: Cycle:  1   F: -6.917282087296751   dF: -4.318e-02   |Residual|: 7.625e-01   |deigs|: 2.736e-01  t[s]:     15.80
	FillingsUpdate:  mu: -0.348057630  nElectrons: 3.000000  magneticMoment: [ Abs: 0.87149  Tot: -0.40000 ]
SCF: Cycle:  2   F: -7.038835045226307   dF: -1.216e-01   |Residual|: 3.292e-01   |deigs|: 7.107e-01  t[s]:     18.57
	FillingsUpdate:  mu: -0.362206972  nElectrons: 3.000000  magneticMoment: [ Abs: 0.81576  Tot: -0.40000 ]
SCF: Cycle:  3   F: -7.040489531987850   dF: -1.654e-03   |Residual|: 1.849e-01   |deigs|: 7.925e-02  t[s]:     21.46
	FillingsUpdate:  mu: -0.325486303  nElectrons: 3.000000  magneticMoment: [ Abs: 0.76202  Tot: -0.40000 ]
SCF: Cycle:  4   F: -7.041384965100296   dF: -8.954e-04   |Residual|: 5.100e-02   |deigs|: 2.917e-02  t[s]:     24.39
	FillingsUpdate:  mu: -0.309839669  nElectrons: 3.000000  magneticMoment: [ Abs: 0.70063  Tot: -0.40000 ]
SCF: Cycle:  5   F: -7.040781764674611   dF: +6.032e-04   |Residual|: 1.064e-01   |deigs|: 1.510e-02  t[s]:     27.33
	FillingsUpdate:  mu: -0.257344480  nElectrons: 3.000000  magneticMoment: [ Abs: 0.52466  Tot: -0.40000 ]
SCF: Cycle:  6   F: -7.045005238568884   dF: -4.223e-03   |Residual|: 3.558e-02   |deigs|: 1.035e-01  t[s]:     30.39
	FillingsUpdate:  mu: -0.241373232  nElectrons: 3.000000  magneticMoment: [ Abs: 0.49662  Tot: -0.40000 ]
SCF: Cycle:  7   F: -7.045816814211920   dF: -8.116e-04   |Residual|: 1.163e-01   |deigs|: 5.519e-02  t[s]:     33.46
	FillingsUpdate:  mu: -0.246654343  nElectrons: 3.000000  magneticMoment: [ Abs: 0.46497  Tot: -0.40000 ]
SCF: Cycle:  8   F: -7.045758000687043   dF: +5.881e-05   |Residual|: 8.541e-02   |deigs|: 1.912e-02  t[s]:     36.65
	FillingsUpdate:  mu: -0.215451497  nElectrons: 3.000000  magneticMoment: [ Abs: 0.47504  Tot: -0.40000 ]
SCF: Cycle:  9   F: -7.046849568329522   dF: -1.092e-03   |Residual|: 7.411e-02   |deigs|: 4.610e-02  t[s]:     39.95
	FillingsUpdate:  mu: -0.205860154  nElectrons: 3.000000  magneticMoment: [ Abs: 0.47947  Tot: -0.40000 ]
SCF: Cycle: 10   F: -7.047023623941728   dF: -1.741e-04   |Residual|: 6.576e-02   |deigs|: 7.440e-03  t[s]:     43.24
	FillingsUpdate:  mu: -0.176723362  nElectrons: 3.000000  magneticMoment: [ Abs: 0.52470  Tot: -0.40000 ]
SCF: Cycle: 11   F: -7.047775090510920   dF: -7.515e-04   |Residual|: 1.767e-02   |deigs|: 4.089e-02  t[s]:     46.53
	FillingsUpdate:  mu: -0.165432491  nElectrons: 3.000000  magneticMoment: [ Abs: 0.53118  Tot: -0.40000 ]
SCF: Cycle: 12   F: -7.047998980539190   dF: -2.239e-04   |Residual|: 1.104e-02   |deigs|: 9.785e-03  t[s]:     49.79
	FillingsUpdate:  mu: -0.145025443  nElectrons: 3.000000  magneticMoment: [ Abs: 0.52945  Tot: -0.40000 ]
SCF: Cycle: 13   F: -7.047983217053686   dF: +1.576e-05   |Residual|: 8.175e-03   |deigs|: 2.119e-02  t[s]:     53.13
	FillingsUpdate:  mu: -0.131733180  nElectrons: 3.000000  magneticMoment: [ Abs: 0.51481  Tot: -0.40000 ]
SCF: Cycle: 14   F: -7.047935167995828   dF: +4.805e-05   |Residual|: 7.527e-03   |deigs|: 1.492e-02  t[s]:     56.45
	FillingsUpdate:  mu: -0.119958924  nElectrons: 3.000000  magneticMoment: [ Abs: 0.48229  Tot: -0.40000 ]
SCF: Cycle: 15   F: -7.047929368682711   dF: +5.799e-06   |Residual|: 5.367e-03   |deigs|: 1.138e-02  t[s]:     59.76
	FillingsUpdate:  mu: -0.112863396  nElectrons: 3.000000  magneticMoment: [ Abs: 0.45166  Tot: -0.40000 ]
SCF: Cycle: 16   F: -7.048203709114881   dF: -2.743e-04   |Residual|: 4.185e-03   |deigs|: 7.712e-03  t[s]:     63.06
	FillingsUpdate:  mu: -0.108340345  nElectrons: 3.000000  magneticMoment: [ Abs: 0.43963  Tot: -0.40000 ]
SCF: Cycle: 17   F: -7.048324537752439   dF: -1.208e-04   |Residual|: 2.862e-03   |deigs|: 5.404e-03  t[s]:     66.32
	FillingsUpdate:  mu: -0.106820246  nElectrons: 3.000000  magneticMoment: [ Abs: 0.42575  Tot: -0.40000 ]
SCF: Cycle: 18   F: -7.048401400619207   dF: -7.686e-05   |Residual|: 1.865e-03   |deigs|: 2.113e-03  t[s]:     69.57
	FillingsUpdate:  mu: -0.105868835  nElectrons: 3.000000  magneticMoment: [ Abs: 0.41820  Tot: -0.40000 ]
SCF: Cycle: 19   F: -7.048442146975176   dF: -4.075e-05   |Residual|: 1.106e-03   |deigs|: 1.109e-03  t[s]:     72.87
	FillingsUpdate:  mu: -0.105701023  nElectrons: 3.000000  magneticMoment: [ Abs: 0.41381  Tot: -0.40000 ]
SCF: Cycle: 20   F: -7.048459842816241   dF: -1.770e-05   |Residual|: 6.417e-04   |deigs|: 3.293e-04  t[s]:     76.07
	FillingsUpdate:  mu: -0.105485195  nElectrons: 3.000000  magneticMoment: [ Abs: 0.41118  Tot: -0.40000 ]
SCF: Cycle: 21   F: -7.048466700843099   dF: -6.858e-06   |Residual|: 3.679e-04   |deigs|: 2.294e-04  t[s]:     79.37
	FillingsUpdate:  mu: -0.105513378  nElectrons: 3.000000  magneticMoment: [ Abs: 0.40931  Tot: -0.40000 ]
SCF: Cycle: 22   F: -7.048467771176116   dF: -1.070e-06   |Residual|: 2.879e-04   |deigs|: 1.156e-04  t[s]:     82.56
	FillingsUpdate:  mu: -0.105631729  nElectrons: 3.000000  magneticMoment: [ Abs: 0.40618  Tot: -0.40000 ]
SCF: Cycle: 23   F: -7.048469026947542   dF: -1.256e-06   |Residual|: 2.024e-04   |deigs|: 1.575e-04  t[s]:     85.80
	FillingsUpdate:  mu: -0.105762805  nElectrons: 3.000000  magneticMoment: [ Abs: 0.40412  Tot: -0.40000 ]
SCF: Cycle: 24   F: -7.048469364109705   dF: -3.372e-07   |Residual|: 1.583e-04   |deigs|: 1.697e-04  t[s]:     89.10
	FillingsUpdate:  mu: -0.105866020  nElectrons: 3.000000  magneticMoment: [ Abs: 0.40276  Tot: -0.40000 ]
SCF: Cycle: 25   F: -7.048469485461438   dF: -1.214e-07   |Residual|: 1.348e-04   |deigs|: 1.584e-04  t[s]:     92.32
	FillingsUpdate:  mu: -0.105946981  nElectrons: 3.000000  magneticMoment: [ Abs: 0.40160  Tot: -0.40000 ]
SCF: Cycle: 26   F: -7.048469575101733   dF: -8.964e-08   |Residual|: 9.579e-05   |deigs|: 1.529e-04  t[s]:     95.71
	FillingsUpdate:  mu: -0.105966553  nElectrons: 3.000000  magneticMoment: [ Abs: 0.40077  Tot: -0.40000 ]
SCF: Cycle: 27   F: -7.048469635809613   dF: -6.071e-08   |Residual|: 6.823e-05   |deigs|: 1.059e-04  t[s]:     98.97
	FillingsUpdate:  mu: -0.105943516  nElectrons: 3.000000  magneticMoment: [ Abs: 0.40029  Tot: -0.40000 ]
SCF: Cycle: 28   F: -7.048469673400882   dF: -3.759e-08   |Residual|: 4.844e-05   |deigs|: 7.992e-05  t[s]:    102.22
	FillingsUpdate:  mu: -0.105909800  nElectrons: 3.000000  magneticMoment: [ Abs: 0.40007  Tot: -0.40000 ]
SCF: Cycle: 29   F: -7.048469712607782   dF: -3.921e-08   |Residual|: 3.639e-05   |deigs|: 6.804e-05  t[s]:    105.48
	FillingsUpdate:  mu: -0.105863897  nElectrons: 3.000000  magneticMoment: [ Abs: 0.40013  Tot: -0.40000 ]
SCF: Cycle: 30   F: -7.048469731771840   dF: -1.916e-08   |Residual|: 2.546e-05   |deigs|: 6.313e-05  t[s]:    108.83
	FillingsUpdate:  mu: -0.105828005  nElectrons: 3.000000  magneticMoment: [ Abs: 0.40010  Tot: -0.40000 ]
SCF: Cycle: 31   F: -7.048469739837897   dF: -8.066e-09   |Residual|: 1.680e-05   |deigs|: 4.795e-05  t[s]:    112.08
	FillingsUpdate:  mu: -0.105811256  nElectrons: 3.000000  magneticMoment: [ Abs: 0.40008  Tot: -0.40000 ]
SCF: Cycle: 32   F: -7.048469742953307   dF: -3.115e-09   |Residual|: 1.257e-05   |deigs|: 3.082e-05  t[s]:    115.35
SCF: Converged (|Delta E|<1.000000e-08 for 2 iters).


# Ionic positions in lattice coordinates:
ion Li   0.000000000000000   0.000000000000000   0.000000000000000 0

# Forces in Lattice coordinates:
force Li  -0.000000000000000   0.000000000000000   0.000000000000000 0

# Energy components:
   Eewald =       -1.3368908222468645
       EH =        2.2018947935514972
     Eloc =       -7.5420663247099409
      Enl =       -3.6016201586601122
   Epulay =       -0.0000013080581827
      Exc =       -1.5334920337164561
       KE =        4.7637067836266365
-------------------------------------
     Etot =       -7.0484690702134216
       TS =        0.0000006727398856
-------------------------------------
        F =       -7.0484697429533067

IonicMinimize: Iter:   0  F: -7.048469742953307  |grad|_K:  0.000e+00  t[s]:    115.50
IonicMinimize: Converged (|grad|_K<1.000000e-04).

#--- Lowdin population analysis ---
# oxidation-state Li +2.097
# magnetic-moments Li -0.369

End date and time: Sat Feb  5 22:55:35 2022  (Duration: 0-0:01:55.52)
Done!
