
*************** JDFTx 1.6.0 (git hash 42ebbcc2) ***************

Start date and time: Sat Feb  5 23:00:15 2022
Executable jdftx with command-line: -i Alkali.in
Running on hosts (process indices):  d-16-1-2 (0-18)
Divided in process groups (process indices):  0 (0)  1 (1)  2 (2)  3 (3)  4 (4)  5 (5)  6 (6)  7 (7)  8 (8)  9 (9)  10 (10)  11 (11)  12 (12)  13 (13)  14 (14)  15 (15)  16 (16)  17 (17)  18 (18)
Resource initialization completed at t[s]:      0.00
Run totals: 19 processes, 48 threads, 0 GPUs


Input parsed successfully to the following command list (including defaults):

basis kpoint-dependent
coords-type Lattice
core-overlap-check vector
coulomb-interaction Slab 001
davidson-band-ratio 1.1
dump End None
dump-name $INPUT.$VAR
elec-cutoff 20
elec-eigen-algo Davidson
elec-ex-corr gga-PBE
elec-initial-magnetization -0.020000 yes
elec-smearing Fermi 1e-05
electronic-minimize  \
	dirUpdateScheme      FletcherReeves \
	linminMethod         DirUpdateRecommended \
	nIterations          100 \
	history              15 \
	knormThreshold       0 \
	energyDiffThreshold  1e-08 \
	nEnergyDiff          2 \
	alphaTstart          1 \
	alphaTmin            1e-10 \
	updateTestStepSize   yes \
	alphaTreduceFactor   0.1 \
	alphaTincreaseFactor 3 \
	nAlphaAdjustMax      3 \
	wolfeEnergy          0.0001 \
	wolfeGradient        0.9 \
	fdTest               no
electronic-scf  \
	nIterations	10000 \
	energyDiffThreshold	1e-08 \
	residualThreshold	1e-07 \
	mixFraction	0.5 \
	qMetric	0.8 \
	history	10 \
	nEigSteps	2 \
	eigDiffThreshold	1e-08 \
	mixedVariable	Density \
	qKerker	0.8 \
	qKappa	-1 \
	verbose	no \
	mixFractionMag	1.5
exchange-regularization WignerSeitzTruncated
fluid None
fluid-ex-corr (null) lda-PZ
fluid-gummel-loop 10 1.000000e-05
fluid-minimize  \
	dirUpdateScheme      PolakRibiere \
	linminMethod         DirUpdateRecommended \
	nIterations          100 \
	history              15 \
	knormThreshold       0 \
	energyDiffThreshold  0 \
	nEnergyDiff          2 \
	alphaTstart          1 \
	alphaTmin            1e-10 \
	updateTestStepSize   yes \
	alphaTreduceFactor   0.1 \
	alphaTincreaseFactor 3 \
	nAlphaAdjustMax      3 \
	wolfeEnergy          0.0001 \
	wolfeGradient        0.9 \
	fdTest               no
fluid-solvent H2O 55.338 ScalarEOS \
	epsBulk 78.4 \
	pMol 0.92466 \
	epsInf 1.77 \
	Pvap 1.06736e-10 \
	sigmaBulk 4.62e-05 \
	Rvdw 2.61727 \
	Res 1.42 \
	tauNuc 343133 \
	poleEl 15 7 1
forces-output-coords Positions
ion Li   0.000000000000000   0.000000000000000   0.000000000000000 0
ion-species SG15/$ID_ONCV_PBE.upf
ion-width 0
ionic-minimize  \
	dirUpdateScheme      L-BFGS \
	linminMethod         DirUpdateRecommended \
	nIterations          0 \
	history              15 \
	knormThreshold       0.0001 \
	energyDiffThreshold  1e-06 \
	nEnergyDiff          2 \
	alphaTstart          1 \
	alphaTmin            1e-10 \
	updateTestStepSize   yes \
	alphaTreduceFactor   0.1 \
	alphaTincreaseFactor 3 \
	nAlphaAdjustMax      3 \
	wolfeEnergy          0.0001 \
	wolfeGradient        0.9 \
	fdTest               no
kpoint   0.000000000000   0.000000000000   0.000000000000  1.00000000000000
kpoint-folding 12 12 1 
latt-move-scale 1 1 1
latt-scale 3 3 1 
lattice  \
	   4.727486978767153   -2.363743489383575    0.000000000000000  \
	  -0.000000000000000    4.094123819672498    0.000000000000000  \
	   0.000000000000000    0.000000000000000   40.000000000000000 
lattice-minimize  \
	dirUpdateScheme      L-BFGS \
	linminMethod         DirUpdateRecommended \
	nIterations          0 \
	history              15 \
	knormThreshold       0 \
	energyDiffThreshold  1e-06 \
	nEnergyDiff          2 \
	alphaTstart          1 \
	alphaTmin            1e-10 \
	updateTestStepSize   yes \
	alphaTreduceFactor   0.1 \
	alphaTincreaseFactor 3 \
	nAlphaAdjustMax      3 \
	wolfeEnergy          0.0001 \
	wolfeGradient        0.9 \
	fdTest               no
lcao-params -1 1e-06 1e-05
pcm-variant GLSSA13
spintype z-spin
subspace-rotation-factor 1 yes
symmetries automatic
symmetry-threshold 0.0001



---------- Setting up symmetries ----------

Found 24 point-group symmetries of the bravais lattice
Found 24 space-group symmetries with basis
Applied RMS atom displacement 0 bohrs to make symmetries exact.

---------- Initializing the Grid ----------
R = 
[      14.1825     -7.09123            0  ]
[            0      12.2824            0  ]
[            0            0           40  ]
unit cell volume = 6967.77
G =
[   0.443025   0.255781         -0  ]
[          0   0.511561         -0  ]
[         -0         -0    0.15708  ]
Minimum fftbox size, Smin = [  60  60  164  ]
Chosen fftbox size, S = [  60  60  168  ]

---------- Exchange Correlation functional ----------
Initalized PBE GGA exchange.
Initalized PBE GGA correlation.

---------- Setting up pseudopotentials ----------
Width of ionic core gaussian charges (only for fluid interactions / plotting) set to 0

Reading pseudopotential file '/home/gridsan/aligho/DFT/build-Nov24/pseudopotentials/SG15/Li_ONCV_PBE.upf':
  'Li' pseudopotential, 'PBE' functional
  Generated using ONCVPSP code by D. R. Hamann
  Author: Martin Schlipf and Francois Gygi  Date: 150915.
  3 valence electrons, 2 orbitals, 4 projectors, 1328 radial grid points, with lMax = 1
  Transforming local potential to a uniform radial grid of dG=0.02 with 1489 points.
  Transforming nonlocal projectors to a uniform radial grid of dG=0.02 with 432 points.
    1S    l: 0   occupation:  2.0   eigenvalue: -1.905623
    2S    l: 0   occupation:  1.0   eigenvalue: -0.105624
  Transforming atomic orbitals to a uniform radial grid of dG=0.02 with 432 points.
  WARNING: large normalization error in atomic orbital 1s (integral: 0.000000).
  Core radius for overlap checks: 1.63 bohrs.
  Reading pulay file /home/gridsan/aligho/DFT/build-Nov24/pseudopotentials/SG15/Li_ONCV_PBE.pulay ... using dE_dnG = -1.230239e-02 computed for Ecut = 20.

Initialized 1 species with 1 total atoms.

Folded 1 k-points by 12x12x1 to 144 k-points.

---------- Setting up k-points, bands, fillings ----------
Reduced to 19 k-points under symmetry. 
Computing the number of bands and number of electrons
Calculating initial fillings.
nElectrons:   3.000000   nBands: 3   nStates: 38

----- Setting up reduced wavefunction bases (one per k-point) -----
average nbasis = 29766.104 , ideal nbasis = 29766.845

---------- Setting up coulomb interaction ----------
Initialized slab truncation along lattice direction 001

---------- Setting up 2D ewald sum ----------
Optimum gaussian width for ewald sums = 7.873530 bohr.
Real space sums over 289 unit cells with max indices [  8  8  0  ]
Reciprocal space sums over 81 terms with max indices [  4  4  0  ]

---------- Allocating electronic variables ----------
Initializing wave functions:  linear combination of atomic orbitals
Note: number of bands (3) exceeds available atomic orbitals (2)
Li pseudo-atom occupations:   s ( 2 1 )
	FillingsUpdate:  mu: +0.351394237  nElectrons: 3.000000  magneticMoment: [ Abs: 0.06832  Tot: -0.02000 ]
LCAOMinimize: Iter:   0  F: -1.2890672613787040  |grad|_K:  4.878e-05  alpha:  1.000e+00
	FillingsUpdate:  mu: +0.351393670  nElectrons: 3.000000  magneticMoment: [ Abs: 0.06832  Tot: -0.02000 ]
LCAOMinimize: Iter:   1  F: -1.2890676913285426  |grad|_K:  5.114e-07  alpha:  1.057e+00  linmin: -1.257e-03  cgtest:  1.014e-02  t[s]:      7.50
	FillingsUpdate:  mu: +0.351393671  nElectrons: 3.000000  magneticMoment: [ Abs: 0.06832  Tot: -0.02000 ]
LCAOMinimize: Iter:   2  F: -1.2890676913741779  |grad|_K:  6.650e-09  alpha:  9.959e-01  linmin: -1.411e-02  cgtest:  4.983e-01  t[s]:      9.45
LCAOMinimize: Encountered beta<0, resetting CG.
LCAOMinimize: Converged (|Delta F|<1.000000e-06 for 2 iters).


---- Citations for features of the code used in this run ----

   Software package:
      R. Sundararaman, K. Letchworth-Weaver, K.A. Schwarz, D. Gunceler, Y. Ozhabes and T.A. Arias, 'JDFTx: software for joint density-functional theory', SoftwareX 6, 278 (2017)

   gga-PBE exchange-correlation functional:
      J.P. Perdew, K. Burke and M. Ernzerhof, Phys. Rev. Lett. 77, 3865 (1996)

   Pseudopotentials:
      M Schlipf and F Gygi, Comput. Phys. Commun. 196, 36 (2015)

   Truncated Coulomb potentials:
      R. Sundararaman and T.A. Arias, Phys. Rev. B 87, 165122 (2013)

This list may not be complete. Please suggest additional citations or
report any other bugs at https://github.com/shankar1729/jdftx/issues

Initialization completed successfully at t[s]:      9.54


-------- Electronic minimization -----------
Will mix electronic density at each iteration.
	FillingsUpdate:  mu: +0.351393671  nElectrons: 3.000000  magneticMoment: [ Abs: 0.06832  Tot: -0.02000 ]
	FillingsUpdate:  mu: -0.692806346  nElectrons: 3.000000  magneticMoment: [ Abs: 0.06832  Tot: -0.02000 ]
SCF: Cycle:  0   F: -6.868506956976971   dF: -5.579e+00   |Residual|: 1.224e+00   |deigs|: 4.156e+00  t[s]:     12.92
	FillingsUpdate:  mu: -0.581181448  nElectrons: 3.000000  magneticMoment: [ Abs: 0.04204  Tot: -0.02000 ]
SCF: Cycle:  1   F: -6.913778523695799   dF: -4.527e-02   |Residual|: 7.604e-01   |deigs|: 2.714e-01  t[s]:     15.61
	FillingsUpdate:  mu: -0.319212275  nElectrons: 3.000000  magneticMoment: [ Abs: 0.05956  Tot: -0.02000 ]
SCF: Cycle:  2   F: -7.042250205043284   dF: -1.285e-01   |Residual|: 3.235e-01   |deigs|: 7.184e-01  t[s]:     18.34
	FillingsUpdate:  mu: -0.363596548  nElectrons: 3.000000  magneticMoment: [ Abs: 0.05120  Tot: -0.02000 ]
SCF: Cycle:  3   F: -7.041636482207036   dF: +6.137e-04   |Residual|: 1.794e-01   |deigs|: 8.903e-02  t[s]:     21.14
	FillingsUpdate:  mu: -0.322689297  nElectrons: 3.000000  magneticMoment: [ Abs: 0.09796  Tot: -0.02000 ]
SCF: Cycle:  4   F: -7.036286002448207   dF: +5.350e-03   |Residual|: 1.373e-01   |deigs|: 3.659e-02  t[s]:     23.98
	FillingsUpdate:  mu: -0.315813567  nElectrons: 3.000000  magneticMoment: [ Abs: 0.07727  Tot: -0.02000 ]
SCF: Cycle:  5   F: -7.038078523233422   dF: -1.793e-03   |Residual|: 6.043e-02   |deigs|: 3.121e-02  t[s]:     26.88
	FillingsUpdate:  mu: -0.296542047  nElectrons: 3.000000  magneticMoment: [ Abs: 0.04480  Tot: -0.02000 ]
SCF: Cycle:  6   F: -7.041143873005911   dF: -3.065e-03   |Residual|: 2.738e-02   |deigs|: 4.787e-02  t[s]:     29.83
	FillingsUpdate:  mu: -0.219216520  nElectrons: 3.000000  magneticMoment: [ Abs: 0.09716  Tot: -0.02000 ]
SCF: Cycle:  7   F: -7.045105884170946   dF: -3.962e-03   |Residual|: 1.457e-01   |deigs|: 1.397e-01  t[s]:     32.92
	FillingsUpdate:  mu: -0.233193856  nElectrons: 3.000000  magneticMoment: [ Abs: 0.11484  Tot: -0.02000 ]
SCF: Cycle:  8   F: -7.045336236370225   dF: -2.304e-04   |Residual|: 5.032e-02   |deigs|: 8.928e-02  t[s]:     35.93
	FillingsUpdate:  mu: -0.226012521  nElectrons: 3.000000  magneticMoment: [ Abs: 0.17105  Tot: -0.02000 ]
SCF: Cycle:  9   F: -7.043505911925240   dF: +1.830e-03   |Residual|: 2.467e-01   |deigs|: 9.116e-02  t[s]:     39.09
	FillingsUpdate:  mu: -0.194370490  nElectrons: 3.000000  magneticMoment: [ Abs: 0.15282  Tot: -0.02000 ]
SCF: Cycle: 10   F: -7.046017894735971   dF: -2.512e-03   |Residual|: 8.210e-02   |deigs|: 6.956e-02  t[s]:     42.29
	FillingsUpdate:  mu: -0.168680306  nElectrons: 3.000000  magneticMoment: [ Abs: 0.12544  Tot: -0.02000 ]
SCF: Cycle: 11   F: -7.046526489543372   dF: -5.086e-04   |Residual|: 5.497e-02   |deigs|: 5.902e-02  t[s]:     45.48
	FillingsUpdate:  mu: -0.154438821  nElectrons: 3.000000  magneticMoment: [ Abs: 0.09283  Tot: -0.02000 ]
SCF: Cycle: 12   F: -7.046915771649433   dF: -3.893e-04   |Residual|: 1.345e-02   |deigs|: 1.262e-02  t[s]:     48.70
	FillingsUpdate:  mu: -0.136338814  nElectrons: 3.000000  magneticMoment: [ Abs: 0.06993  Tot: -0.02000 ]
SCF: Cycle: 13   F: -7.046981659143543   dF: -6.589e-05   |Residual|: 7.671e-03   |deigs|: 2.433e-02  t[s]:     51.90
	FillingsUpdate:  mu: -0.124475278  nElectrons: 3.000000  magneticMoment: [ Abs: 0.03892  Tot: -0.02000 ]
SCF: Cycle: 14   F: -7.046967325731671   dF: +1.433e-05   |Residual|: 7.180e-03   |deigs|: 1.424e-02  t[s]:     55.14
	FillingsUpdate:  mu: -0.116222577  nElectrons: 3.000000  magneticMoment: [ Abs: 0.06498  Tot: -0.02000 ]
SCF: Cycle: 15   F: -7.047113024857069   dF: -1.457e-04   |Residual|: 4.967e-03   |deigs|: 7.252e-03  t[s]:     58.36
	FillingsUpdate:  mu: -0.111683530  nElectrons: 3.000000  magneticMoment: [ Abs: 0.04304  Tot: -0.02000 ]
SCF: Cycle: 16   F: -7.047224190268303   dF: -1.112e-04   |Residual|: 3.820e-03   |deigs|: 5.092e-03  t[s]:     61.54
	FillingsUpdate:  mu: -0.108319053  nElectrons: 3.000000  magneticMoment: [ Abs: 0.02807  Tot: -0.02000 ]
SCF: Cycle: 17   F: -7.047321384990225   dF: -9.719e-05   |Residual|: 2.613e-03   |deigs|: 4.574e-03  t[s]:     64.80
	FillingsUpdate:  mu: -0.106509331  nElectrons: 3.000000  magneticMoment: [ Abs: 0.02439  Tot: -0.02000 ]
SCF: Cycle: 18   F: -7.047383203777678   dF: -6.182e-05   |Residual|: 1.553e-03   |deigs|: 2.063e-03  t[s]:     68.00
	FillingsUpdate:  mu: -0.107123478  nElectrons: 3.000000  magneticMoment: [ Abs: 0.02350  Tot: -0.02000 ]
SCF: Cycle: 19   F: -7.047405449940569   dF: -2.225e-05   |Residual|: 1.049e-03   |deigs|: 1.063e-03  t[s]:     71.26
	FillingsUpdate:  mu: -0.106587080  nElectrons: 3.000000  magneticMoment: [ Abs: 0.02152  Tot: -0.02000 ]
SCF: Cycle: 20   F: -7.047415470364652   dF: -1.002e-05   |Residual|: 5.498e-04   |deigs|: 6.451e-04  t[s]:     74.41
	FillingsUpdate:  mu: -0.106629582  nElectrons: 3.000000  magneticMoment: [ Abs: 0.02082  Tot: -0.02000 ]
SCF: Cycle: 21   F: -7.047418294279129   dF: -2.824e-06   |Residual|: 3.406e-04   |deigs|: 1.246e-04  t[s]:     77.60
	FillingsUpdate:  mu: -0.106693432  nElectrons: 3.000000  magneticMoment: [ Abs: 0.02074  Tot: -0.02000 ]
SCF: Cycle: 22   F: -7.047419131855260   dF: -8.376e-07   |Residual|: 2.289e-04   |deigs|: 1.090e-04  t[s]:     80.75
	FillingsUpdate:  mu: -0.106745081  nElectrons: 3.000000  magneticMoment: [ Abs: 0.02061  Tot: -0.02000 ]
SCF: Cycle: 23   F: -7.047419668269923   dF: -5.364e-07   |Residual|: 1.117e-04   |deigs|: 1.001e-04  t[s]:     83.90
	FillingsUpdate:  mu: -0.106816248  nElectrons: 3.000000  magneticMoment: [ Abs: 0.02049  Tot: -0.02000 ]
SCF: Cycle: 24   F: -7.047419823705090   dF: -1.554e-07   |Residual|: 6.510e-05   |deigs|: 1.233e-04  t[s]:     87.10
	FillingsUpdate:  mu: -0.106803870  nElectrons: 3.000000  magneticMoment: [ Abs: 0.02045  Tot: -0.02000 ]
SCF: Cycle: 25   F: -7.047419903921795   dF: -8.022e-08   |Residual|: 3.399e-05   |deigs|: 1.151e-04  t[s]:     90.29
	FillingsUpdate:  mu: -0.106814577  nElectrons: 3.000000  magneticMoment: [ Abs: 0.02039  Tot: -0.02000 ]
SCF: Cycle: 26   F: -7.047419925326584   dF: -2.140e-08   |Residual|: 2.591e-05   |deigs|: 1.069e-04  t[s]:     93.51
	FillingsUpdate:  mu: -0.106838299  nElectrons: 3.000000  magneticMoment: [ Abs: 0.02029  Tot: -0.02000 ]
SCF: Cycle: 27   F: -7.047419937191505   dF: -1.186e-08   |Residual|: 1.385e-05   |deigs|: 1.018e-04  t[s]:     96.79
	FillingsUpdate:  mu: -0.106857374  nElectrons: 3.000000  magneticMoment: [ Abs: 0.02023  Tot: -0.02000 ]
SCF: Cycle: 28   F: -7.047419941603533   dF: -4.412e-09   |Residual|: 9.368e-06   |deigs|: 8.454e-05  t[s]:    100.01
	FillingsUpdate:  mu: -0.106867039  nElectrons: 3.000000  magneticMoment: [ Abs: 0.02020  Tot: -0.02000 ]
SCF: Cycle: 29   F: -7.047419940109250   dF: +1.494e-09   |Residual|: 7.495e-06   |deigs|: 6.915e-05  t[s]:    103.20
	FillingsUpdate:  mu: -0.106880782  nElectrons: 3.000000  magneticMoment: [ Abs: 0.02015  Tot: -0.02000 ]
SCF: Cycle: 30   F: -7.047419942979405   dF: -2.870e-09   |Residual|: 4.636e-06   |deigs|: 5.519e-05  t[s]:    106.49
	FillingsUpdate:  mu: -0.106887446  nElectrons: 3.000000  magneticMoment: [ Abs: 0.02012  Tot: -0.02000 ]
SCF: Cycle: 31   F: -7.047419943541081   dF: -5.617e-10   |Residual|: 3.887e-06   |deigs|: 4.133e-05  t[s]:    109.72
SCF: Converged (|Delta E|<1.000000e-08 for 2 iters).


# Ionic positions in lattice coordinates:
ion Li   0.000000000000000   0.000000000000000   0.000000000000000 0

# Forces in Lattice coordinates:
force Li   0.000000000000000  -0.000000000000000   0.000000000000000 0

# Energy components:
   Eewald =       -1.3368908222468645
       EH =        2.1945600252041793
     Eloc =       -7.5326532850468340
      Enl =       -3.6004710833265099
   Epulay =       -0.0000013080581827
      Exc =       -1.5302961948585221
       KE =        4.7583332766172903
-------------------------------------
     Etot =       -7.0474193917154446
       TS =        0.0000005518256370
-------------------------------------
        F =       -7.0474199435410814

IonicMinimize: Iter:   0  F: -7.047419943541081  |grad|_K:  0.000e+00  t[s]:    109.86
IonicMinimize: Converged (|grad|_K<1.000000e-04).

#--- Lowdin population analysis ---
# oxidation-state Li +2.107
# magnetic-moments Li -0.018

End date and time: Sat Feb  5 23:02:04 2022  (Duration: 0-0:01:49.89)
Done!
