
*************** JDFTx 1.6.0 (git hash 42ebbcc2) ***************

Start date and time: Sat Feb  5 22:54:12 2022
Executable jdftx with command-line: -i Alkali.in
Running on hosts (process indices):  d-6-10-3 (0-18)
Divided in process groups (process indices):  0 (0)  1 (1)  2 (2)  3 (3)  4 (4)  5 (5)  6 (6)  7 (7)  8 (8)  9 (9)  10 (10)  11 (11)  12 (12)  13 (13)  14 (14)  15 (15)  16 (16)  17 (17)  18 (18)
Resource initialization completed at t[s]:      0.00
Run totals: 19 processes, 48 threads, 0 GPUs


Input parsed successfully to the following command list (including defaults):

basis kpoint-dependent
coords-type Lattice
core-overlap-check vector
coulomb-interaction Slab 001
davidson-band-ratio 1.1
dump End None
dump-name $INPUT.$VAR
elec-cutoff 20
elec-eigen-algo Davidson
elec-ex-corr gga-PBE
elec-initial-magnetization -0.240000 yes
elec-smearing Fermi 1e-05
electronic-minimize  \
	dirUpdateScheme      FletcherReeves \
	linminMethod         DirUpdateRecommended \
	nIterations          100 \
	history              15 \
	knormThreshold       0 \
	energyDiffThreshold  1e-08 \
	nEnergyDiff          2 \
	alphaTstart          1 \
	alphaTmin            1e-10 \
	updateTestStepSize   yes \
	alphaTreduceFactor   0.1 \
	alphaTincreaseFactor 3 \
	nAlphaAdjustMax      3 \
	wolfeEnergy          0.0001 \
	wolfeGradient        0.9 \
	fdTest               no
electronic-scf  \
	nIterations	10000 \
	energyDiffThreshold	1e-08 \
	residualThreshold	1e-07 \
	mixFraction	0.5 \
	qMetric	0.8 \
	history	10 \
	nEigSteps	2 \
	eigDiffThreshold	1e-08 \
	mixedVariable	Density \
	qKerker	0.8 \
	qKappa	-1 \
	verbose	no \
	mixFractionMag	1.5
exchange-regularization WignerSeitzTruncated
fluid None
fluid-ex-corr (null) lda-PZ
fluid-gummel-loop 10 1.000000e-05
fluid-minimize  \
	dirUpdateScheme      PolakRibiere \
	linminMethod         DirUpdateRecommended \
	nIterations          100 \
	history              15 \
	knormThreshold       0 \
	energyDiffThreshold  0 \
	nEnergyDiff          2 \
	alphaTstart          1 \
	alphaTmin            1e-10 \
	updateTestStepSize   yes \
	alphaTreduceFactor   0.1 \
	alphaTincreaseFactor 3 \
	nAlphaAdjustMax      3 \
	wolfeEnergy          0.0001 \
	wolfeGradient        0.9 \
	fdTest               no
fluid-solvent H2O 55.338 ScalarEOS \
	epsBulk 78.4 \
	pMol 0.92466 \
	epsInf 1.77 \
	Pvap 1.06736e-10 \
	sigmaBulk 4.62e-05 \
	Rvdw 2.61727 \
	Res 1.42 \
	tauNuc 343133 \
	poleEl 15 7 1
forces-output-coords Positions
ion Li   0.000000000000000   0.000000000000000   0.000000000000000 0
ion-species SG15/$ID_ONCV_PBE.upf
ion-width 0
ionic-minimize  \
	dirUpdateScheme      L-BFGS \
	linminMethod         DirUpdateRecommended \
	nIterations          0 \
	history              15 \
	knormThreshold       0.0001 \
	energyDiffThreshold  1e-06 \
	nEnergyDiff          2 \
	alphaTstart          1 \
	alphaTmin            1e-10 \
	updateTestStepSize   yes \
	alphaTreduceFactor   0.1 \
	alphaTincreaseFactor 3 \
	nAlphaAdjustMax      3 \
	wolfeEnergy          0.0001 \
	wolfeGradient        0.9 \
	fdTest               no
kpoint   0.000000000000   0.000000000000   0.000000000000  1.00000000000000
kpoint-folding 12 12 1 
latt-move-scale 1 1 1
latt-scale 3 3 1 
lattice  \
	   4.727486978767153   -2.363743489383575    0.000000000000000  \
	  -0.000000000000000    4.094123819672498    0.000000000000000  \
	   0.000000000000000    0.000000000000000   40.000000000000000 
lattice-minimize  \
	dirUpdateScheme      L-BFGS \
	linminMethod         DirUpdateRecommended \
	nIterations          0 \
	history              15 \
	knormThreshold       0 \
	energyDiffThreshold  1e-06 \
	nEnergyDiff          2 \
	alphaTstart          1 \
	alphaTmin            1e-10 \
	updateTestStepSize   yes \
	alphaTreduceFactor   0.1 \
	alphaTincreaseFactor 3 \
	nAlphaAdjustMax      3 \
	wolfeEnergy          0.0001 \
	wolfeGradient        0.9 \
	fdTest               no
lcao-params -1 1e-06 1e-05
pcm-variant GLSSA13
spintype z-spin
subspace-rotation-factor 1 yes
symmetries automatic
symmetry-threshold 0.0001



---------- Setting up symmetries ----------

Found 24 point-group symmetries of the bravais lattice
Found 24 space-group symmetries with basis
Applied RMS atom displacement 0 bohrs to make symmetries exact.

---------- Initializing the Grid ----------
R = 
[      14.1825     -7.09123            0  ]
[            0      12.2824            0  ]
[            0            0           40  ]
unit cell volume = 6967.77
G =
[   0.443025   0.255781         -0  ]
[          0   0.511561         -0  ]
[         -0         -0    0.15708  ]
Minimum fftbox size, Smin = [  60  60  164  ]
Chosen fftbox size, S = [  60  60  168  ]

---------- Exchange Correlation functional ----------
Initalized PBE GGA exchange.
Initalized PBE GGA correlation.

---------- Setting up pseudopotentials ----------
Width of ionic core gaussian charges (only for fluid interactions / plotting) set to 0

Reading pseudopotential file '/home/gridsan/aligho/DFT/build-Nov24/pseudopotentials/SG15/Li_ONCV_PBE.upf':
  'Li' pseudopotential, 'PBE' functional
  Generated using ONCVPSP code by D. R. Hamann
  Author: Martin Schlipf and Francois Gygi  Date: 150915.
  3 valence electrons, 2 orbitals, 4 projectors, 1328 radial grid points, with lMax = 1
  Transforming local potential to a uniform radial grid of dG=0.02 with 1489 points.
  Transforming nonlocal projectors to a uniform radial grid of dG=0.02 with 432 points.
    1S    l: 0   occupation:  2.0   eigenvalue: -1.905623
    2S    l: 0   occupation:  1.0   eigenvalue: -0.105624
  Transforming atomic orbitals to a uniform radial grid of dG=0.02 with 432 points.
  WARNING: large normalization error in atomic orbital 1s (integral: 0.000000).
  Core radius for overlap checks: 1.63 bohrs.
  Reading pulay file /home/gridsan/aligho/DFT/build-Nov24/pseudopotentials/SG15/Li_ONCV_PBE.pulay ... using dE_dnG = -1.230239e-02 computed for Ecut = 20.

Initialized 1 species with 1 total atoms.

Folded 1 k-points by 12x12x1 to 144 k-points.

---------- Setting up k-points, bands, fillings ----------
Reduced to 19 k-points under symmetry. 
Computing the number of bands and number of electrons
Calculating initial fillings.
nElectrons:   3.000000   nBands: 3   nStates: 38

----- Setting up reduced wavefunction bases (one per k-point) -----
average nbasis = 29766.104 , ideal nbasis = 29766.845

---------- Setting up coulomb interaction ----------
Initialized slab truncation along lattice direction 001

---------- Setting up 2D ewald sum ----------
Optimum gaussian width for ewald sums = 7.873530 bohr.
Real space sums over 289 unit cells with max indices [  8  8  0  ]
Reciprocal space sums over 81 terms with max indices [  4  4  0  ]

---------- Allocating electronic variables ----------
Initializing wave functions:  linear combination of atomic orbitals
Note: number of bands (3) exceeds available atomic orbitals (2)
Li pseudo-atom occupations:   s ( 2 1 )
	FillingsUpdate:  mu: +0.350977585  nElectrons: 3.000000  magneticMoment: [ Abs: 0.24115  Tot: -0.24000 ]
LCAOMinimize: Iter:   0  F: -1.2885009873681452  |grad|_K:  4.766e-05  alpha:  1.000e+00
	FillingsUpdate:  mu: +0.350977150  nElectrons: 3.000000  magneticMoment: [ Abs: 0.24115  Tot: -0.24000 ]
LCAOMinimize: Iter:   1  F: -1.2885013978853821  |grad|_K:  4.781e-07  alpha:  1.057e+00  linmin: -1.230e-03  cgtest:  9.378e-03  t[s]:      7.48
	FillingsUpdate:  mu: +0.350977153  nElectrons: 3.000000  magneticMoment: [ Abs: 0.24115  Tot: -0.24000 ]
LCAOMinimize: Iter:   2  F: -1.2885013979237099  |grad|_K:  5.258e-09  alpha:  1.005e+00  linmin:  6.612e-03  cgtest: -2.310e-01  t[s]:      9.49
LCAOMinimize: Converged (|Delta F|<1.000000e-06 for 2 iters).


---- Citations for features of the code used in this run ----

   Software package:
      R. Sundararaman, K. Letchworth-Weaver, K.A. Schwarz, D. Gunceler, Y. Ozhabes and T.A. Arias, 'JDFTx: software for joint density-functional theory', SoftwareX 6, 278 (2017)

   gga-PBE exchange-correlation functional:
      J.P. Perdew, K. Burke and M. Ernzerhof, Phys. Rev. Lett. 77, 3865 (1996)

   Pseudopotentials:
      M Schlipf and F Gygi, Comput. Phys. Commun. 196, 36 (2015)

   Truncated Coulomb potentials:
      R. Sundararaman and T.A. Arias, Phys. Rev. B 87, 165122 (2013)

This list may not be complete. Please suggest additional citations or
report any other bugs at https://github.com/shankar1729/jdftx/issues

Initialization completed successfully at t[s]:      9.58


-------- Electronic minimization -----------
Will mix electronic density at each iteration.
	FillingsUpdate:  mu: +0.350977153  nElectrons: 3.000000  magneticMoment: [ Abs: 0.24115  Tot: -0.24000 ]
	FillingsUpdate:  mu: -0.694363882  nElectrons: 3.000000  magneticMoment: [ Abs: 0.24115  Tot: -0.24000 ]
SCF: Cycle:  0   F: -6.870868006881031   dF: -5.582e+00   |Residual|: 1.224e+00   |deigs|: 4.156e+00  t[s]:     12.98
	FillingsUpdate:  mu: -0.576844024  nElectrons: 3.000000  magneticMoment: [ Abs: 0.37894  Tot: -0.24000 ]
SCF: Cycle:  1   F: -6.916052983409056   dF: -4.518e-02   |Residual|: 7.614e-01   |deigs|: 2.726e-01  t[s]:     15.76
	FillingsUpdate:  mu: -0.338076830  nElectrons: 3.000000  magneticMoment: [ Abs: 0.52127  Tot: -0.24000 ]
SCF: Cycle:  2   F: -7.039546358333717   dF: -1.235e-01   |Residual|: 3.277e-01   |deigs|: 7.134e-01  t[s]:     18.57
	FillingsUpdate:  mu: -0.356201396  nElectrons: 3.000000  magneticMoment: [ Abs: 0.51220  Tot: -0.24000 ]
SCF: Cycle:  3   F: -7.041307536549013   dF: -1.761e-03   |Residual|: 1.843e-01   |deigs|: 8.015e-02  t[s]:     21.44
	FillingsUpdate:  mu: -0.329507024  nElectrons: 3.000000  magneticMoment: [ Abs: 0.56139  Tot: -0.24000 ]
SCF: Cycle:  4   F: -7.040320281733195   dF: +9.873e-04   |Residual|: 5.318e-02   |deigs|: 2.326e-02  t[s]:     24.35
	FillingsUpdate:  mu: -0.317959557  nElectrons: 3.000000  magneticMoment: [ Abs: 0.51913  Tot: -0.24000 ]
SCF: Cycle:  5   F: -7.039751864846595   dF: +5.684e-04   |Residual|: 1.233e-01   |deigs|: 1.167e-02  t[s]:     27.30
	FillingsUpdate:  mu: -0.273296128  nElectrons: 3.000000  magneticMoment: [ Abs: 0.35833  Tot: -0.24000 ]
SCF: Cycle:  6   F: -7.043143466651454   dF: -3.392e-03   |Residual|: 6.230e-02   |deigs|: 8.011e-02  t[s]:     30.30
	FillingsUpdate:  mu: -0.234695749  nElectrons: 3.000000  magneticMoment: [ Abs: 0.30082  Tot: -0.24000 ]
SCF: Cycle:  7   F: -7.045033640710828   dF: -1.890e-03   |Residual|: 1.456e-01   |deigs|: 1.049e-01  t[s]:     33.41
	FillingsUpdate:  mu: -0.237417959  nElectrons: 3.000000  magneticMoment: [ Abs: 0.28551  Tot: -0.24000 ]
SCF: Cycle:  8   F: -7.045247025748144   dF: -2.134e-04   |Residual|: 9.926e-02   |deigs|: 2.083e-02  t[s]:     36.56
	FillingsUpdate:  mu: -0.234905302  nElectrons: 3.000000  magneticMoment: [ Abs: 0.40185  Tot: -0.24000 ]
SCF: Cycle:  9   F: -7.045053385461304   dF: +1.936e-04   |Residual|: 1.387e-01   |deigs|: 9.837e-02  t[s]:     39.77
	FillingsUpdate:  mu: -0.208099213  nElectrons: 3.000000  magneticMoment: [ Abs: 0.38606  Tot: -0.24000 ]
SCF: Cycle: 10   F: -7.045430742408872   dF: -3.774e-04   |Residual|: 1.406e-01   |deigs|: 2.262e-02  t[s]:     43.01
	FillingsUpdate:  mu: -0.168584029  nElectrons: 3.000000  magneticMoment: [ Abs: 0.33614  Tot: -0.24000 ]
SCF: Cycle: 11   F: -7.047185964358974   dF: -1.755e-03   |Residual|: 3.218e-02   |deigs|: 9.442e-02  t[s]:     46.27
	FillingsUpdate:  mu: -0.164314299  nElectrons: 3.000000  magneticMoment: [ Abs: 0.32325  Tot: -0.24000 ]
SCF: Cycle: 12   F: -7.047289990258141   dF: -1.040e-04   |Residual|: 1.144e-02   |deigs|: 1.025e-02  t[s]:     49.56
	FillingsUpdate:  mu: -0.144771383  nElectrons: 3.000000  magneticMoment: [ Abs: 0.32600  Tot: -0.24000 ]
SCF: Cycle: 13   F: -7.047433075163232   dF: -1.431e-04   |Residual|: 7.898e-03   |deigs|: 1.999e-02  t[s]:     52.83
	FillingsUpdate:  mu: -0.131729557  nElectrons: 3.000000  magneticMoment: [ Abs: 0.32401  Tot: -0.24000 ]
SCF: Cycle: 14   F: -7.047365647607680   dF: +6.743e-05   |Residual|: 7.006e-03   |deigs|: 1.375e-02  t[s]:     56.07
	FillingsUpdate:  mu: -0.122973439  nElectrons: 3.000000  magneticMoment: [ Abs: 0.30822  Tot: -0.24000 ]
SCF: Cycle: 15   F: -7.047441059844672   dF: -7.541e-05   |Residual|: 5.725e-03   |deigs|: 8.509e-03  t[s]:     59.30
	FillingsUpdate:  mu: -0.116763069  nElectrons: 3.000000  magneticMoment: [ Abs: 0.29058  Tot: -0.24000 ]
SCF: Cycle: 16   F: -7.047527806935149   dF: -8.675e-05   |Residual|: 4.573e-03   |deigs|: 6.217e-03  t[s]:     62.61
	FillingsUpdate:  mu: -0.110348260  nElectrons: 3.000000  magneticMoment: [ Abs: 0.27299  Tot: -0.24000 ]
SCF: Cycle: 17   F: -7.047673653263749   dF: -1.458e-04   |Residual|: 3.125e-03   |deigs|: 7.034e-03  t[s]:     65.92
	FillingsUpdate:  mu: -0.106702551  nElectrons: 3.000000  magneticMoment: [ Abs: 0.26576  Tot: -0.24000 ]
SCF: Cycle: 18   F: -7.047750499536810   dF: -7.685e-05   |Residual|: 2.052e-03   |deigs|: 4.331e-03  t[s]:     69.31
	FillingsUpdate:  mu: -0.105514858  nElectrons: 3.000000  magneticMoment: [ Abs: 0.25955  Tot: -0.24000 ]
SCF: Cycle: 19   F: -7.047792196498678   dF: -4.170e-05   |Residual|: 1.419e-03   |deigs|: 1.515e-03  t[s]:     72.56
	FillingsUpdate:  mu: -0.105624103  nElectrons: 3.000000  magneticMoment: [ Abs: 0.25479  Tot: -0.24000 ]
SCF: Cycle: 20   F: -7.047812119280642   dF: -1.992e-05   |Residual|: 8.761e-04   |deigs|: 2.809e-04  t[s]:     75.80
	FillingsUpdate:  mu: -0.106524493  nElectrons: 3.000000  magneticMoment: [ Abs: 0.25037  Tot: -0.24000 ]
SCF: Cycle: 21   F: -7.047824925850303   dF: -1.281e-05   |Residual|: 3.938e-04   |deigs|: 1.087e-03  t[s]:     79.03
	FillingsUpdate:  mu: -0.106926609  nElectrons: 3.000000  magneticMoment: [ Abs: 0.24763  Tot: -0.24000 ]
SCF: Cycle: 22   F: -7.047827171825206   dF: -2.246e-06   |Residual|: 2.655e-04   |deigs|: 5.357e-04  t[s]:     82.19
	FillingsUpdate:  mu: -0.107167075  nElectrons: 3.000000  magneticMoment: [ Abs: 0.24504  Tot: -0.24000 ]
SCF: Cycle: 23   F: -7.047828013837607   dF: -8.420e-07   |Residual|: 1.625e-04   |deigs|: 3.274e-04  t[s]:     85.48
	FillingsUpdate:  mu: -0.107219771  nElectrons: 3.000000  magneticMoment: [ Abs: 0.24358  Tot: -0.24000 ]
SCF: Cycle: 24   F: -7.047828402847740   dF: -3.890e-07   |Residual|: 1.025e-04   |deigs|: 1.169e-04  t[s]:     88.79
	FillingsUpdate:  mu: -0.107200202  nElectrons: 3.000000  magneticMoment: [ Abs: 0.24295  Tot: -0.24000 ]
SCF: Cycle: 25   F: -7.047828449361827   dF: -4.651e-08   |Residual|: 8.401e-05   |deigs|: 8.895e-05  t[s]:     92.06
	FillingsUpdate:  mu: -0.107166912  nElectrons: 3.000000  magneticMoment: [ Abs: 0.24202  Tot: -0.24000 ]
SCF: Cycle: 26   F: -7.047828542002694   dF: -9.264e-08   |Residual|: 7.683e-05   |deigs|: 8.978e-05  t[s]:     95.28
	FillingsUpdate:  mu: -0.107080925  nElectrons: 3.000000  magneticMoment: [ Abs: 0.24124  Tot: -0.24000 ]
SCF: Cycle: 27   F: -7.047828596619460   dF: -5.462e-08   |Residual|: 5.905e-05   |deigs|: 1.182e-04  t[s]:     98.53
	FillingsUpdate:  mu: -0.107027321  nElectrons: 3.000000  magneticMoment: [ Abs: 0.24090  Tot: -0.24000 ]
SCF: Cycle: 28   F: -7.047828610486714   dF: -1.387e-08   |Residual|: 4.770e-05   |deigs|: 1.041e-04  t[s]:    101.82
	FillingsUpdate:  mu: -0.106982460  nElectrons: 3.000000  magneticMoment: [ Abs: 0.24040  Tot: -0.24000 ]
SCF: Cycle: 29   F: -7.047828614345335   dF: -3.859e-09   |Residual|: 3.521e-05   |deigs|: 1.002e-04  t[s]:    105.07
	FillingsUpdate:  mu: -0.106969168  nElectrons: 3.000000  magneticMoment: [ Abs: 0.24023  Tot: -0.24000 ]
SCF: Cycle: 30   F: -7.047828647242826   dF: -3.290e-08   |Residual|: 2.496e-05   |deigs|: 8.119e-05  t[s]:    108.36
	FillingsUpdate:  mu: -0.106968359  nElectrons: 3.000000  magneticMoment: [ Abs: 0.24012  Tot: -0.24000 ]
SCF: Cycle: 31   F: -7.047828655548410   dF: -8.306e-09   |Residual|: 2.033e-05   |deigs|: 6.848e-05  t[s]:    111.65
	FillingsUpdate:  mu: -0.106985892  nElectrons: 3.000000  magneticMoment: [ Abs: 0.24008  Tot: -0.24000 ]
SCF: Cycle: 32   F: -7.047828661628754   dF: -6.080e-09   |Residual|: 1.805e-05   |deigs|: 6.164e-05  t[s]:    114.91
SCF: Converged (|Delta E|<1.000000e-08 for 2 iters).


# Ionic positions in lattice coordinates:
ion Li   0.000000000000000   0.000000000000000   0.000000000000000 0

# Forces in Lattice coordinates:
force Li   0.000000000000000  -0.000000000000000   0.000000000000000 0

# Energy components:
   Eewald =       -1.3368908222468645
       EH =        2.1969234743234392
     Eloc =       -7.5356990080589998
      Enl =       -3.6008522552176983
   Epulay =       -0.0000013080581827
      Exc =       -1.5313759677611281
       KE =        4.7600675673179058
-------------------------------------
     Etot =       -7.0478283197015301
       TS =        0.0000003419272244
-------------------------------------
        F =       -7.0478286616287544

IonicMinimize: Iter:   0  F: -7.047828661628754  |grad|_K:  0.000e+00  t[s]:    115.05
IonicMinimize: Converged (|grad|_K<1.000000e-04).

#--- Lowdin population analysis ---
# oxidation-state Li +2.104
# magnetic-moments Li -0.221

End date and time: Sat Feb  5 22:56:07 2022  (Duration: 0-0:01:55.07)
Done!
