
*************** JDFTx 1.6.0 (git hash 42ebbcc2) ***************

Start date and time: Sat Feb  5 22:53:40 2022
Executable jdftx with command-line: -i Alkali.in
Running on hosts (process indices):  d-4-6-1 (0-18)
Divided in process groups (process indices):  0 (0)  1 (1)  2 (2)  3 (3)  4 (4)  5 (5)  6 (6)  7 (7)  8 (8)  9 (9)  10 (10)  11 (11)  12 (12)  13 (13)  14 (14)  15 (15)  16 (16)  17 (17)  18 (18)
Resource initialization completed at t[s]:      0.00
Run totals: 19 processes, 48 threads, 0 GPUs


Input parsed successfully to the following command list (including defaults):

basis kpoint-dependent
coords-type Lattice
core-overlap-check vector
coulomb-interaction Slab 001
davidson-band-ratio 1.1
dump End None
dump-name $INPUT.$VAR
elec-cutoff 20
elec-eigen-algo Davidson
elec-ex-corr gga-PBE
elec-initial-magnetization -0.480000 yes
elec-smearing Fermi 1e-05
electronic-minimize  \
	dirUpdateScheme      FletcherReeves \
	linminMethod         DirUpdateRecommended \
	nIterations          100 \
	history              15 \
	knormThreshold       0 \
	energyDiffThreshold  1e-08 \
	nEnergyDiff          2 \
	alphaTstart          1 \
	alphaTmin            1e-10 \
	updateTestStepSize   yes \
	alphaTreduceFactor   0.1 \
	alphaTincreaseFactor 3 \
	nAlphaAdjustMax      3 \
	wolfeEnergy          0.0001 \
	wolfeGradient        0.9 \
	fdTest               no
electronic-scf  \
	nIterations	10000 \
	energyDiffThreshold	1e-08 \
	residualThreshold	1e-07 \
	mixFraction	0.5 \
	qMetric	0.8 \
	history	10 \
	nEigSteps	2 \
	eigDiffThreshold	1e-08 \
	mixedVariable	Density \
	qKerker	0.8 \
	qKappa	-1 \
	verbose	no \
	mixFractionMag	1.5
exchange-regularization WignerSeitzTruncated
fluid None
fluid-ex-corr (null) lda-PZ
fluid-gummel-loop 10 1.000000e-05
fluid-minimize  \
	dirUpdateScheme      PolakRibiere \
	linminMethod         DirUpdateRecommended \
	nIterations          100 \
	history              15 \
	knormThreshold       0 \
	energyDiffThreshold  0 \
	nEnergyDiff          2 \
	alphaTstart          1 \
	alphaTmin            1e-10 \
	updateTestStepSize   yes \
	alphaTreduceFactor   0.1 \
	alphaTincreaseFactor 3 \
	nAlphaAdjustMax      3 \
	wolfeEnergy          0.0001 \
	wolfeGradient        0.9 \
	fdTest               no
fluid-solvent H2O 55.338 ScalarEOS \
	epsBulk 78.4 \
	pMol 0.92466 \
	epsInf 1.77 \
	Pvap 1.06736e-10 \
	sigmaBulk 4.62e-05 \
	Rvdw 2.61727 \
	Res 1.42 \
	tauNuc 343133 \
	poleEl 15 7 1
forces-output-coords Positions
ion Li   0.000000000000000   0.000000000000000   0.000000000000000 0
ion-species SG15/$ID_ONCV_PBE.upf
ion-width 0
ionic-minimize  \
	dirUpdateScheme      L-BFGS \
	linminMethod         DirUpdateRecommended \
	nIterations          0 \
	history              15 \
	knormThreshold       0.0001 \
	energyDiffThreshold  1e-06 \
	nEnergyDiff          2 \
	alphaTstart          1 \
	alphaTmin            1e-10 \
	updateTestStepSize   yes \
	alphaTreduceFactor   0.1 \
	alphaTincreaseFactor 3 \
	nAlphaAdjustMax      3 \
	wolfeEnergy          0.0001 \
	wolfeGradient        0.9 \
	fdTest               no
kpoint   0.000000000000   0.000000000000   0.000000000000  1.00000000000000
kpoint-folding 12 12 1 
latt-move-scale 1 1 1
latt-scale 3 3 1 
lattice  \
	   4.727486978767153   -2.363743489383575    0.000000000000000  \
	  -0.000000000000000    4.094123819672498    0.000000000000000  \
	   0.000000000000000    0.000000000000000   40.000000000000000 
lattice-minimize  \
	dirUpdateScheme      L-BFGS \
	linminMethod         DirUpdateRecommended \
	nIterations          0 \
	history              15 \
	knormThreshold       0 \
	energyDiffThreshold  1e-06 \
	nEnergyDiff          2 \
	alphaTstart          1 \
	alphaTmin            1e-10 \
	updateTestStepSize   yes \
	alphaTreduceFactor   0.1 \
	alphaTincreaseFactor 3 \
	nAlphaAdjustMax      3 \
	wolfeEnergy          0.0001 \
	wolfeGradient        0.9 \
	fdTest               no
lcao-params -1 1e-06 1e-05
pcm-variant GLSSA13
spintype z-spin
subspace-rotation-factor 1 yes
symmetries automatic
symmetry-threshold 0.0001



---------- Setting up symmetries ----------

Found 24 point-group symmetries of the bravais lattice
Found 24 space-group symmetries with basis
Applied RMS atom displacement 0 bohrs to make symmetries exact.

---------- Initializing the Grid ----------
R = 
[      14.1825     -7.09123            0  ]
[            0      12.2824            0  ]
[            0            0           40  ]
unit cell volume = 6967.77
G =
[   0.443025   0.255781         -0  ]
[          0   0.511561         -0  ]
[         -0         -0    0.15708  ]
Minimum fftbox size, Smin = [  60  60  164  ]
Chosen fftbox size, S = [  60  60  168  ]

---------- Exchange Correlation functional ----------
Initalized PBE GGA exchange.
Initalized PBE GGA correlation.

---------- Setting up pseudopotentials ----------
Width of ionic core gaussian charges (only for fluid interactions / plotting) set to 0

Reading pseudopotential file '/home/gridsan/aligho/DFT/build-Nov24/pseudopotentials/SG15/Li_ONCV_PBE.upf':
  'Li' pseudopotential, 'PBE' functional
  Generated using ONCVPSP code by D. R. Hamann
  Author: Martin Schlipf and Francois Gygi  Date: 150915.
  3 valence electrons, 2 orbitals, 4 projectors, 1328 radial grid points, with lMax = 1
  Transforming local potential to a uniform radial grid of dG=0.02 with 1489 points.
  Transforming nonlocal projectors to a uniform radial grid of dG=0.02 with 432 points.
    1S    l: 0   occupation:  2.0   eigenvalue: -1.905623
    2S    l: 0   occupation:  1.0   eigenvalue: -0.105624
  Transforming atomic orbitals to a uniform radial grid of dG=0.02 with 432 points.
  WARNING: large normalization error in atomic orbital 1s (integral: 0.000000).
  Core radius for overlap checks: 1.63 bohrs.
  Reading pulay file /home/gridsan/aligho/DFT/build-Nov24/pseudopotentials/SG15/Li_ONCV_PBE.pulay ... using dE_dnG = -1.230239e-02 computed for Ecut = 20.

Initialized 1 species with 1 total atoms.

Folded 1 k-points by 12x12x1 to 144 k-points.

---------- Setting up k-points, bands, fillings ----------
Reduced to 19 k-points under symmetry. 
Computing the number of bands and number of electrons
Calculating initial fillings.
nElectrons:   3.000000   nBands: 3   nStates: 38

----- Setting up reduced wavefunction bases (one per k-point) -----
average nbasis = 29766.104 , ideal nbasis = 29766.845

---------- Setting up coulomb interaction ----------
Initialized slab truncation along lattice direction 001

---------- Setting up 2D ewald sum ----------
Optimum gaussian width for ewald sums = 7.873530 bohr.
Real space sums over 289 unit cells with max indices [  8  8  0  ]
Reciprocal space sums over 81 terms with max indices [  4  4  0  ]

---------- Allocating electronic variables ----------
Initializing wave functions:  linear combination of atomic orbitals
Note: number of bands (3) exceeds available atomic orbitals (2)
Li pseudo-atom occupations:   s ( 2 1 )
	FillingsUpdate:  mu: +0.348288615  nElectrons: 3.000000  magneticMoment: [ Abs: 0.48026  Tot: -0.48000 ]
LCAOMinimize: Iter:   0  F: -1.2862762248693256  |grad|_K:  4.892e-05  alpha:  1.000e+00
	FillingsUpdate:  mu: +0.348287867  nElectrons: 3.000000  magneticMoment: [ Abs: 0.48026  Tot: -0.48000 ]
LCAOMinimize: Iter:   1  F: -1.2862766575140532  |grad|_K:  4.989e-07  alpha:  1.057e+00  linmin: -1.048e-03  cgtest:  9.864e-03  t[s]:      7.49
	FillingsUpdate:  mu: +0.348287869  nElectrons: 3.000000  magneticMoment: [ Abs: 0.48026  Tot: -0.48000 ]
LCAOMinimize: Iter:   2  F: -1.2862766575554998  |grad|_K:  2.182e-08  alpha:  9.660e-01  linmin: -1.878e-02  cgtest:  8.982e-01  t[s]:      9.50
LCAOMinimize: Encountered beta<0, resetting CG.
LCAOMinimize: Converged (|Delta F|<1.000000e-06 for 2 iters).


---- Citations for features of the code used in this run ----

   Software package:
      R. Sundararaman, K. Letchworth-Weaver, K.A. Schwarz, D. Gunceler, Y. Ozhabes and T.A. Arias, 'JDFTx: software for joint density-functional theory', SoftwareX 6, 278 (2017)

   gga-PBE exchange-correlation functional:
      J.P. Perdew, K. Burke and M. Ernzerhof, Phys. Rev. Lett. 77, 3865 (1996)

   Pseudopotentials:
      M Schlipf and F Gygi, Comput. Phys. Commun. 196, 36 (2015)

   Truncated Coulomb potentials:
      R. Sundararaman and T.A. Arias, Phys. Rev. B 87, 165122 (2013)

This list may not be complete. Please suggest additional citations or
report any other bugs at https://github.com/shankar1729/jdftx/issues

Initialization completed successfully at t[s]:      9.60


-------- Electronic minimization -----------
Will mix electronic density at each iteration.
	FillingsUpdate:  mu: +0.348287869  nElectrons: 3.000000  magneticMoment: [ Abs: 0.48026  Tot: -0.48000 ]
	FillingsUpdate:  mu: -0.692977006  nElectrons: 3.000000  magneticMoment: [ Abs: 0.48026  Tot: -0.48000 ]
SCF: Cycle:  0   F: -6.876141348007296   dF: -5.590e+00   |Residual|: 1.225e+00   |deigs|: 4.156e+00  t[s]:     13.03
	FillingsUpdate:  mu: -0.570331105  nElectrons: 3.000000  magneticMoment: [ Abs: 0.76043  Tot: -0.48000 ]
SCF: Cycle:  1   F: -6.917907644625972   dF: -4.177e-02   |Residual|: 7.629e-01   |deigs|: 2.738e-01  t[s]:     15.81
	FillingsUpdate:  mu: -0.354467262  nElectrons: 3.000000  magneticMoment: [ Abs: 1.04622  Tot: -0.48000 ]
SCF: Cycle:  2   F: -7.038650860803338   dF: -1.207e-01   |Residual|: 3.291e-01   |deigs|: 7.089e-01  t[s]:     18.56
	FillingsUpdate:  mu: -0.366027545  nElectrons: 3.000000  magneticMoment: [ Abs: 0.96448  Tot: -0.48000 ]
SCF: Cycle:  3   F: -7.040227269566799   dF: -1.576e-03   |Residual|: 1.829e-01   |deigs|: 7.980e-02  t[s]:     21.42
	FillingsUpdate:  mu: -0.323583447  nElectrons: 3.000000  magneticMoment: [ Abs: 0.85602  Tot: -0.48000 ]
SCF: Cycle:  4   F: -7.042140023241329   dF: -1.913e-03   |Residual|: 4.755e-02   |deigs|: 3.333e-02  t[s]:     24.32
	FillingsUpdate:  mu: -0.307303072  nElectrons: 3.000000  magneticMoment: [ Abs: 0.79432  Tot: -0.48000 ]
SCF: Cycle:  5   F: -7.041616100444648   dF: +5.239e-04   |Residual|: 9.603e-02   |deigs|: 1.583e-02  t[s]:     27.32
	FillingsUpdate:  mu: -0.261549140  nElectrons: 3.000000  magneticMoment: [ Abs: 0.61206  Tot: -0.48000 ]
SCF: Cycle:  6   F: -7.045246982437279   dF: -3.631e-03   |Residual|: 3.604e-02   |deigs|: 9.072e-02  t[s]:     30.36
	FillingsUpdate:  mu: -0.247808037  nElectrons: 3.000000  magneticMoment: [ Abs: 0.58277  Tot: -0.48000 ]
SCF: Cycle:  7   F: -7.046250385626267   dF: -1.003e-03   |Residual|: 9.278e-02   |deigs|: 4.885e-02  t[s]:     33.45
	FillingsUpdate:  mu: -0.250952776  nElectrons: 3.000000  magneticMoment: [ Abs: 0.54673  Tot: -0.48000 ]
SCF: Cycle:  8   F: -7.046237877229277   dF: +1.251e-05   |Residual|: 6.576e-02   |deigs|: 1.587e-02  t[s]:     36.57
	FillingsUpdate:  mu: -0.220915023  nElectrons: 3.000000  magneticMoment: [ Abs: 0.56117  Tot: -0.48000 ]
SCF: Cycle:  9   F: -7.047316880485075   dF: -1.079e-03   |Residual|: 7.313e-02   |deigs|: 4.034e-02  t[s]:     39.78
	FillingsUpdate:  mu: -0.205600559  nElectrons: 3.000000  magneticMoment: [ Abs: 0.56629  Tot: -0.48000 ]
SCF: Cycle: 10   F: -7.047663728771924   dF: -3.468e-04   |Residual|: 3.844e-02   |deigs|: 1.778e-02  t[s]:     43.07
	FillingsUpdate:  mu: -0.177150285  nElectrons: 3.000000  magneticMoment: [ Abs: 0.63113  Tot: -0.48000 ]
SCF: Cycle: 11   F: -7.048180842351920   dF: -5.171e-04   |Residual|: 1.494e-02   |deigs|: 3.408e-02  t[s]:     46.34
	FillingsUpdate:  mu: -0.167597818  nElectrons: 3.000000  magneticMoment: [ Abs: 0.63078  Tot: -0.48000 ]
SCF: Cycle: 12   F: -7.048483224526866   dF: -3.024e-04   |Residual|: 1.023e-02   |deigs|: 9.099e-03  t[s]:     49.57
	FillingsUpdate:  mu: -0.145523779  nElectrons: 3.000000  magneticMoment: [ Abs: 0.62634  Tot: -0.48000 ]
SCF: Cycle: 13   F: -7.048361691896337   dF: +1.215e-04   |Residual|: 7.977e-03   |deigs|: 2.231e-02  t[s]:     52.83
	FillingsUpdate:  mu: -0.133274778  nElectrons: 3.000000  magneticMoment: [ Abs: 0.61027  Tot: -0.48000 ]
SCF: Cycle: 14   F: -7.048323026933807   dF: +3.866e-05   |Residual|: 6.980e-03   |deigs|: 1.353e-02  t[s]:     56.06
	FillingsUpdate:  mu: -0.121952952  nElectrons: 3.000000  magneticMoment: [ Abs: 0.58194  Tot: -0.48000 ]
SCF: Cycle: 15   F: -7.048380436283672   dF: -5.741e-05   |Residual|: 5.914e-03   |deigs|: 1.151e-02  t[s]:     59.27
	FillingsUpdate:  mu: -0.113897378  nElectrons: 3.000000  magneticMoment: [ Abs: 0.54863  Tot: -0.48000 ]
SCF: Cycle: 16   F: -7.048630851436041   dF: -2.504e-04   |Residual|: 4.449e-03   |deigs|: 8.231e-03  t[s]:     62.52
	FillingsUpdate:  mu: -0.107991568  nElectrons: 3.000000  magneticMoment: [ Abs: 0.51885  Tot: -0.48000 ]
SCF: Cycle: 17   F: -7.048817275296978   dF: -1.864e-04   |Residual|: 2.908e-03   |deigs|: 6.702e-03  t[s]:     65.79
	FillingsUpdate:  mu: -0.105549081  nElectrons: 3.000000  magneticMoment: [ Abs: 0.50884  Tot: -0.48000 ]
SCF: Cycle: 18   F: -7.048896794562850   dF: -7.952e-05   |Residual|: 1.813e-03   |deigs|: 3.072e-03  t[s]:     69.10
	FillingsUpdate:  mu: -0.104404359  nElectrons: 3.000000  magneticMoment: [ Abs: 0.50281  Tot: -0.48000 ]
SCF: Cycle: 19   F: -7.048930964853590   dF: -3.417e-05   |Residual|: 1.140e-03   |deigs|: 1.473e-03  t[s]:     72.37
	FillingsUpdate:  mu: -0.104284073  nElectrons: 3.000000  magneticMoment: [ Abs: 0.49946  Tot: -0.48000 ]
SCF: Cycle: 20   F: -7.048948588887643   dF: -1.762e-05   |Residual|: 7.312e-04   |deigs|: 2.789e-04  t[s]:     75.69
	FillingsUpdate:  mu: -0.104094273  nElectrons: 3.000000  magneticMoment: [ Abs: 0.49594  Tot: -0.48000 ]
SCF: Cycle: 21   F: -7.048957697582630   dF: -9.109e-06   |Residual|: 4.606e-04   |deigs|: 2.108e-04  t[s]:     78.93
	FillingsUpdate:  mu: -0.104143622  nElectrons: 3.000000  magneticMoment: [ Abs: 0.49333  Tot: -0.48000 ]
SCF: Cycle: 22   F: -7.048958926872971   dF: -1.229e-06   |Residual|: 3.651e-04   |deigs|: 1.300e-04  t[s]:     82.18
	FillingsUpdate:  mu: -0.104264156  nElectrons: 3.000000  magneticMoment: [ Abs: 0.48859  Tot: -0.48000 ]
SCF: Cycle: 23   F: -7.048960290689243   dF: -1.364e-06   |Residual|: 2.363e-04   |deigs|: 2.385e-04  t[s]:     85.50
	FillingsUpdate:  mu: -0.104655132  nElectrons: 3.000000  magneticMoment: [ Abs: 0.48540  Tot: -0.48000 ]
SCF: Cycle: 24   F: -7.048959873237243   dF: +4.175e-07   |Residual|: 2.376e-04   |deigs|: 4.214e-04  t[s]:     88.82
	FillingsUpdate:  mu: -0.105028782  nElectrons: 3.000000  magneticMoment: [ Abs: 0.48285  Tot: -0.48000 ]
SCF: Cycle: 25   F: -7.048960433208975   dF: -5.600e-07   |Residual|: 1.835e-04   |deigs|: 3.794e-04  t[s]:     92.13
	FillingsUpdate:  mu: -0.105259812  nElectrons: 3.000000  magneticMoment: [ Abs: 0.48120  Tot: -0.48000 ]
SCF: Cycle: 26   F: -7.048961097677347   dF: -6.645e-07   |Residual|: 1.200e-04   |deigs|: 2.364e-04  t[s]:     95.41
	FillingsUpdate:  mu: -0.105341871  nElectrons: 3.000000  magneticMoment: [ Abs: 0.48057  Tot: -0.48000 ]
SCF: Cycle: 27   F: -7.048961282422600   dF: -1.847e-07   |Residual|: 7.919e-05   |deigs|: 1.228e-04  t[s]:     98.65
	FillingsUpdate:  mu: -0.105350416  nElectrons: 3.000000  magneticMoment: [ Abs: 0.48025  Tot: -0.48000 ]
SCF: Cycle: 28   F: -7.048961339896393   dF: -5.747e-08   |Residual|: 4.949e-05   |deigs|: 8.703e-05  t[s]:    101.92
	FillingsUpdate:  mu: -0.105343421  nElectrons: 3.000000  magneticMoment: [ Abs: 0.48012  Tot: -0.48000 ]
SCF: Cycle: 29   F: -7.048961345904112   dF: -6.008e-09   |Residual|: 3.185e-05   |deigs|: 7.220e-05  t[s]:    105.23
	FillingsUpdate:  mu: -0.105331626  nElectrons: 3.000000  magneticMoment: [ Abs: 0.48009  Tot: -0.48000 ]
SCF: Cycle: 30   F: -7.048961369562070   dF: -2.366e-08   |Residual|: 2.384e-05   |deigs|: 5.937e-05  t[s]:    108.50
	FillingsUpdate:  mu: -0.105321138  nElectrons: 3.000000  magneticMoment: [ Abs: 0.48009  Tot: -0.48000 ]
SCF: Cycle: 31   F: -7.048961370959971   dF: -1.398e-09   |Residual|: 1.770e-05   |deigs|: 4.668e-05  t[s]:    111.83
	FillingsUpdate:  mu: -0.105315811  nElectrons: 3.000000  magneticMoment: [ Abs: 0.48008  Tot: -0.48000 ]
SCF: Cycle: 32   F: -7.048961388139572   dF: -1.718e-08   |Residual|: 1.460e-05   |deigs|: 3.396e-05  t[s]:    115.12
	FillingsUpdate:  mu: -0.105309984  nElectrons: 3.000000  magneticMoment: [ Abs: 0.48004  Tot: -0.48000 ]
SCF: Cycle: 33   F: -7.048961389502843   dF: -1.363e-09   |Residual|: 1.182e-05   |deigs|: 2.443e-05  t[s]:    118.42
	FillingsUpdate:  mu: -0.105307143  nElectrons: 3.000000  magneticMoment: [ Abs: 0.48001  Tot: -0.48000 ]
SCF: Cycle: 34   F: -7.048961404204784   dF: -1.470e-08   |Residual|: 7.939e-06   |deigs|: 1.732e-05  t[s]:    121.68
	FillingsUpdate:  mu: -0.105306049  nElectrons: 3.000000  magneticMoment: [ Abs: 0.48000  Tot: -0.48000 ]
SCF: Cycle: 35   F: -7.048961405335778   dF: -1.131e-09   |Residual|: 5.940e-06   |deigs|: 1.281e-05  t[s]:    124.95
	FillingsUpdate:  mu: -0.105304913  nElectrons: 3.000000  magneticMoment: [ Abs: 0.48000  Tot: -0.48000 ]
SCF: Cycle: 36   F: -7.048961407585704   dF: -2.250e-09   |Residual|: 3.741e-06   |deigs|: 9.240e-06  t[s]:    128.20
SCF: Converged (|Delta E|<1.000000e-08 for 2 iters).


# Ionic positions in lattice coordinates:
ion Li   0.000000000000000   0.000000000000000   0.000000000000000 0

# Forces in Lattice coordinates:
force Li  -0.000000000000000  -0.000000000000000   0.000000000000000 0

# Energy components:
   Eewald =       -1.3368908222468645
       EH =        2.2048581471037463
     Eloc =       -7.5458586548325837
      Enl =       -3.6020836331431161
   Epulay =       -0.0000013080581827
      Exc =       -1.5348655766245436
       KE =        4.7658809890261722
-------------------------------------
     Etot =       -7.0489608587753718
       TS =        0.0000005488103325
-------------------------------------
        F =       -7.0489614075857041

IonicMinimize: Iter:   0  F: -7.048961407585704  |grad|_K:  0.000e+00  t[s]:    128.35
IonicMinimize: Converged (|grad|_K<1.000000e-04).

#--- Lowdin population analysis ---
# oxidation-state Li +2.094
# magnetic-moments Li -0.443

End date and time: Sat Feb  5 22:55:48 2022  (Duration: 0-0:02:08.37)
Done!
