
*************** JDFTx 1.6.0 (git hash 42ebbcc2) ***************

Start date and time: Sat Feb  5 22:54:17 2022
Executable jdftx with command-line: -i Alkali.in
Running on hosts (process indices):  d-16-12-3 (0-18)
Divided in process groups (process indices):  0 (0)  1 (1)  2 (2)  3 (3)  4 (4)  5 (5)  6 (6)  7 (7)  8 (8)  9 (9)  10 (10)  11 (11)  12 (12)  13 (13)  14 (14)  15 (15)  16 (16)  17 (17)  18 (18)
Resource initialization completed at t[s]:      0.00
Run totals: 19 processes, 48 threads, 0 GPUs


Input parsed successfully to the following command list (including defaults):

basis kpoint-dependent
coords-type Lattice
core-overlap-check vector
coulomb-interaction Slab 001
davidson-band-ratio 1.1
dump End None
dump-name $INPUT.$VAR
elec-cutoff 20
elec-eigen-algo Davidson
elec-ex-corr gga-PBE
elec-initial-magnetization -0.160000 yes
elec-smearing Fermi 1e-05
electronic-minimize  \
	dirUpdateScheme      FletcherReeves \
	linminMethod         DirUpdateRecommended \
	nIterations          100 \
	history              15 \
	knormThreshold       0 \
	energyDiffThreshold  1e-08 \
	nEnergyDiff          2 \
	alphaTstart          1 \
	alphaTmin            1e-10 \
	updateTestStepSize   yes \
	alphaTreduceFactor   0.1 \
	alphaTincreaseFactor 3 \
	nAlphaAdjustMax      3 \
	wolfeEnergy          0.0001 \
	wolfeGradient        0.9 \
	fdTest               no
electronic-scf  \
	nIterations	10000 \
	energyDiffThreshold	1e-08 \
	residualThreshold	1e-07 \
	mixFraction	0.5 \
	qMetric	0.8 \
	history	10 \
	nEigSteps	2 \
	eigDiffThreshold	1e-08 \
	mixedVariable	Density \
	qKerker	0.8 \
	qKappa	-1 \
	verbose	no \
	mixFractionMag	1.5
exchange-regularization WignerSeitzTruncated
fluid None
fluid-ex-corr (null) lda-PZ
fluid-gummel-loop 10 1.000000e-05
fluid-minimize  \
	dirUpdateScheme      PolakRibiere \
	linminMethod         DirUpdateRecommended \
	nIterations          100 \
	history              15 \
	knormThreshold       0 \
	energyDiffThreshold  0 \
	nEnergyDiff          2 \
	alphaTstart          1 \
	alphaTmin            1e-10 \
	updateTestStepSize   yes \
	alphaTreduceFactor   0.1 \
	alphaTincreaseFactor 3 \
	nAlphaAdjustMax      3 \
	wolfeEnergy          0.0001 \
	wolfeGradient        0.9 \
	fdTest               no
fluid-solvent H2O 55.338 ScalarEOS \
	epsBulk 78.4 \
	pMol 0.92466 \
	epsInf 1.77 \
	Pvap 1.06736e-10 \
	sigmaBulk 4.62e-05 \
	Rvdw 2.61727 \
	Res 1.42 \
	tauNuc 343133 \
	poleEl 15 7 1
forces-output-coords Positions
ion Li   0.000000000000000   0.000000000000000   0.000000000000000 0
ion-species SG15/$ID_ONCV_PBE.upf
ion-width 0
ionic-minimize  \
	dirUpdateScheme      L-BFGS \
	linminMethod         DirUpdateRecommended \
	nIterations          0 \
	history              15 \
	knormThreshold       0.0001 \
	energyDiffThreshold  1e-06 \
	nEnergyDiff          2 \
	alphaTstart          1 \
	alphaTmin            1e-10 \
	updateTestStepSize   yes \
	alphaTreduceFactor   0.1 \
	alphaTincreaseFactor 3 \
	nAlphaAdjustMax      3 \
	wolfeEnergy          0.0001 \
	wolfeGradient        0.9 \
	fdTest               no
kpoint   0.000000000000   0.000000000000   0.000000000000  1.00000000000000
kpoint-folding 12 12 1 
latt-move-scale 1 1 1
latt-scale 3 3 1 
lattice  \
	   4.727486978767153   -2.363743489383575    0.000000000000000  \
	  -0.000000000000000    4.094123819672498    0.000000000000000  \
	   0.000000000000000    0.000000000000000   40.000000000000000 
lattice-minimize  \
	dirUpdateScheme      L-BFGS \
	linminMethod         DirUpdateRecommended \
	nIterations          0 \
	history              15 \
	knormThreshold       0 \
	energyDiffThreshold  1e-06 \
	nEnergyDiff          2 \
	alphaTstart          1 \
	alphaTmin            1e-10 \
	updateTestStepSize   yes \
	alphaTreduceFactor   0.1 \
	alphaTincreaseFactor 3 \
	nAlphaAdjustMax      3 \
	wolfeEnergy          0.0001 \
	wolfeGradient        0.9 \
	fdTest               no
lcao-params -1 1e-06 1e-05
pcm-variant GLSSA13
spintype z-spin
subspace-rotation-factor 1 yes
symmetries automatic
symmetry-threshold 0.0001



---------- Setting up symmetries ----------

Found 24 point-group symmetries of the bravais lattice
Found 24 space-group symmetries with basis
Applied RMS atom displacement 0 bohrs to make symmetries exact.

---------- Initializing the Grid ----------
R = 
[      14.1825     -7.09123            0  ]
[            0      12.2824            0  ]
[            0            0           40  ]
unit cell volume = 6967.77
G =
[   0.443025   0.255781         -0  ]
[          0   0.511561         -0  ]
[         -0         -0    0.15708  ]
Minimum fftbox size, Smin = [  60  60  164  ]
Chosen fftbox size, S = [  60  60  168  ]

---------- Exchange Correlation functional ----------
Initalized PBE GGA exchange.
Initalized PBE GGA correlation.

---------- Setting up pseudopotentials ----------
Width of ionic core gaussian charges (only for fluid interactions / plotting) set to 0

Reading pseudopotential file '/home/gridsan/aligho/DFT/build-Nov24/pseudopotentials/SG15/Li_ONCV_PBE.upf':
  'Li' pseudopotential, 'PBE' functional
  Generated using ONCVPSP code by D. R. Hamann
  Author: Martin Schlipf and Francois Gygi  Date: 150915.
  3 valence electrons, 2 orbitals, 4 projectors, 1328 radial grid points, with lMax = 1
  Transforming local potential to a uniform radial grid of dG=0.02 with 1489 points.
  Transforming nonlocal projectors to a uniform radial grid of dG=0.02 with 432 points.
    1S    l: 0   occupation:  2.0   eigenvalue: -1.905623
    2S    l: 0   occupation:  1.0   eigenvalue: -0.105624
  Transforming atomic orbitals to a uniform radial grid of dG=0.02 with 432 points.
  WARNING: large normalization error in atomic orbital 1s (integral: 0.000000).
  Core radius for overlap checks: 1.63 bohrs.
  Reading pulay file /home/gridsan/aligho/DFT/build-Nov24/pseudopotentials/SG15/Li_ONCV_PBE.pulay ... using dE_dnG = -1.230239e-02 computed for Ecut = 20.

Initialized 1 species with 1 total atoms.

Folded 1 k-points by 12x12x1 to 144 k-points.

---------- Setting up k-points, bands, fillings ----------
Reduced to 19 k-points under symmetry. 
Computing the number of bands and number of electrons
Calculating initial fillings.
nElectrons:   3.000000   nBands: 3   nStates: 38

----- Setting up reduced wavefunction bases (one per k-point) -----
average nbasis = 29766.104 , ideal nbasis = 29766.845

---------- Setting up coulomb interaction ----------
Initialized slab truncation along lattice direction 001

---------- Setting up 2D ewald sum ----------
Optimum gaussian width for ewald sums = 7.873530 bohr.
Real space sums over 289 unit cells with max indices [  8  8  0  ]
Reciprocal space sums over 81 terms with max indices [  4  4  0  ]

---------- Allocating electronic variables ----------
Initializing wave functions:  linear combination of atomic orbitals
Note: number of bands (3) exceeds available atomic orbitals (2)
Li pseudo-atom occupations:   s ( 2 1 )
	FillingsUpdate:  mu: +0.351497124  nElectrons: 3.000000  magneticMoment: [ Abs: 0.16433  Tot: -0.16000 ]
LCAOMinimize: Iter:   0  F: -1.2887987552337117  |grad|_K:  4.804e-05  alpha:  1.000e+00
	FillingsUpdate:  mu: +0.351496303  nElectrons: 3.000000  magneticMoment: [ Abs: 0.16433  Tot: -0.16000 ]
LCAOMinimize: Iter:   1  F: -1.2887991723178776  |grad|_K:  4.935e-07  alpha:  1.057e+00  linmin: -1.203e-03  cgtest:  9.726e-03  t[s]:      7.68
	FillingsUpdate:  mu: +0.351496304  nElectrons: 3.000000  magneticMoment: [ Abs: 0.16433  Tot: -0.16000 ]
LCAOMinimize: Iter:   2  F: -1.2887991723591903  |grad|_K:  5.305e-09  alpha:  9.973e-01  linmin: -1.224e-02  cgtest:  4.304e-01  t[s]:      9.72
LCAOMinimize: Encountered beta<0, resetting CG.
LCAOMinimize: Converged (|Delta F|<1.000000e-06 for 2 iters).


---- Citations for features of the code used in this run ----

   Software package:
      R. Sundararaman, K. Letchworth-Weaver, K.A. Schwarz, D. Gunceler, Y. Ozhabes and T.A. Arias, 'JDFTx: software for joint density-functional theory', SoftwareX 6, 278 (2017)

   gga-PBE exchange-correlation functional:
      J.P. Perdew, K. Burke and M. Ernzerhof, Phys. Rev. Lett. 77, 3865 (1996)

   Pseudopotentials:
      M Schlipf and F Gygi, Comput. Phys. Commun. 196, 36 (2015)

   Truncated Coulomb potentials:
      R. Sundararaman and T.A. Arias, Phys. Rev. B 87, 165122 (2013)

This list may not be complete. Please suggest additional citations or
report any other bugs at https://github.com/shankar1729/jdftx/issues

Initialization completed successfully at t[s]:      9.81


-------- Electronic minimization -----------
Will mix electronic density at each iteration.
	FillingsUpdate:  mu: +0.351496304  nElectrons: 3.000000  magneticMoment: [ Abs: 0.16433  Tot: -0.16000 ]
	FillingsUpdate:  mu: -0.693965356  nElectrons: 3.000000  magneticMoment: [ Abs: 0.16433  Tot: -0.16000 ]
SCF: Cycle:  0   F: -6.869738515637114   dF: -5.581e+00   |Residual|: 1.224e+00   |deigs|: 4.156e+00  t[s]:     13.28
	FillingsUpdate:  mu: -0.578674349  nElectrons: 3.000000  magneticMoment: [ Abs: 0.25180  Tot: -0.16000 ]
SCF: Cycle:  1   F: -6.915124571258887   dF: -4.539e-02   |Residual|: 7.611e-01   |deigs|: 2.722e-01  t[s]:     16.09
	FillingsUpdate:  mu: -0.327728791  nElectrons: 3.000000  magneticMoment: [ Abs: 0.34801  Tot: -0.16000 ]
SCF: Cycle:  2   F: -7.039551161896905   dF: -1.244e-01   |Residual|: 3.275e-01   |deigs|: 7.153e-01  t[s]:     18.89
	FillingsUpdate:  mu: -0.357098772  nElectrons: 3.000000  magneticMoment: [ Abs: 0.36243  Tot: -0.16000 ]
SCF: Cycle:  3   F: -7.041424965230166   dF: -1.874e-03   |Residual|: 1.825e-01   |deigs|: 8.251e-02  t[s]:     21.77
	FillingsUpdate:  mu: -0.331382896  nElectrons: 3.000000  magneticMoment: [ Abs: 0.40442  Tot: -0.16000 ]
SCF: Cycle:  4   F: -7.039434220835802   dF: +1.991e-03   |Residual|: 6.809e-02   |deigs|: 2.352e-02  t[s]:     24.70
	FillingsUpdate:  mu: -0.313231146  nElectrons: 3.000000  magneticMoment: [ Abs: 0.37719  Tot: -0.16000 ]
SCF: Cycle:  5   F: -7.039146402655076   dF: +2.878e-04   |Residual|: 1.271e-01   |deigs|: 1.694e-02  t[s]:     27.67
	FillingsUpdate:  mu: -0.277627028  nElectrons: 3.000000  magneticMoment: [ Abs: 0.23597  Tot: -0.16000 ]
SCF: Cycle:  6   F: -7.042739748608883   dF: -3.593e-03   |Residual|: 2.635e-02   |deigs|: 7.990e-02  t[s]:     30.72
	FillingsUpdate:  mu: -0.243324716  nElectrons: 3.000000  magneticMoment: [ Abs: 0.20079  Tot: -0.16000 ]
SCF: Cycle:  7   F: -7.044347095424120   dF: -1.607e-03   |Residual|: 1.658e-01   |deigs|: 9.323e-02  t[s]:     33.88
	FillingsUpdate:  mu: -0.244133640  nElectrons: 3.000000  magneticMoment: [ Abs: 0.17864  Tot: -0.16000 ]
SCF: Cycle:  8   F: -7.044777894841459   dF: -4.308e-04   |Residual|: 1.044e-01   |deigs|: 2.361e-02  t[s]:     37.10
	FillingsUpdate:  mu: -0.232587643  nElectrons: 3.000000  magneticMoment: [ Abs: 0.29802  Tot: -0.16000 ]
SCF: Cycle:  9   F: -7.043803724538777   dF: +9.742e-04   |Residual|: 2.234e-01   |deigs|: 1.259e-01  t[s]:     40.35
	FillingsUpdate:  mu: -0.203758462  nElectrons: 3.000000  magneticMoment: [ Abs: 0.28813  Tot: -0.16000 ]
SCF: Cycle: 10   F: -7.045035178739428   dF: -1.231e-03   |Residual|: 1.480e-01   |deigs|: 4.325e-02  t[s]:     43.69
	FillingsUpdate:  mu: -0.168545363  nElectrons: 3.000000  magneticMoment: [ Abs: 0.28551  Tot: -0.16000 ]
SCF: Cycle: 11   F: -7.046699731758855   dF: -1.665e-03   |Residual|: 4.421e-02   |deigs|: 9.932e-02  t[s]:     46.98
	FillingsUpdate:  mu: -0.159651105  nElectrons: 3.000000  magneticMoment: [ Abs: 0.22997  Tot: -0.16000 ]
SCF: Cycle: 12   F: -7.047160481007377   dF: -4.607e-04   |Residual|: 1.176e-02   |deigs|: 1.451e-02  t[s]:     50.33
	FillingsUpdate:  mu: -0.137262446  nElectrons: 3.000000  magneticMoment: [ Abs: 0.23915  Tot: -0.16000 ]
SCF: Cycle: 13   F: -7.047198027784895   dF: -3.755e-05   |Residual|: 8.645e-03   |deigs|: 2.669e-02  t[s]:     53.67
	FillingsUpdate:  mu: -0.130903605  nElectrons: 3.000000  magneticMoment: [ Abs: 0.22693  Tot: -0.16000 ]
SCF: Cycle: 14   F: -7.047234132045233   dF: -3.610e-05   |Residual|: 6.787e-03   |deigs|: 5.399e-03  t[s]:     56.89
	FillingsUpdate:  mu: -0.122957641  nElectrons: 3.000000  magneticMoment: [ Abs: 0.21388  Tot: -0.16000 ]
SCF: Cycle: 15   F: -7.047273021829757   dF: -3.889e-05   |Residual|: 5.548e-03   |deigs|: 7.407e-03  t[s]:     60.22
	FillingsUpdate:  mu: -0.114427451  nElectrons: 3.000000  magneticMoment: [ Abs: 0.20090  Tot: -0.16000 ]
SCF: Cycle: 16   F: -7.047367705153410   dF: -9.468e-05   |Residual|: 4.184e-03   |deigs|: 9.782e-03  t[s]:     63.48
	FillingsUpdate:  mu: -0.107528879  nElectrons: 3.000000  magneticMoment: [ Abs: 0.18729  Tot: -0.16000 ]
SCF: Cycle: 17   F: -7.047496084143408   dF: -1.284e-04   |Residual|: 2.715e-03   |deigs|: 8.402e-03  t[s]:     66.84
	FillingsUpdate:  mu: -0.106722156  nElectrons: 3.000000  magneticMoment: [ Abs: 0.17758  Tot: -0.16000 ]
SCF: Cycle: 18   F: -7.047556859290649   dF: -6.078e-05   |Residual|: 1.865e-03   |deigs|: 9.612e-04  t[s]:     70.13
	FillingsUpdate:  mu: -0.106758678  nElectrons: 3.000000  magneticMoment: [ Abs: 0.17533  Tot: -0.16000 ]
SCF: Cycle: 19   F: -7.047595300393905   dF: -3.844e-05   |Residual|: 1.154e-03   |deigs|: 6.997e-04  t[s]:     73.41
	FillingsUpdate:  mu: -0.107434251  nElectrons: 3.000000  magneticMoment: [ Abs: 0.16922  Tot: -0.16000 ]
SCF: Cycle: 20   F: -7.047608204291273   dF: -1.290e-05   |Residual|: 6.333e-04   |deigs|: 9.129e-04  t[s]:     76.73
	FillingsUpdate:  mu: -0.107685147  nElectrons: 3.000000  magneticMoment: [ Abs: 0.16608  Tot: -0.16000 ]
SCF: Cycle: 21   F: -7.047613742257044   dF: -5.538e-06   |Residual|: 4.161e-04   |deigs|: 2.893e-04  t[s]:     80.03
	FillingsUpdate:  mu: -0.107464916  nElectrons: 3.000000  magneticMoment: [ Abs: 0.16449  Tot: -0.16000 ]
SCF: Cycle: 22   F: -7.047616541784803   dF: -2.800e-06   |Residual|: 2.100e-04   |deigs|: 2.867e-04  t[s]:     83.35
	FillingsUpdate:  mu: -0.107346907  nElectrons: 3.000000  magneticMoment: [ Abs: 0.16376  Tot: -0.16000 ]
SCF: Cycle: 23   F: -7.047617352063631   dF: -8.103e-07   |Residual|: 1.213e-04   |deigs|: 1.753e-04  t[s]:     86.62
	FillingsUpdate:  mu: -0.107254320  nElectrons: 3.000000  magneticMoment: [ Abs: 0.16308  Tot: -0.16000 ]
SCF: Cycle: 24   F: -7.047617498648578   dF: -1.466e-07   |Residual|: 9.436e-05   |deigs|: 1.359e-04  t[s]:     89.93
	FillingsUpdate:  mu: -0.107143758  nElectrons: 3.000000  magneticMoment: [ Abs: 0.16249  Tot: -0.16000 ]
SCF: Cycle: 25   F: -7.047617638839413   dF: -1.402e-07   |Residual|: 6.410e-05   |deigs|: 1.369e-04  t[s]:     93.24
	FillingsUpdate:  mu: -0.107099522  nElectrons: 3.000000  magneticMoment: [ Abs: 0.16191  Tot: -0.16000 ]
SCF: Cycle: 26   F: -7.047617698159107   dF: -5.932e-08   |Residual|: 4.988e-05   |deigs|: 8.960e-05  t[s]:     96.61
	FillingsUpdate:  mu: -0.107069872  nElectrons: 3.000000  magneticMoment: [ Abs: 0.16123  Tot: -0.16000 ]
SCF: Cycle: 27   F: -7.047617654362747   dF: +4.380e-08   |Residual|: 3.869e-05   |deigs|: 8.461e-05  t[s]:     99.95
	FillingsUpdate:  mu: -0.107095746  nElectrons: 3.000000  magneticMoment: [ Abs: 0.16083  Tot: -0.16000 ]
SCF: Cycle: 28   F: -7.047617711907945   dF: -5.755e-08   |Residual|: 3.182e-05   |deigs|: 9.067e-05  t[s]:    103.28
	FillingsUpdate:  mu: -0.107134283  nElectrons: 3.000000  magneticMoment: [ Abs: 0.16040  Tot: -0.16000 ]
SCF: Cycle: 29   F: -7.047617705996099   dF: +5.912e-09   |Residual|: 2.549e-05   |deigs|: 9.059e-05  t[s]:    106.53
	FillingsUpdate:  mu: -0.107163120  nElectrons: 3.000000  magneticMoment: [ Abs: 0.16024  Tot: -0.16000 ]
SCF: Cycle: 30   F: -7.047617748926652   dF: -4.293e-08   |Residual|: 1.976e-05   |deigs|: 7.437e-05  t[s]:    109.84
	FillingsUpdate:  mu: -0.107190880  nElectrons: 3.000000  magneticMoment: [ Abs: 0.16006  Tot: -0.16000 ]
SCF: Cycle: 31   F: -7.047617748202108   dF: +7.245e-10   |Residual|: 1.549e-05   |deigs|: 6.184e-05  t[s]:    113.11
	FillingsUpdate:  mu: -0.107205968  nElectrons: 3.000000  magneticMoment: [ Abs: 0.16002  Tot: -0.16000 ]
SCF: Cycle: 32   F: -7.047617766138553   dF: -1.794e-08   |Residual|: 1.148e-05   |deigs|: 4.640e-05  t[s]:    116.38
	FillingsUpdate:  mu: -0.107211658  nElectrons: 3.000000  magneticMoment: [ Abs: 0.16001  Tot: -0.16000 ]
SCF: Cycle: 33   F: -7.047617764672758   dF: +1.466e-09   |Residual|: 8.697e-06   |deigs|: 3.445e-05  t[s]:    119.70
	FillingsUpdate:  mu: -0.107213360  nElectrons: 3.000000  magneticMoment: [ Abs: 0.16000  Tot: -0.16000 ]
SCF: Cycle: 34   F: -7.047617769824667   dF: -5.152e-09   |Residual|: 6.955e-06   |deigs|: 2.529e-05  t[s]:    123.04
	FillingsUpdate:  mu: -0.107213043  nElectrons: 3.000000  magneticMoment: [ Abs: 0.16001  Tot: -0.16000 ]
SCF: Cycle: 35   F: -7.047617769211540   dF: +6.131e-10   |Residual|: 5.407e-06   |deigs|: 1.843e-05  t[s]:    126.37
	FillingsUpdate:  mu: -0.107210611  nElectrons: 3.000000  magneticMoment: [ Abs: 0.16000  Tot: -0.16000 ]
SCF: Cycle: 36   F: -7.047617770754400   dF: -1.543e-09   |Residual|: 3.755e-06   |deigs|: 1.323e-05  t[s]:    129.82
	FillingsUpdate:  mu: -0.107209332  nElectrons: 3.000000  magneticMoment: [ Abs: 0.16000  Tot: -0.16000 ]
SCF: Cycle: 37   F: -7.047617771101248   dF: -3.468e-10   |Residual|: 2.523e-06   |deigs|: 9.738e-06  t[s]:    133.20
SCF: Converged (|Delta E|<1.000000e-08 for 2 iters).


# Ionic positions in lattice coordinates:
ion Li   0.000000000000000   0.000000000000000   0.000000000000000 0

# Forces in Lattice coordinates:
force Li   0.000000000000000  -0.000000000000000   0.000000000000000 0

# Energy components:
   Eewald =       -1.3368908222468645
       EH =        2.1955283126872622
     Eloc =       -7.5338957979182277
      Enl =       -3.6006277356343448
   Epulay =       -0.0000013080581827
      Exc =       -1.5307507301750867
       KE =        4.7590207443215142
-------------------------------------
     Etot =       -7.0476173370239295
       TS =        0.0000004340773189
-------------------------------------
        F =       -7.0476177711012484

IonicMinimize: Iter:   0  F: -7.047617771101248  |grad|_K:  0.000e+00  t[s]:    133.36
IonicMinimize: Converged (|grad|_K<1.000000e-04).

#--- Lowdin population analysis ---
# oxidation-state Li +2.106
# magnetic-moments Li -0.148

End date and time: Sat Feb  5 22:56:30 2022  (Duration: 0-0:02:13.38)
Done!
