
*************** JDFTx 1.6.0 (git hash 42ebbcc2) ***************

Start date and time: Sat Feb  5 23:00:51 2022
Executable jdftx with command-line: -i Alkali.in
Running on hosts (process indices):  d-4-7-2 (0-18)
Divided in process groups (process indices):  0 (0)  1 (1)  2 (2)  3 (3)  4 (4)  5 (5)  6 (6)  7 (7)  8 (8)  9 (9)  10 (10)  11 (11)  12 (12)  13 (13)  14 (14)  15 (15)  16 (16)  17 (17)  18 (18)
Resource initialization completed at t[s]:      0.00
Run totals: 19 processes, 48 threads, 0 GPUs


Input parsed successfully to the following command list (including defaults):

basis kpoint-dependent
coords-type Lattice
core-overlap-check vector
coulomb-interaction Slab 001
davidson-band-ratio 1.1
dump End None
dump-name $INPUT.$VAR
elec-cutoff 20
elec-eigen-algo Davidson
elec-ex-corr gga-PBE
elec-initial-magnetization 0.120000 yes
elec-smearing Fermi 1e-05
electronic-minimize  \
	dirUpdateScheme      FletcherReeves \
	linminMethod         DirUpdateRecommended \
	nIterations          100 \
	history              15 \
	knormThreshold       0 \
	energyDiffThreshold  1e-08 \
	nEnergyDiff          2 \
	alphaTstart          1 \
	alphaTmin            1e-10 \
	updateTestStepSize   yes \
	alphaTreduceFactor   0.1 \
	alphaTincreaseFactor 3 \
	nAlphaAdjustMax      3 \
	wolfeEnergy          0.0001 \
	wolfeGradient        0.9 \
	fdTest               no
electronic-scf  \
	nIterations	10000 \
	energyDiffThreshold	1e-08 \
	residualThreshold	1e-07 \
	mixFraction	0.5 \
	qMetric	0.8 \
	history	10 \
	nEigSteps	2 \
	eigDiffThreshold	1e-08 \
	mixedVariable	Density \
	qKerker	0.8 \
	qKappa	-1 \
	verbose	no \
	mixFractionMag	1.5
exchange-regularization WignerSeitzTruncated
fluid None
fluid-ex-corr (null) lda-PZ
fluid-gummel-loop 10 1.000000e-05
fluid-minimize  \
	dirUpdateScheme      PolakRibiere \
	linminMethod         DirUpdateRecommended \
	nIterations          100 \
	history              15 \
	knormThreshold       0 \
	energyDiffThreshold  0 \
	nEnergyDiff          2 \
	alphaTstart          1 \
	alphaTmin            1e-10 \
	updateTestStepSize   yes \
	alphaTreduceFactor   0.1 \
	alphaTincreaseFactor 3 \
	nAlphaAdjustMax      3 \
	wolfeEnergy          0.0001 \
	wolfeGradient        0.9 \
	fdTest               no
fluid-solvent H2O 55.338 ScalarEOS \
	epsBulk 78.4 \
	pMol 0.92466 \
	epsInf 1.77 \
	Pvap 1.06736e-10 \
	sigmaBulk 4.62e-05 \
	Rvdw 2.61727 \
	Res 1.42 \
	tauNuc 343133 \
	poleEl 15 7 1
forces-output-coords Positions
ion Li   0.000000000000000   0.000000000000000   0.000000000000000 0
ion-species SG15/$ID_ONCV_PBE.upf
ion-width 0
ionic-minimize  \
	dirUpdateScheme      L-BFGS \
	linminMethod         DirUpdateRecommended \
	nIterations          0 \
	history              15 \
	knormThreshold       0.0001 \
	energyDiffThreshold  1e-06 \
	nEnergyDiff          2 \
	alphaTstart          1 \
	alphaTmin            1e-10 \
	updateTestStepSize   yes \
	alphaTreduceFactor   0.1 \
	alphaTincreaseFactor 3 \
	nAlphaAdjustMax      3 \
	wolfeEnergy          0.0001 \
	wolfeGradient        0.9 \
	fdTest               no
kpoint   0.000000000000   0.000000000000   0.000000000000  1.00000000000000
kpoint-folding 12 12 1 
latt-move-scale 1 1 1
latt-scale 3 3 1 
lattice  \
	   4.727486978767153   -2.363743489383575    0.000000000000000  \
	  -0.000000000000000    4.094123819672498    0.000000000000000  \
	   0.000000000000000    0.000000000000000   40.000000000000000 
lattice-minimize  \
	dirUpdateScheme      L-BFGS \
	linminMethod         DirUpdateRecommended \
	nIterations          0 \
	history              15 \
	knormThreshold       0 \
	energyDiffThreshold  1e-06 \
	nEnergyDiff          2 \
	alphaTstart          1 \
	alphaTmin            1e-10 \
	updateTestStepSize   yes \
	alphaTreduceFactor   0.1 \
	alphaTincreaseFactor 3 \
	nAlphaAdjustMax      3 \
	wolfeEnergy          0.0001 \
	wolfeGradient        0.9 \
	fdTest               no
lcao-params -1 1e-06 1e-05
pcm-variant GLSSA13
spintype z-spin
subspace-rotation-factor 1 yes
symmetries automatic
symmetry-threshold 0.0001



---------- Setting up symmetries ----------

Found 24 point-group symmetries of the bravais lattice
Found 24 space-group symmetries with basis
Applied RMS atom displacement 0 bohrs to make symmetries exact.

---------- Initializing the Grid ----------
R = 
[      14.1825     -7.09123            0  ]
[            0      12.2824            0  ]
[            0            0           40  ]
unit cell volume = 6967.77
G =
[   0.443025   0.255781         -0  ]
[          0   0.511561         -0  ]
[         -0         -0    0.15708  ]
Minimum fftbox size, Smin = [  60  60  164  ]
Chosen fftbox size, S = [  60  60  168  ]

---------- Exchange Correlation functional ----------
Initalized PBE GGA exchange.
Initalized PBE GGA correlation.

---------- Setting up pseudopotentials ----------
Width of ionic core gaussian charges (only for fluid interactions / plotting) set to 0

Reading pseudopotential file '/home/gridsan/aligho/DFT/build-Nov24/pseudopotentials/SG15/Li_ONCV_PBE.upf':
  'Li' pseudopotential, 'PBE' functional
  Generated using ONCVPSP code by D. R. Hamann
  Author: Martin Schlipf and Francois Gygi  Date: 150915.
  3 valence electrons, 2 orbitals, 4 projectors, 1328 radial grid points, with lMax = 1
  Transforming local potential to a uniform radial grid of dG=0.02 with 1489 points.
  Transforming nonlocal projectors to a uniform radial grid of dG=0.02 with 432 points.
    1S    l: 0   occupation:  2.0   eigenvalue: -1.905623
    2S    l: 0   occupation:  1.0   eigenvalue: -0.105624
  Transforming atomic orbitals to a uniform radial grid of dG=0.02 with 432 points.
  WARNING: large normalization error in atomic orbital 1s (integral: 0.000000).
  Core radius for overlap checks: 1.63 bohrs.
  Reading pulay file /home/gridsan/aligho/DFT/build-Nov24/pseudopotentials/SG15/Li_ONCV_PBE.pulay ... using dE_dnG = -1.230239e-02 computed for Ecut = 20.

Initialized 1 species with 1 total atoms.

Folded 1 k-points by 12x12x1 to 144 k-points.

---------- Setting up k-points, bands, fillings ----------
Reduced to 19 k-points under symmetry. 
Computing the number of bands and number of electrons
Calculating initial fillings.
nElectrons:   3.000000   nBands: 3   nStates: 38

----- Setting up reduced wavefunction bases (one per k-point) -----
average nbasis = 29766.104 , ideal nbasis = 29766.845

---------- Setting up coulomb interaction ----------
Initialized slab truncation along lattice direction 001

---------- Setting up 2D ewald sum ----------
Optimum gaussian width for ewald sums = 7.873530 bohr.
Real space sums over 289 unit cells with max indices [  8  8  0  ]
Reciprocal space sums over 81 terms with max indices [  4  4  0  ]

---------- Allocating electronic variables ----------
Initializing wave functions:  linear combination of atomic orbitals
Note: number of bands (3) exceeds available atomic orbitals (2)
Li pseudo-atom occupations:   s ( 2 1 )
	FillingsUpdate:  mu: +0.351088963  nElectrons: 3.000000  magneticMoment: [ Abs: 0.12425  Tot: +0.12000 ]
LCAOMinimize: Iter:   0  F: -1.2891481882961335  |grad|_K:  4.886e-05  alpha:  1.000e+00
	FillingsUpdate:  mu: +0.351088274  nElectrons: 3.000000  magneticMoment: [ Abs: 0.12425  Tot: +0.12000 ]
LCAOMinimize: Iter:   1  F: -1.2891486196012141  |grad|_K:  5.510e-07  alpha:  1.056e+00  linmin: -1.002e-03  cgtest:  8.851e-03  t[s]:      7.50
	FillingsUpdate:  mu: +0.351088276  nElectrons: 3.000000  magneticMoment: [ Abs: 0.12425  Tot: +0.12000 ]
LCAOMinimize: Iter:   2  F: -1.2891486196558060  |grad|_K:  3.547e-08  alpha:  1.066e+00  linmin:  2.139e-02  cgtest: -9.775e-01  t[s]:      9.51
LCAOMinimize: Converged (|Delta F|<1.000000e-06 for 2 iters).


---- Citations for features of the code used in this run ----

   Software package:
      R. Sundararaman, K. Letchworth-Weaver, K.A. Schwarz, D. Gunceler, Y. Ozhabes and T.A. Arias, 'JDFTx: software for joint density-functional theory', SoftwareX 6, 278 (2017)

   gga-PBE exchange-correlation functional:
      J.P. Perdew, K. Burke and M. Ernzerhof, Phys. Rev. Lett. 77, 3865 (1996)

   Pseudopotentials:
      M Schlipf and F Gygi, Comput. Phys. Commun. 196, 36 (2015)

   Truncated Coulomb potentials:
      R. Sundararaman and T.A. Arias, Phys. Rev. B 87, 165122 (2013)

This list may not be complete. Please suggest additional citations or
report any other bugs at https://github.com/shankar1729/jdftx/issues

Initialization completed successfully at t[s]:      9.61


-------- Electronic minimization -----------
Will mix electronic density at each iteration.
	FillingsUpdate:  mu: +0.351088276  nElectrons: 3.000000  magneticMoment: [ Abs: 0.12425  Tot: +0.12000 ]
	FillingsUpdate:  mu: -0.692102468  nElectrons: 3.000000  magneticMoment: [ Abs: 0.12425  Tot: +0.12000 ]
SCF: Cycle:  0   F: -6.868381428931736   dF: -5.579e+00   |Residual|: 1.224e+00   |deigs|: 4.156e+00  t[s]:     13.03
	FillingsUpdate:  mu: -0.577289544  nElectrons: 3.000000  magneticMoment: [ Abs: 0.20040  Tot: +0.12000 ]
SCF: Cycle:  1   F: -6.915044983887217   dF: -4.666e-02   |Residual|: 7.610e-01   |deigs|: 2.724e-01  t[s]:     15.74
	FillingsUpdate:  mu: -0.321047093  nElectrons: 3.000000  magneticMoment: [ Abs: 0.26375  Tot: +0.12000 ]
SCF: Cycle:  2   F: -7.040166777340426   dF: -1.251e-01   |Residual|: 3.265e-01   |deigs|: 7.167e-01  t[s]:     18.53
	FillingsUpdate:  mu: -0.355530414  nElectrons: 3.000000  magneticMoment: [ Abs: 0.28311  Tot: +0.12000 ]
SCF: Cycle:  3   F: -7.041599815482662   dF: -1.433e-03   |Residual|: 1.835e-01   |deigs|: 8.426e-02  t[s]:     21.33
	FillingsUpdate:  mu: -0.328896449  nElectrons: 3.000000  magneticMoment: [ Abs: 0.33526  Tot: +0.12000 ]
SCF: Cycle:  4   F: -7.038870768150263   dF: +2.729e-03   |Residual|: 9.444e-02   |deigs|: 2.618e-02  t[s]:     24.20
	FillingsUpdate:  mu: -0.316289557  nElectrons: 3.000000  magneticMoment: [ Abs: 0.30270  Tot: +0.12000 ]
SCF: Cycle:  5   F: -7.038921075574898   dF: -5.031e-05   |Residual|: 9.862e-02   |deigs|: 1.820e-02  t[s]:     27.18
	FillingsUpdate:  mu: -0.282286257  nElectrons: 3.000000  magneticMoment: [ Abs: 0.21140  Tot: +0.12000 ]
SCF: Cycle:  6   F: -7.042399107836179   dF: -3.478e-03   |Residual|: 2.826e-02   |deigs|: 7.663e-02  t[s]:     30.23
	FillingsUpdate:  mu: -0.244511083  nElectrons: 3.000000  magneticMoment: [ Abs: 0.17157  Tot: +0.12000 ]
SCF: Cycle:  7   F: -7.044342652078348   dF: -1.944e-03   |Residual|: 1.528e-01   |deigs|: 8.761e-02  t[s]:     33.30
	FillingsUpdate:  mu: -0.233326170  nElectrons: 3.000000  magneticMoment: [ Abs: 0.16315  Tot: +0.12000 ]
SCF: Cycle:  8   F: -7.045208596773720   dF: -8.659e-04   |Residual|: 8.406e-02   |deigs|: 1.804e-02  t[s]:     36.44
	FillingsUpdate:  mu: -0.236090920  nElectrons: 3.000000  magneticMoment: [ Abs: 0.26748  Tot: +0.12000 ]
SCF: Cycle:  9   F: -7.043733840430108   dF: +1.475e-03   |Residual|: 1.887e-01   |deigs|: 1.127e-01  t[s]:     39.66
	FillingsUpdate:  mu: -0.210579330  nElectrons: 3.000000  magneticMoment: [ Abs: 0.34630  Tot: +0.12000 ]
SCF: Cycle: 10   F: -7.043662240232011   dF: +7.160e-05   |Residual|: 2.348e-01   |deigs|: 2.646e-02  t[s]:     43.03
	FillingsUpdate:  mu: -0.177126945  nElectrons: 3.000000  magneticMoment: [ Abs: 0.23306  Tot: +0.12000 ]
SCF: Cycle: 11   F: -7.046495950654705   dF: -2.834e-03   |Residual|: 2.021e-02   |deigs|: 1.142e-01  t[s]:     46.28
	FillingsUpdate:  mu: -0.162832720  nElectrons: 3.000000  magneticMoment: [ Abs: 0.19652  Tot: +0.12000 ]
SCF: Cycle: 12   F: -7.046986398661637   dF: -4.904e-04   |Residual|: 1.144e-02   |deigs|: 1.558e-02  t[s]:     49.52
	FillingsUpdate:  mu: -0.141127022  nElectrons: 3.000000  magneticMoment: [ Abs: 0.18421  Tot: +0.12000 ]
SCF: Cycle: 13   F: -7.047120686023948   dF: -1.343e-04   |Residual|: 8.337e-03   |deigs|: 2.585e-02  t[s]:     52.80
	FillingsUpdate:  mu: -0.130709958  nElectrons: 3.000000  magneticMoment: [ Abs: 0.17383  Tot: +0.12000 ]
SCF: Cycle: 14   F: -7.047155177274031   dF: -3.449e-05   |Residual|: 6.977e-03   |deigs|: 9.386e-03  t[s]:     56.06
	FillingsUpdate:  mu: -0.124737842  nElectrons: 3.000000  magneticMoment: [ Abs: 0.16547  Tot: +0.12000 ]
SCF: Cycle: 15   F: -7.047182534414772   dF: -2.736e-05   |Residual|: 5.652e-03   |deigs|: 5.116e-03  t[s]:     59.34
	FillingsUpdate:  mu: -0.115170010  nElectrons: 3.000000  magneticMoment: [ Abs: 0.15278  Tot: +0.12000 ]
SCF: Cycle: 16   F: -7.047245607067677   dF: -6.307e-05   |Residual|: 4.427e-03   |deigs|: 1.007e-02  t[s]:     62.65
	FillingsUpdate:  mu: -0.108387386  nElectrons: 3.000000  magneticMoment: [ Abs: 0.14685  Tot: +0.12000 ]
SCF: Cycle: 17   F: -7.047371395224375   dF: -1.258e-04   |Residual|: 3.212e-03   |deigs|: 7.920e-03  t[s]:     66.01
	FillingsUpdate:  mu: -0.107282640  nElectrons: 3.000000  magneticMoment: [ Abs: 0.13508  Tot: +0.12000 ]
SCF: Cycle: 18   F: -7.047462016901924   dF: -9.062e-05   |Residual|: 2.065e-03   |deigs|: 1.545e-03  t[s]:     69.29
	FillingsUpdate:  mu: -0.107307286  nElectrons: 3.000000  magneticMoment: [ Abs: 0.13470  Tot: +0.12000 ]
SCF: Cycle: 19   F: -7.047499334345448   dF: -3.732e-05   |Residual|: 1.210e-03   |deigs|: 3.719e-04  t[s]:     72.56
	FillingsUpdate:  mu: -0.107670029  nElectrons: 3.000000  magneticMoment: [ Abs: 0.12774  Tot: +0.12000 ]
SCF: Cycle: 20   F: -7.047513810127756   dF: -1.448e-05   |Residual|: 8.015e-04   |deigs|: 3.281e-04  t[s]:     75.77
	FillingsUpdate:  mu: -0.107521397  nElectrons: 3.000000  magneticMoment: [ Abs: 0.12476  Tot: +0.12000 ]
SCF: Cycle: 21   F: -7.047521528822097   dF: -7.719e-06   |Residual|: 5.028e-04   |deigs|: 2.043e-04  t[s]:     78.99
	FillingsUpdate:  mu: -0.107172090  nElectrons: 3.000000  magneticMoment: [ Abs: 0.12457  Tot: +0.12000 ]
SCF: Cycle: 22   F: -7.047525076618083   dF: -3.548e-06   |Residual|: 2.645e-04   |deigs|: 4.016e-04  t[s]:     82.27
	FillingsUpdate:  mu: -0.107021034  nElectrons: 3.000000  magneticMoment: [ Abs: 0.12331  Tot: +0.12000 ]
SCF: Cycle: 23   F: -7.047526259335820   dF: -1.183e-06   |Residual|: 1.296e-04   |deigs|: 1.656e-04  t[s]:     85.58
	FillingsUpdate:  mu: -0.106875741  nElectrons: 3.000000  magneticMoment: [ Abs: 0.12246  Tot: +0.12000 ]
SCF: Cycle: 24   F: -7.047526661768893   dF: -4.024e-07   |Residual|: 8.366e-05   |deigs|: 1.548e-04  t[s]:     88.83
	FillingsUpdate:  mu: -0.106818318  nElectrons: 3.000000  magneticMoment: [ Abs: 0.12196  Tot: +0.12000 ]
SCF: Cycle: 25   F: -7.047526736220003   dF: -7.445e-08   |Residual|: 6.246e-05   |deigs|: 1.369e-04  t[s]:     92.12
	FillingsUpdate:  mu: -0.106735286  nElectrons: 3.000000  magneticMoment: [ Abs: 0.12150  Tot: +0.12000 ]
SCF: Cycle: 26   F: -7.047526782457832   dF: -4.624e-08   |Residual|: 4.408e-05   |deigs|: 1.417e-04  t[s]:     95.43
	FillingsUpdate:  mu: -0.106718308  nElectrons: 3.000000  magneticMoment: [ Abs: 0.12126  Tot: +0.12000 ]
SCF: Cycle: 27   F: -7.047526807241760   dF: -2.478e-08   |Residual|: 3.577e-05   |deigs|: 9.538e-05  t[s]:     98.72
	FillingsUpdate:  mu: -0.106727469  nElectrons: 3.000000  magneticMoment: [ Abs: 0.12077  Tot: +0.12000 ]
SCF: Cycle: 28   F: -7.047526826383995   dF: -1.914e-08   |Residual|: 2.879e-05   |deigs|: 7.482e-05  t[s]:    101.96
	FillingsUpdate:  mu: -0.106732243  nElectrons: 3.000000  magneticMoment: [ Abs: 0.12060  Tot: +0.12000 ]
SCF: Cycle: 29   F: -7.047526832319607   dF: -5.936e-09   |Residual|: 2.330e-05   |deigs|: 5.648e-05  t[s]:    105.24
	FillingsUpdate:  mu: -0.106735545  nElectrons: 3.000000  magneticMoment: [ Abs: 0.12030  Tot: +0.12000 ]
SCF: Cycle: 30   F: -7.047526836282569   dF: -3.963e-09   |Residual|: 1.634e-05   |deigs|: 4.051e-05  t[s]:    108.46
SCF: Converged (|Delta E|<1.000000e-08 for 2 iters).


# Ionic positions in lattice coordinates:
ion Li   0.000000000000000   0.000000000000000   0.000000000000000 0

# Forces in Lattice coordinates:
force Li  -0.000000000000000   0.000000000000000   0.000000000000000 0

# Energy components:
   Eewald =       -1.3368908222468645
       EH =        2.1951264482689492
     Eloc =       -7.5333820527550550
      Enl =       -3.6005628577408890
   Epulay =       -0.0000013080581827
      Exc =       -1.5305564740659636
       KE =        4.7587411895309106
-------------------------------------
     Etot =       -7.0475258770670948
       TS =        0.0000009592154742
-------------------------------------
        F =       -7.0475268362825689

IonicMinimize: Iter:   0  F: -7.047526836282569  |grad|_K:  0.000e+00  t[s]:    108.60
IonicMinimize: Converged (|grad|_K<1.000000e-04).

#--- Lowdin population analysis ---
# oxidation-state Li +2.106
# magnetic-moments Li +0.111

End date and time: Sat Feb  5 23:02:39 2022  (Duration: 0-0:01:48.62)
Done!
