
*************** JDFTx 1.6.0 (git hash 42ebbcc2) ***************

Start date and time: Sat Feb  5 22:53:15 2022
Executable jdftx with command-line: -i Alkali.in
Running on hosts (process indices):  d-3-7-1 (0-18)
Divided in process groups (process indices):  0 (0)  1 (1)  2 (2)  3 (3)  4 (4)  5 (5)  6 (6)  7 (7)  8 (8)  9 (9)  10 (10)  11 (11)  12 (12)  13 (13)  14 (14)  15 (15)  16 (16)  17 (17)  18 (18)
Resource initialization completed at t[s]:      0.00
Run totals: 19 processes, 48 threads, 0 GPUs


Input parsed successfully to the following command list (including defaults):

basis kpoint-dependent
coords-type Lattice
core-overlap-check vector
coulomb-interaction Slab 001
davidson-band-ratio 1.1
dump End None
dump-name $INPUT.$VAR
elec-cutoff 20
elec-eigen-algo Davidson
elec-ex-corr gga-PBE
elec-initial-magnetization -0.540000 yes
elec-smearing Fermi 1e-05
electronic-minimize  \
	dirUpdateScheme      FletcherReeves \
	linminMethod         DirUpdateRecommended \
	nIterations          100 \
	history              15 \
	knormThreshold       0 \
	energyDiffThreshold  1e-08 \
	nEnergyDiff          2 \
	alphaTstart          1 \
	alphaTmin            1e-10 \
	updateTestStepSize   yes \
	alphaTreduceFactor   0.1 \
	alphaTincreaseFactor 3 \
	nAlphaAdjustMax      3 \
	wolfeEnergy          0.0001 \
	wolfeGradient        0.9 \
	fdTest               no
electronic-scf  \
	nIterations	10000 \
	energyDiffThreshold	1e-08 \
	residualThreshold	1e-07 \
	mixFraction	0.5 \
	qMetric	0.8 \
	history	10 \
	nEigSteps	2 \
	eigDiffThreshold	1e-08 \
	mixedVariable	Density \
	qKerker	0.8 \
	qKappa	-1 \
	verbose	no \
	mixFractionMag	1.5
exchange-regularization WignerSeitzTruncated
fluid None
fluid-ex-corr (null) lda-PZ
fluid-gummel-loop 10 1.000000e-05
fluid-minimize  \
	dirUpdateScheme      PolakRibiere \
	linminMethod         DirUpdateRecommended \
	nIterations          100 \
	history              15 \
	knormThreshold       0 \
	energyDiffThreshold  0 \
	nEnergyDiff          2 \
	alphaTstart          1 \
	alphaTmin            1e-10 \
	updateTestStepSize   yes \
	alphaTreduceFactor   0.1 \
	alphaTincreaseFactor 3 \
	nAlphaAdjustMax      3 \
	wolfeEnergy          0.0001 \
	wolfeGradient        0.9 \
	fdTest               no
fluid-solvent H2O 55.338 ScalarEOS \
	epsBulk 78.4 \
	pMol 0.92466 \
	epsInf 1.77 \
	Pvap 1.06736e-10 \
	sigmaBulk 4.62e-05 \
	Rvdw 2.61727 \
	Res 1.42 \
	tauNuc 343133 \
	poleEl 15 7 1
forces-output-coords Positions
ion Li   0.000000000000000   0.000000000000000   0.000000000000000 0
ion-species SG15/$ID_ONCV_PBE.upf
ion-width 0
ionic-minimize  \
	dirUpdateScheme      L-BFGS \
	linminMethod         DirUpdateRecommended \
	nIterations          0 \
	history              15 \
	knormThreshold       0.0001 \
	energyDiffThreshold  1e-06 \
	nEnergyDiff          2 \
	alphaTstart          1 \
	alphaTmin            1e-10 \
	updateTestStepSize   yes \
	alphaTreduceFactor   0.1 \
	alphaTincreaseFactor 3 \
	nAlphaAdjustMax      3 \
	wolfeEnergy          0.0001 \
	wolfeGradient        0.9 \
	fdTest               no
kpoint   0.000000000000   0.000000000000   0.000000000000  1.00000000000000
kpoint-folding 12 12 1 
latt-move-scale 1 1 1
latt-scale 3 3 1 
lattice  \
	   4.727486978767153   -2.363743489383575    0.000000000000000  \
	  -0.000000000000000    4.094123819672498    0.000000000000000  \
	   0.000000000000000    0.000000000000000   40.000000000000000 
lattice-minimize  \
	dirUpdateScheme      L-BFGS \
	linminMethod         DirUpdateRecommended \
	nIterations          0 \
	history              15 \
	knormThreshold       0 \
	energyDiffThreshold  1e-06 \
	nEnergyDiff          2 \
	alphaTstart          1 \
	alphaTmin            1e-10 \
	updateTestStepSize   yes \
	alphaTreduceFactor   0.1 \
	alphaTincreaseFactor 3 \
	nAlphaAdjustMax      3 \
	wolfeEnergy          0.0001 \
	wolfeGradient        0.9 \
	fdTest               no
lcao-params -1 1e-06 1e-05
pcm-variant GLSSA13
spintype z-spin
subspace-rotation-factor 1 yes
symmetries automatic
symmetry-threshold 0.0001



---------- Setting up symmetries ----------

Found 24 point-group symmetries of the bravais lattice
Found 24 space-group symmetries with basis
Applied RMS atom displacement 0 bohrs to make symmetries exact.

---------- Initializing the Grid ----------
R = 
[      14.1825     -7.09123            0  ]
[            0      12.2824            0  ]
[            0            0           40  ]
unit cell volume = 6967.77
G =
[   0.443025   0.255781         -0  ]
[          0   0.511561         -0  ]
[         -0         -0    0.15708  ]
Minimum fftbox size, Smin = [  60  60  164  ]
Chosen fftbox size, S = [  60  60  168  ]

---------- Exchange Correlation functional ----------
Initalized PBE GGA exchange.
Initalized PBE GGA correlation.

---------- Setting up pseudopotentials ----------
Width of ionic core gaussian charges (only for fluid interactions / plotting) set to 0

Reading pseudopotential file '/home/gridsan/aligho/DFT/build-Nov24/pseudopotentials/SG15/Li_ONCV_PBE.upf':
  'Li' pseudopotential, 'PBE' functional
  Generated using ONCVPSP code by D. R. Hamann
  Author: Martin Schlipf and Francois Gygi  Date: 150915.
  3 valence electrons, 2 orbitals, 4 projectors, 1328 radial grid points, with lMax = 1
  Transforming local potential to a uniform radial grid of dG=0.02 with 1489 points.
  Transforming nonlocal projectors to a uniform radial grid of dG=0.02 with 432 points.
    1S    l: 0   occupation:  2.0   eigenvalue: -1.905623
    2S    l: 0   occupation:  1.0   eigenvalue: -0.105624
  Transforming atomic orbitals to a uniform radial grid of dG=0.02 with 432 points.
  WARNING: large normalization error in atomic orbital 1s (integral: 0.000000).
  Core radius for overlap checks: 1.63 bohrs.
  Reading pulay file /home/gridsan/aligho/DFT/build-Nov24/pseudopotentials/SG15/Li_ONCV_PBE.pulay ... using dE_dnG = -1.230239e-02 computed for Ecut = 20.

Initialized 1 species with 1 total atoms.

Folded 1 k-points by 12x12x1 to 144 k-points.

---------- Setting up k-points, bands, fillings ----------
Reduced to 19 k-points under symmetry. 
Computing the number of bands and number of electrons
Calculating initial fillings.
nElectrons:   3.000000   nBands: 3   nStates: 38

----- Setting up reduced wavefunction bases (one per k-point) -----
average nbasis = 29766.104 , ideal nbasis = 29766.845

---------- Setting up coulomb interaction ----------
Initialized slab truncation along lattice direction 001

---------- Setting up 2D ewald sum ----------
Optimum gaussian width for ewald sums = 7.873530 bohr.
Real space sums over 289 unit cells with max indices [  8  8  0  ]
Reciprocal space sums over 81 terms with max indices [  4  4  0  ]

---------- Allocating electronic variables ----------
Initializing wave functions:  linear combination of atomic orbitals
Note: number of bands (3) exceeds available atomic orbitals (2)
Li pseudo-atom occupations:   s ( 2 1 )
	FillingsUpdate:  mu: +0.348146311  nElectrons: 3.000000  magneticMoment: [ Abs: 0.54017  Tot: -0.54000 ]
LCAOMinimize: Iter:   0  F: -1.2851942025390433  |grad|_K:  4.814e-05  alpha:  1.000e+00
	FillingsUpdate:  mu: +0.348145758  nElectrons: 3.000000  magneticMoment: [ Abs: 0.54017  Tot: -0.54000 ]
LCAOMinimize: Iter:   1  F: -1.2851946215201082  |grad|_K:  4.696e-07  alpha:  1.057e+00  linmin: -1.159e-03  cgtest:  9.667e-03  t[s]:      7.58
	FillingsUpdate:  mu: +0.348145760  nElectrons: 3.000000  magneticMoment: [ Abs: 0.54017  Tot: -0.54000 ]
LCAOMinimize: Iter:   2  F: -1.2851946215571404  |grad|_K:  2.243e-08  alpha:  1.049e+00  linmin:  1.676e-02  cgtest: -8.340e-01  t[s]:      9.60
LCAOMinimize: Converged (|Delta F|<1.000000e-06 for 2 iters).


---- Citations for features of the code used in this run ----

   Software package:
      R. Sundararaman, K. Letchworth-Weaver, K.A. Schwarz, D. Gunceler, Y. Ozhabes and T.A. Arias, 'JDFTx: software for joint density-functional theory', SoftwareX 6, 278 (2017)

   gga-PBE exchange-correlation functional:
      J.P. Perdew, K. Burke and M. Ernzerhof, Phys. Rev. Lett. 77, 3865 (1996)

   Pseudopotentials:
      M Schlipf and F Gygi, Comput. Phys. Commun. 196, 36 (2015)

   Truncated Coulomb potentials:
      R. Sundararaman and T.A. Arias, Phys. Rev. B 87, 165122 (2013)

This list may not be complete. Please suggest additional citations or
report any other bugs at https://github.com/shankar1729/jdftx/issues

Initialization completed successfully at t[s]:      9.70


-------- Electronic minimization -----------
Will mix electronic density at each iteration.
	FillingsUpdate:  mu: +0.348145760  nElectrons: 3.000000  magneticMoment: [ Abs: 0.54017  Tot: -0.54000 ]
	FillingsUpdate:  mu: -0.694007315  nElectrons: 3.000000  magneticMoment: [ Abs: 0.54017  Tot: -0.54000 ]
SCF: Cycle:  0   F: -6.877906427136137   dF: -5.593e+00   |Residual|: 1.224e+00   |deigs|: 4.156e+00  t[s]:     13.12
	FillingsUpdate:  mu: -0.569595351  nElectrons: 3.000000  magneticMoment: [ Abs: 0.85467  Tot: -0.54000 ]
SCF: Cycle:  1   F: -6.918313307549035   dF: -4.041e-02   |Residual|: 7.632e-01   |deigs|: 2.739e-01  t[s]:     15.92
	FillingsUpdate:  mu: -0.360297447  nElectrons: 3.000000  magneticMoment: [ Abs: 1.17650  Tot: -0.54000 ]
SCF: Cycle:  2   F: -7.038511106806288   dF: -1.202e-01   |Residual|: 3.292e-01   |deigs|: 7.084e-01  t[s]:     18.72
	FillingsUpdate:  mu: -0.370202926  nElectrons: 3.000000  magneticMoment: [ Abs: 1.07416  Tot: -0.54000 ]
SCF: Cycle:  3   F: -7.040090537846841   dF: -1.579e-03   |Residual|: 1.805e-01   |deigs|: 8.119e-02  t[s]:     21.58
	FillingsUpdate:  mu: -0.325513698  nElectrons: 3.000000  magneticMoment: [ Abs: 0.92962  Tot: -0.54000 ]
SCF: Cycle:  4   F: -7.042595738772092   dF: -2.505e-03   |Residual|: 4.475e-02   |deigs|: 3.556e-02  t[s]:     24.50
	FillingsUpdate:  mu: -0.308700163  nElectrons: 3.000000  magneticMoment: [ Abs: 0.86365  Tot: -0.54000 ]
SCF: Cycle:  5   F: -7.042271452555913   dF: +3.243e-04   |Residual|: 8.982e-02   |deigs|: 1.616e-02  t[s]:     27.54
	FillingsUpdate:  mu: -0.269185859  nElectrons: 3.000000  magneticMoment: [ Abs: 0.67516  Tot: -0.54000 ]
SCF: Cycle:  6   F: -7.045208519417148   dF: -2.937e-03   |Residual|: 3.656e-02   |deigs|: 7.811e-02  t[s]:     30.62
	FillingsUpdate:  mu: -0.253611394  nElectrons: 3.000000  magneticMoment: [ Abs: 0.64577  Tot: -0.54000 ]
SCF: Cycle:  7   F: -7.046545457934083   dF: -1.337e-03   |Residual|: 7.534e-02   |deigs|: 4.784e-02  t[s]:     33.71
	FillingsUpdate:  mu: -0.254103664  nElectrons: 3.000000  magneticMoment: [ Abs: 0.60899  Tot: -0.54000 ]
SCF: Cycle:  8   F: -7.046660068440414   dF: -1.146e-04   |Residual|: 5.578e-02   |deigs|: 1.071e-02  t[s]:     36.89
	FillingsUpdate:  mu: -0.226789132  nElectrons: 3.000000  magneticMoment: [ Abs: 0.61164  Tot: -0.54000 ]
SCF: Cycle:  9   F: -7.047789972618825   dF: -1.130e-03   |Residual|: 4.923e-02   |deigs|: 3.136e-02  t[s]:     40.15
	FillingsUpdate:  mu: -0.202250835  nElectrons: 3.000000  magneticMoment: [ Abs: 0.65019  Tot: -0.54000 ]
SCF: Cycle: 10   F: -7.048215038668205   dF: -4.251e-04   |Residual|: 3.820e-02   |deigs|: 2.251e-02  t[s]:     43.51
	FillingsUpdate:  mu: -0.180800396  nElectrons: 3.000000  magneticMoment: [ Abs: 0.70306  Tot: -0.54000 ]
SCF: Cycle: 11   F: -7.048602871323670   dF: -3.878e-04   |Residual|: 1.174e-02   |deigs|: 2.540e-02  t[s]:     46.87
	FillingsUpdate:  mu: -0.168508985  nElectrons: 3.000000  magneticMoment: [ Abs: 0.70179  Tot: -0.54000 ]
SCF: Cycle: 12   F: -7.048894451469955   dF: -2.916e-04   |Residual|: 1.056e-02   |deigs|: 1.418e-02  t[s]:     50.23
	FillingsUpdate:  mu: -0.145388735  nElectrons: 3.000000  magneticMoment: [ Abs: 0.70016  Tot: -0.54000 ]
SCF: Cycle: 13   F: -7.048690747418486   dF: +2.037e-04   |Residual|: 7.795e-03   |deigs|: 2.454e-02  t[s]:     53.52
	FillingsUpdate:  mu: -0.135533167  nElectrons: 3.000000  magneticMoment: [ Abs: 0.67777  Tot: -0.54000 ]
SCF: Cycle: 14   F: -7.048685351545195   dF: +5.396e-06   |Residual|: 6.979e-03   |deigs|: 9.069e-03  t[s]:     56.80
	FillingsUpdate:  mu: -0.123329529  nElectrons: 3.000000  magneticMoment: [ Abs: 0.65048  Tot: -0.54000 ]
SCF: Cycle: 15   F: -7.048759726385093   dF: -7.437e-05   |Residual|: 6.242e-03   |deigs|: 1.277e-02  t[s]:     60.11
	FillingsUpdate:  mu: -0.115027021  nElectrons: 3.000000  magneticMoment: [ Abs: 0.61602  Tot: -0.54000 ]
SCF: Cycle: 16   F: -7.049025931369952   dF: -2.662e-04   |Residual|: 4.512e-03   |deigs|: 8.721e-03  t[s]:     63.37
	FillingsUpdate:  mu: -0.106729966  nElectrons: 3.000000  magneticMoment: [ Abs: 0.58542  Tot: -0.54000 ]
SCF: Cycle: 17   F: -7.049242780849188   dF: -2.168e-04   |Residual|: 2.961e-03   |deigs|: 9.478e-03  t[s]:     66.69
	FillingsUpdate:  mu: -0.105670941  nElectrons: 3.000000  magneticMoment: [ Abs: 0.57019  Tot: -0.54000 ]
SCF: Cycle: 18   F: -7.049319684455966   dF: -7.690e-05   |Residual|: 1.764e-03   |deigs|: 1.803e-03  t[s]:     70.05
	FillingsUpdate:  mu: -0.105412297  nElectrons: 3.000000  magneticMoment: [ Abs: 0.56079  Tot: -0.54000 ]
SCF: Cycle: 19   F: -7.049356491627679   dF: -3.681e-05   |Residual|: 1.113e-03   |deigs|: 5.107e-04  t[s]:     73.45
	FillingsUpdate:  mu: -0.105295620  nElectrons: 3.000000  magneticMoment: [ Abs: 0.55496  Tot: -0.54000 ]
SCF: Cycle: 20   F: -7.049370787694595   dF: -1.430e-05   |Residual|: 6.007e-04   |deigs|: 2.645e-04  t[s]:     76.81
	FillingsUpdate:  mu: -0.105355367  nElectrons: 3.000000  magneticMoment: [ Abs: 0.55069  Tot: -0.54000 ]
SCF: Cycle: 21   F: -7.049374904827710   dF: -4.117e-06   |Residual|: 4.037e-04   |deigs|: 1.431e-04  t[s]:     80.09
	FillingsUpdate:  mu: -0.105442461  nElectrons: 3.000000  magneticMoment: [ Abs: 0.54771  Tot: -0.54000 ]
SCF: Cycle: 22   F: -7.049376838803805   dF: -1.934e-06   |Residual|: 2.979e-04   |deigs|: 1.320e-04  t[s]:     83.37
	FillingsUpdate:  mu: -0.105504542  nElectrons: 3.000000  magneticMoment: [ Abs: 0.54518  Tot: -0.54000 ]
SCF: Cycle: 23   F: -7.049377626940989   dF: -7.881e-07   |Residual|: 2.409e-04   |deigs|: 1.203e-04  t[s]:     86.73
	FillingsUpdate:  mu: -0.105594048  nElectrons: 3.000000  magneticMoment: [ Abs: 0.54317  Tot: -0.54000 ]
SCF: Cycle: 24   F: -7.049377670264682   dF: -4.332e-08   |Residual|: 1.906e-04   |deigs|: 1.486e-04  t[s]:     90.08
	FillingsUpdate:  mu: -0.105575453  nElectrons: 3.000000  magneticMoment: [ Abs: 0.54224  Tot: -0.54000 ]
SCF: Cycle: 25   F: -7.049377890706225   dF: -2.204e-07   |Residual|: 1.569e-04   |deigs|: 1.112e-04  t[s]:     93.42
	FillingsUpdate:  mu: -0.105545881  nElectrons: 3.000000  magneticMoment: [ Abs: 0.54122  Tot: -0.54000 ]
SCF: Cycle: 26   F: -7.049378043689195   dF: -1.530e-07   |Residual|: 1.208e-04   |deigs|: 1.040e-04  t[s]:     96.72
	FillingsUpdate:  mu: -0.105465384  nElectrons: 3.000000  magneticMoment: [ Abs: 0.54045  Tot: -0.54000 ]
SCF: Cycle: 27   F: -7.049378289044128   dF: -2.454e-07   |Residual|: 6.854e-05   |deigs|: 1.222e-04  t[s]:    100.06
	FillingsUpdate:  mu: -0.105401560  nElectrons: 3.000000  magneticMoment: [ Abs: 0.54015  Tot: -0.54000 ]
SCF: Cycle: 28   F: -7.049378382006652   dF: -9.296e-08   |Residual|: 4.248e-05   |deigs|: 1.102e-04  t[s]:    103.36
	FillingsUpdate:  mu: -0.105366216  nElectrons: 3.000000  magneticMoment: [ Abs: 0.54003  Tot: -0.54000 ]
SCF: Cycle: 29   F: -7.049378412430453   dF: -3.042e-08   |Residual|: 2.719e-05   |deigs|: 8.532e-05  t[s]:    106.63
	FillingsUpdate:  mu: -0.105346881  nElectrons: 3.000000  magneticMoment: [ Abs: 0.54000  Tot: -0.54000 ]
SCF: Cycle: 30   F: -7.049378427593544   dF: -1.516e-08   |Residual|: 1.904e-05   |deigs|: 6.150e-05  t[s]:    110.06
	FillingsUpdate:  mu: -0.105338102  nElectrons: 3.000000  magneticMoment: [ Abs: 0.54000  Tot: -0.54000 ]
SCF: Cycle: 31   F: -7.049378441962248   dF: -1.437e-08   |Residual|: 1.343e-05   |deigs|: 4.537e-05  t[s]:    113.40
	FillingsUpdate:  mu: -0.105337682  nElectrons: 3.000000  magneticMoment: [ Abs: 0.54000  Tot: -0.54000 ]
SCF: Cycle: 32   F: -7.049378449231672   dF: -7.269e-09   |Residual|: 9.068e-06   |deigs|: 3.342e-05  t[s]:    116.71
	FillingsUpdate:  mu: -0.105338212  nElectrons: 3.000000  magneticMoment: [ Abs: 0.54000  Tot: -0.54000 ]
SCF: Cycle: 33   F: -7.049378451212182   dF: -1.981e-09   |Residual|: 6.068e-06   |deigs|: 2.636e-05  t[s]:    120.06
SCF: Converged (|Delta E|<1.000000e-08 for 2 iters).


# Ionic positions in lattice coordinates:
ion Li   0.000000000000000   0.000000000000000   0.000000000000000 0

# Forces in Lattice coordinates:
force Li  -0.000000000000000  -0.000000000000000   0.000000000000000 0

# Energy components:
   Eewald =       -1.3368908222468645
       EH =        2.2074627773947446
     Eloc =       -7.5491844503555905
      Enl =       -3.6024862491350476
   Epulay =       -0.0000013080581827
      Exc =       -1.5360756112024450
       KE =        4.7677978598159303
-------------------------------------
     Etot =       -7.0493778037874559
       TS =        0.0000006474247266
-------------------------------------
        F =       -7.0493784512121822

IonicMinimize: Iter:   0  F: -7.049378451212182  |grad|_K:  0.000e+00  t[s]:    120.21
IonicMinimize: Converged (|grad|_K<1.000000e-04).

#--- Lowdin population analysis ---
# oxidation-state Li +2.090
# magnetic-moments Li -0.498

End date and time: Sat Feb  5 22:55:15 2022  (Duration: 0-0:02:00.23)
Done!
