
*************** JDFTx 1.6.0 (git hash 42ebbcc2) ***************

Start date and time: Sat Feb  5 22:53:39 2022
Executable jdftx with command-line: -i Alkali.in
Running on hosts (process indices):  d-4-8-2 (0-18)
Divided in process groups (process indices):  0 (0)  1 (1)  2 (2)  3 (3)  4 (4)  5 (5)  6 (6)  7 (7)  8 (8)  9 (9)  10 (10)  11 (11)  12 (12)  13 (13)  14 (14)  15 (15)  16 (16)  17 (17)  18 (18)
Resource initialization completed at t[s]:      0.00
Run totals: 19 processes, 48 threads, 0 GPUs


Input parsed successfully to the following command list (including defaults):

basis kpoint-dependent
coords-type Lattice
core-overlap-check vector
coulomb-interaction Slab 001
davidson-band-ratio 1.1
dump End None
dump-name $INPUT.$VAR
elec-cutoff 20
elec-eigen-algo Davidson
elec-ex-corr gga-PBE
elec-initial-magnetization -0.460000 yes
elec-smearing Fermi 1e-05
electronic-minimize  \
	dirUpdateScheme      FletcherReeves \
	linminMethod         DirUpdateRecommended \
	nIterations          100 \
	history              15 \
	knormThreshold       0 \
	energyDiffThreshold  1e-08 \
	nEnergyDiff          2 \
	alphaTstart          1 \
	alphaTmin            1e-10 \
	updateTestStepSize   yes \
	alphaTreduceFactor   0.1 \
	alphaTincreaseFactor 3 \
	nAlphaAdjustMax      3 \
	wolfeEnergy          0.0001 \
	wolfeGradient        0.9 \
	fdTest               no
electronic-scf  \
	nIterations	10000 \
	energyDiffThreshold	1e-08 \
	residualThreshold	1e-07 \
	mixFraction	0.5 \
	qMetric	0.8 \
	history	10 \
	nEigSteps	2 \
	eigDiffThreshold	1e-08 \
	mixedVariable	Density \
	qKerker	0.8 \
	qKappa	-1 \
	verbose	no \
	mixFractionMag	1.5
exchange-regularization WignerSeitzTruncated
fluid None
fluid-ex-corr (null) lda-PZ
fluid-gummel-loop 10 1.000000e-05
fluid-minimize  \
	dirUpdateScheme      PolakRibiere \
	linminMethod         DirUpdateRecommended \
	nIterations          100 \
	history              15 \
	knormThreshold       0 \
	energyDiffThreshold  0 \
	nEnergyDiff          2 \
	alphaTstart          1 \
	alphaTmin            1e-10 \
	updateTestStepSize   yes \
	alphaTreduceFactor   0.1 \
	alphaTincreaseFactor 3 \
	nAlphaAdjustMax      3 \
	wolfeEnergy          0.0001 \
	wolfeGradient        0.9 \
	fdTest               no
fluid-solvent H2O 55.338 ScalarEOS \
	epsBulk 78.4 \
	pMol 0.92466 \
	epsInf 1.77 \
	Pvap 1.06736e-10 \
	sigmaBulk 4.62e-05 \
	Rvdw 2.61727 \
	Res 1.42 \
	tauNuc 343133 \
	poleEl 15 7 1
forces-output-coords Positions
ion Li   0.000000000000000   0.000000000000000   0.000000000000000 0
ion-species SG15/$ID_ONCV_PBE.upf
ion-width 0
ionic-minimize  \
	dirUpdateScheme      L-BFGS \
	linminMethod         DirUpdateRecommended \
	nIterations          0 \
	history              15 \
	knormThreshold       0.0001 \
	energyDiffThreshold  1e-06 \
	nEnergyDiff          2 \
	alphaTstart          1 \
	alphaTmin            1e-10 \
	updateTestStepSize   yes \
	alphaTreduceFactor   0.1 \
	alphaTincreaseFactor 3 \
	nAlphaAdjustMax      3 \
	wolfeEnergy          0.0001 \
	wolfeGradient        0.9 \
	fdTest               no
kpoint   0.000000000000   0.000000000000   0.000000000000  1.00000000000000
kpoint-folding 12 12 1 
latt-move-scale 1 1 1
latt-scale 3 3 1 
lattice  \
	   4.727486978767153   -2.363743489383575    0.000000000000000  \
	  -0.000000000000000    4.094123819672498    0.000000000000000  \
	   0.000000000000000    0.000000000000000   40.000000000000000 
lattice-minimize  \
	dirUpdateScheme      L-BFGS \
	linminMethod         DirUpdateRecommended \
	nIterations          0 \
	history              15 \
	knormThreshold       0 \
	energyDiffThreshold  1e-06 \
	nEnergyDiff          2 \
	alphaTstart          1 \
	alphaTmin            1e-10 \
	updateTestStepSize   yes \
	alphaTreduceFactor   0.1 \
	alphaTincreaseFactor 3 \
	nAlphaAdjustMax      3 \
	wolfeEnergy          0.0001 \
	wolfeGradient        0.9 \
	fdTest               no
lcao-params -1 1e-06 1e-05
pcm-variant GLSSA13
spintype z-spin
subspace-rotation-factor 1 yes
symmetries automatic
symmetry-threshold 0.0001



---------- Setting up symmetries ----------

Found 24 point-group symmetries of the bravais lattice
Found 24 space-group symmetries with basis
Applied RMS atom displacement 0 bohrs to make symmetries exact.

---------- Initializing the Grid ----------
R = 
[      14.1825     -7.09123            0  ]
[            0      12.2824            0  ]
[            0            0           40  ]
unit cell volume = 6967.77
G =
[   0.443025   0.255781         -0  ]
[          0   0.511561         -0  ]
[         -0         -0    0.15708  ]
Minimum fftbox size, Smin = [  60  60  164  ]
Chosen fftbox size, S = [  60  60  168  ]

---------- Exchange Correlation functional ----------
Initalized PBE GGA exchange.
Initalized PBE GGA correlation.

---------- Setting up pseudopotentials ----------
Width of ionic core gaussian charges (only for fluid interactions / plotting) set to 0

Reading pseudopotential file '/home/gridsan/aligho/DFT/build-Nov24/pseudopotentials/SG15/Li_ONCV_PBE.upf':
  'Li' pseudopotential, 'PBE' functional
  Generated using ONCVPSP code by D. R. Hamann
  Author: Martin Schlipf and Francois Gygi  Date: 150915.
  3 valence electrons, 2 orbitals, 4 projectors, 1328 radial grid points, with lMax = 1
  Transforming local potential to a uniform radial grid of dG=0.02 with 1489 points.
  Transforming nonlocal projectors to a uniform radial grid of dG=0.02 with 432 points.
    1S    l: 0   occupation:  2.0   eigenvalue: -1.905623
    2S    l: 0   occupation:  1.0   eigenvalue: -0.105624
  Transforming atomic orbitals to a uniform radial grid of dG=0.02 with 432 points.
  WARNING: large normalization error in atomic orbital 1s (integral: 0.000000).
  Core radius for overlap checks: 1.63 bohrs.
  Reading pulay file /home/gridsan/aligho/DFT/build-Nov24/pseudopotentials/SG15/Li_ONCV_PBE.pulay ... using dE_dnG = -1.230239e-02 computed for Ecut = 20.

Initialized 1 species with 1 total atoms.

Folded 1 k-points by 12x12x1 to 144 k-points.

---------- Setting up k-points, bands, fillings ----------
Reduced to 19 k-points under symmetry. 
Computing the number of bands and number of electrons
Calculating initial fillings.
nElectrons:   3.000000   nBands: 3   nStates: 38

----- Setting up reduced wavefunction bases (one per k-point) -----
average nbasis = 29766.104 , ideal nbasis = 29766.845

---------- Setting up coulomb interaction ----------
Initialized slab truncation along lattice direction 001

---------- Setting up 2D ewald sum ----------
Optimum gaussian width for ewald sums = 7.873530 bohr.
Real space sums over 289 unit cells with max indices [  8  8  0  ]
Reciprocal space sums over 81 terms with max indices [  4  4  0  ]

---------- Allocating electronic variables ----------
Initializing wave functions:  linear combination of atomic orbitals
Note: number of bands (3) exceeds available atomic orbitals (2)
Li pseudo-atom occupations:   s ( 2 1 )
	FillingsUpdate:  mu: +0.348192059  nElectrons: 3.000000  magneticMoment: [ Abs: 0.46029  Tot: -0.46000 ]
LCAOMinimize: Iter:   0  F: -1.2865602364226620  |grad|_K:  4.903e-05  alpha:  1.000e+00
	FillingsUpdate:  mu: +0.348191309  nElectrons: 3.000000  magneticMoment: [ Abs: 0.46029  Tot: -0.46000 ]
LCAOMinimize: Iter:   1  F: -1.2865606709942519  |grad|_K:  4.955e-07  alpha:  1.057e+00  linmin: -9.603e-04  cgtest:  9.001e-03  t[s]:      7.38
	FillingsUpdate:  mu: +0.348191310  nElectrons: 3.000000  magneticMoment: [ Abs: 0.46029  Tot: -0.46000 ]
LCAOMinimize: Iter:   2  F: -1.2865606710363071  |grad|_K:  2.649e-08  alpha:  1.055e+00  linmin:  1.722e-02  cgtest: -9.345e-01  t[s]:      9.41
LCAOMinimize: Converged (|Delta F|<1.000000e-06 for 2 iters).


---- Citations for features of the code used in this run ----

   Software package:
      R. Sundararaman, K. Letchworth-Weaver, K.A. Schwarz, D. Gunceler, Y. Ozhabes and T.A. Arias, 'JDFTx: software for joint density-functional theory', SoftwareX 6, 278 (2017)

   gga-PBE exchange-correlation functional:
      J.P. Perdew, K. Burke and M. Ernzerhof, Phys. Rev. Lett. 77, 3865 (1996)

   Pseudopotentials:
      M Schlipf and F Gygi, Comput. Phys. Commun. 196, 36 (2015)

   Truncated Coulomb potentials:
      R. Sundararaman and T.A. Arias, Phys. Rev. B 87, 165122 (2013)

This list may not be complete. Please suggest additional citations or
report any other bugs at https://github.com/shankar1729/jdftx/issues

Initialization completed successfully at t[s]:      9.50


-------- Electronic minimization -----------
Will mix electronic density at each iteration.
	FillingsUpdate:  mu: +0.348191310  nElectrons: 3.000000  magneticMoment: [ Abs: 0.46029  Tot: -0.46000 ]
	FillingsUpdate:  mu: -0.693016888  nElectrons: 3.000000  magneticMoment: [ Abs: 0.46029  Tot: -0.46000 ]
SCF: Cycle:  0   F: -6.875580802137355   dF: -5.589e+00   |Residual|: 1.225e+00   |deigs|: 4.156e+00  t[s]:     12.91
	FillingsUpdate:  mu: -0.570850952  nElectrons: 3.000000  magneticMoment: [ Abs: 0.72922  Tot: -0.46000 ]
SCF: Cycle:  1   F: -6.917761639600799   dF: -4.218e-02   |Residual|: 7.628e-01   |deigs|: 2.738e-01  t[s]:     15.59
	FillingsUpdate:  mu: -0.353077751  nElectrons: 3.000000  magneticMoment: [ Abs: 1.00267  Tot: -0.46000 ]
SCF: Cycle:  2   F: -7.038688924090458   dF: -1.209e-01   |Residual|: 3.291e-01   |deigs|: 7.093e-01  t[s]:     18.38
	FillingsUpdate:  mu: -0.365143939  nElectrons: 3.000000  magneticMoment: [ Abs: 0.92752  Tot: -0.46000 ]
SCF: Cycle:  3   F: -7.040279792639772   dF: -1.591e-03   |Residual|: 1.836e-01   |deigs|: 7.954e-02  t[s]:     21.22
	FillingsUpdate:  mu: -0.323399903  nElectrons: 3.000000  magneticMoment: [ Abs: 0.83219  Tot: -0.46000 ]
SCF: Cycle:  4   F: -7.041980348351617   dF: -1.701e-03   |Residual|: 4.854e-02   |deigs|: 3.268e-02  t[s]:     24.15
	FillingsUpdate:  mu: -0.307315929  nElectrons: 3.000000  magneticMoment: [ Abs: 0.77163  Tot: -0.46000 ]
SCF: Cycle:  5   F: -7.041399720099269   dF: +5.806e-04   |Residual|: 9.805e-02   |deigs|: 1.563e-02  t[s]:     27.10
	FillingsUpdate:  mu: -0.260287786  nElectrons: 3.000000  magneticMoment: [ Abs: 0.59128  Tot: -0.46000 ]
SCF: Cycle:  6   F: -7.045185561013414   dF: -3.786e-03   |Residual|: 3.666e-02   |deigs|: 9.341e-02  t[s]:     30.11
	FillingsUpdate:  mu: -0.246057415  nElectrons: 3.000000  magneticMoment: [ Abs: 0.56199  Tot: -0.46000 ]
SCF: Cycle:  7   F: -7.046146991114845   dF: -9.614e-04   |Residual|: 9.918e-02   |deigs|: 5.114e-02  t[s]:     33.24
	FillingsUpdate:  mu: -0.249901590  nElectrons: 3.000000  magneticMoment: [ Abs: 0.52718  Tot: -0.46000 ]
SCF: Cycle:  8   F: -7.046104731424347   dF: +4.226e-05   |Residual|: 7.102e-02   |deigs|: 1.691e-02  t[s]:     36.36
	FillingsUpdate:  mu: -0.219398572  nElectrons: 3.000000  magneticMoment: [ Abs: 0.54339  Tot: -0.46000 ]
SCF: Cycle:  9   F: -7.047163796301612   dF: -1.059e-03   |Residual|: 7.914e-02   |deigs|: 4.350e-02  t[s]:     39.56
	FillingsUpdate:  mu: -0.206718490  nElectrons: 3.000000  magneticMoment: [ Abs: 0.54216  Tot: -0.46000 ]
SCF: Cycle: 10   F: -7.047468471122707   dF: -3.047e-04   |Residual|: 4.611e-02   |deigs|: 1.493e-02  t[s]:     42.84
	FillingsUpdate:  mu: -0.176503395  nElectrons: 3.000000  magneticMoment: [ Abs: 0.60648  Tot: -0.46000 ]
SCF: Cycle: 11   F: -7.048065010254411   dF: -5.965e-04   |Residual|: 1.698e-02   |deigs|: 3.799e-02  t[s]:     46.08
	FillingsUpdate:  mu: -0.167127027  nElectrons: 3.000000  magneticMoment: [ Abs: 0.60663  Tot: -0.46000 ]
SCF: Cycle: 12   F: -7.048344783929694   dF: -2.798e-04   |Residual|: 1.047e-02   |deigs|: 8.188e-03  t[s]:     49.34
	FillingsUpdate:  mu: -0.145796575  nElectrons: 3.000000  magneticMoment: [ Abs: 0.60181  Tot: -0.46000 ]
SCF: Cycle: 13   F: -7.048277385694087   dF: +6.740e-05   |Residual|: 8.158e-03   |deigs|: 2.172e-02  t[s]:     52.60
	FillingsUpdate:  mu: -0.132732515  nElectrons: 3.000000  magneticMoment: [ Abs: 0.58637  Tot: -0.46000 ]
SCF: Cycle: 14   F: -7.048216050329895   dF: +6.134e-05   |Residual|: 7.043e-03   |deigs|: 1.491e-02  t[s]:     55.84
	FillingsUpdate:  mu: -0.121256960  nElectrons: 3.000000  magneticMoment: [ Abs: 0.55734  Tot: -0.46000 ]
SCF: Cycle: 15   F: -7.048250945834206   dF: -3.490e-05   |Residual|: 5.784e-03   |deigs|: 1.139e-02  t[s]:     59.10
	FillingsUpdate:  mu: -0.113448381  nElectrons: 3.000000  magneticMoment: [ Abs: 0.52409  Tot: -0.46000 ]
SCF: Cycle: 16   F: -7.048508259843893   dF: -2.573e-04   |Residual|: 4.347e-03   |deigs|: 7.880e-03  t[s]:     62.34
	FillingsUpdate:  mu: -0.108345641  nElectrons: 3.000000  magneticMoment: [ Abs: 0.49850  Tot: -0.46000 ]
SCF: Cycle: 17   F: -7.048680806826274   dF: -1.725e-04   |Residual|: 2.907e-03   |deigs|: 6.137e-03  t[s]:     65.56
	FillingsUpdate:  mu: -0.105756207  nElectrons: 3.000000  magneticMoment: [ Abs: 0.48873  Tot: -0.46000 ]
SCF: Cycle: 18   F: -7.048759356307444   dF: -7.855e-05   |Residual|: 1.875e-03   |deigs|: 3.096e-03  t[s]:     68.81
	FillingsUpdate:  mu: -0.104536559  nElectrons: 3.000000  magneticMoment: [ Abs: 0.48234  Tot: -0.46000 ]
SCF: Cycle: 19   F: -7.048795764589843   dF: -3.641e-05   |Residual|: 1.127e-03   |deigs|: 1.482e-03  t[s]:     72.04
	FillingsUpdate:  mu: -0.104583663  nElectrons: 3.000000  magneticMoment: [ Abs: 0.47865  Tot: -0.46000 ]
SCF: Cycle: 20   F: -7.048812986579606   dF: -1.722e-05   |Residual|: 7.404e-04   |deigs|: 3.101e-04  t[s]:     75.30
	FillingsUpdate:  mu: -0.104505201  nElectrons: 3.000000  magneticMoment: [ Abs: 0.47476  Tot: -0.46000 ]
SCF: Cycle: 21   F: -7.048822921883225   dF: -9.935e-06   |Residual|: 4.562e-04   |deigs|: 1.667e-04  t[s]:     78.60
	FillingsUpdate:  mu: -0.104598516  nElectrons: 3.000000  magneticMoment: [ Abs: 0.47201  Tot: -0.46000 ]
SCF: Cycle: 22   F: -7.048824716900851   dF: -1.795e-06   |Residual|: 3.451e-04   |deigs|: 1.535e-04  t[s]:     81.80
	FillingsUpdate:  mu: -0.104688135  nElectrons: 3.000000  magneticMoment: [ Abs: 0.46783  Tot: -0.46000 ]
SCF: Cycle: 23   F: -7.048825518977647   dF: -8.021e-07   |Residual|: 2.280e-04   |deigs|: 1.916e-04  t[s]:     85.03
	FillingsUpdate:  mu: -0.104945742  nElectrons: 3.000000  magneticMoment: [ Abs: 0.46514  Tot: -0.46000 ]
SCF: Cycle: 24   F: -7.048825560913504   dF: -4.194e-08   |Residual|: 2.160e-04   |deigs|: 2.814e-04  t[s]:     88.28
	FillingsUpdate:  mu: -0.105223593  nElectrons: 3.000000  magneticMoment: [ Abs: 0.46294  Tot: -0.46000 ]
SCF: Cycle: 25   F: -7.048825886746863   dF: -3.258e-07   |Residual|: 1.620e-04   |deigs|: 2.890e-04  t[s]:     91.49
	FillingsUpdate:  mu: -0.105375447  nElectrons: 3.000000  magneticMoment: [ Abs: 0.46129  Tot: -0.46000 ]
SCF: Cycle: 26   F: -7.048826340854793   dF: -4.541e-07   |Residual|: 1.037e-04   |deigs|: 1.760e-04  t[s]:     94.80
	FillingsUpdate:  mu: -0.105466019  nElectrons: 3.000000  magneticMoment: [ Abs: 0.46059  Tot: -0.46000 ]
SCF: Cycle: 27   F: -7.048826455072037   dF: -1.142e-07   |Residual|: 7.038e-05   |deigs|: 1.320e-04  t[s]:     97.98
	FillingsUpdate:  mu: -0.105484108  nElectrons: 3.000000  magneticMoment: [ Abs: 0.46022  Tot: -0.46000 ]
SCF: Cycle: 28   F: -7.048826498090611   dF: -4.302e-08   |Residual|: 5.268e-05   |deigs|: 8.846e-05  t[s]:    101.20
	FillingsUpdate:  mu: -0.105502412  nElectrons: 3.000000  magneticMoment: [ Abs: 0.46009  Tot: -0.46000 ]
SCF: Cycle: 29   F: -7.048826521267805   dF: -2.318e-08   |Residual|: 3.551e-05   |deigs|: 7.221e-05  t[s]:    104.48
	FillingsUpdate:  mu: -0.105508434  nElectrons: 3.000000  magneticMoment: [ Abs: 0.46013  Tot: -0.46000 ]
SCF: Cycle: 30   F: -7.048826548437535   dF: -2.717e-08   |Residual|: 2.806e-05   |deigs|: 5.427e-05  t[s]:    107.73
	FillingsUpdate:  mu: -0.105504927  nElectrons: 3.000000  magneticMoment: [ Abs: 0.46012  Tot: -0.46000 ]
SCF: Cycle: 31   F: -7.048826535183189   dF: +1.325e-08   |Residual|: 1.994e-05   |deigs|: 4.162e-05  t[s]:    111.00
	FillingsUpdate:  mu: -0.105500912  nElectrons: 3.000000  magneticMoment: [ Abs: 0.46012  Tot: -0.46000 ]
SCF: Cycle: 32   F: -7.048826572679929   dF: -3.750e-08   |Residual|: 1.407e-05   |deigs|: 3.171e-05  t[s]:    114.25
	FillingsUpdate:  mu: -0.105494134  nElectrons: 3.000000  magneticMoment: [ Abs: 0.46008  Tot: -0.46000 ]
SCF: Cycle: 33   F: -7.048826583618022   dF: -1.094e-08   |Residual|: 9.916e-06   |deigs|: 2.451e-05  t[s]:    117.47
	FillingsUpdate:  mu: -0.105489652  nElectrons: 3.000000  magneticMoment: [ Abs: 0.46004  Tot: -0.46000 ]
SCF: Cycle: 34   F: -7.048826594904568   dF: -1.129e-08   |Residual|: 5.997e-06   |deigs|: 1.845e-05  t[s]:    120.75
	FillingsUpdate:  mu: -0.105486381  nElectrons: 3.000000  magneticMoment: [ Abs: 0.46002  Tot: -0.46000 ]
SCF: Cycle: 35   F: -7.048826596373567   dF: -1.469e-09   |Residual|: 4.589e-06   |deigs|: 1.318e-05  t[s]:    123.99
	FillingsUpdate:  mu: -0.105482707  nElectrons: 3.000000  magneticMoment: [ Abs: 0.46001  Tot: -0.46000 ]
SCF: Cycle: 36   F: -7.048826596892104   dF: -5.185e-10   |Residual|: 3.346e-06   |deigs|: 9.783e-06  t[s]:    127.22
SCF: Converged (|Delta E|<1.000000e-08 for 2 iters).


# Ionic positions in lattice coordinates:
ion Li   0.000000000000000   0.000000000000000   0.000000000000000 0

# Forces in Lattice coordinates:
force Li  -0.000000000000000   0.000000000000000   0.000000000000000 0

# Energy components:
   Eewald =       -1.3368908222468645
       EH =        2.2040911657173865
     Eloc =       -7.5448781771971385
      Enl =       -3.6019636939312920
   Epulay =       -0.0000013080581827
      Exc =       -1.5345033635777341
       KE =        4.7653204111453125
-------------------------------------
     Etot =       -7.0488257881485126
       TS =        0.0000008087435915
-------------------------------------
        F =       -7.0488265968921038

IonicMinimize: Iter:   0  F: -7.048826596892104  |grad|_K:  0.000e+00  t[s]:    127.36
IonicMinimize: Converged (|grad|_K<1.000000e-04).

#--- Lowdin population analysis ---
# oxidation-state Li +2.095
# magnetic-moments Li -0.424

End date and time: Sat Feb  5 22:55:47 2022  (Duration: 0-0:02:07.38)
Done!
