
*************** JDFTx 1.6.0 (git hash 42ebbcc2) ***************

Start date and time: Sat Feb  5 22:53:37 2022
Executable jdftx with command-line: -i Alkali.in
Running on hosts (process indices):  d-6-7-4 (0-18)
Divided in process groups (process indices):  0 (0)  1 (1)  2 (2)  3 (3)  4 (4)  5 (5)  6 (6)  7 (7)  8 (8)  9 (9)  10 (10)  11 (11)  12 (12)  13 (13)  14 (14)  15 (15)  16 (16)  17 (17)  18 (18)
Resource initialization completed at t[s]:      0.00
Run totals: 19 processes, 48 threads, 0 GPUs


Input parsed successfully to the following command list (including defaults):

basis kpoint-dependent
coords-type Lattice
core-overlap-check vector
coulomb-interaction Slab 001
davidson-band-ratio 1.1
dump End None
dump-name $INPUT.$VAR
elec-cutoff 20
elec-eigen-algo Davidson
elec-ex-corr gga-PBE
elec-initial-magnetization -0.440000 yes
elec-smearing Fermi 1e-05
electronic-minimize  \
	dirUpdateScheme      FletcherReeves \
	linminMethod         DirUpdateRecommended \
	nIterations          100 \
	history              15 \
	knormThreshold       0 \
	energyDiffThreshold  1e-08 \
	nEnergyDiff          2 \
	alphaTstart          1 \
	alphaTmin            1e-10 \
	updateTestStepSize   yes \
	alphaTreduceFactor   0.1 \
	alphaTincreaseFactor 3 \
	nAlphaAdjustMax      3 \
	wolfeEnergy          0.0001 \
	wolfeGradient        0.9 \
	fdTest               no
electronic-scf  \
	nIterations	10000 \
	energyDiffThreshold	1e-08 \
	residualThreshold	1e-07 \
	mixFraction	0.5 \
	qMetric	0.8 \
	history	10 \
	nEigSteps	2 \
	eigDiffThreshold	1e-08 \
	mixedVariable	Density \
	qKerker	0.8 \
	qKappa	-1 \
	verbose	no \
	mixFractionMag	1.5
exchange-regularization WignerSeitzTruncated
fluid None
fluid-ex-corr (null) lda-PZ
fluid-gummel-loop 10 1.000000e-05
fluid-minimize  \
	dirUpdateScheme      PolakRibiere \
	linminMethod         DirUpdateRecommended \
	nIterations          100 \
	history              15 \
	knormThreshold       0 \
	energyDiffThreshold  0 \
	nEnergyDiff          2 \
	alphaTstart          1 \
	alphaTmin            1e-10 \
	updateTestStepSize   yes \
	alphaTreduceFactor   0.1 \
	alphaTincreaseFactor 3 \
	nAlphaAdjustMax      3 \
	wolfeEnergy          0.0001 \
	wolfeGradient        0.9 \
	fdTest               no
fluid-solvent H2O 55.338 ScalarEOS \
	epsBulk 78.4 \
	pMol 0.92466 \
	epsInf 1.77 \
	Pvap 1.06736e-10 \
	sigmaBulk 4.62e-05 \
	Rvdw 2.61727 \
	Res 1.42 \
	tauNuc 343133 \
	poleEl 15 7 1
forces-output-coords Positions
ion Li   0.000000000000000   0.000000000000000   0.000000000000000 0
ion-species SG15/$ID_ONCV_PBE.upf
ion-width 0
ionic-minimize  \
	dirUpdateScheme      L-BFGS \
	linminMethod         DirUpdateRecommended \
	nIterations          0 \
	history              15 \
	knormThreshold       0.0001 \
	energyDiffThreshold  1e-06 \
	nEnergyDiff          2 \
	alphaTstart          1 \
	alphaTmin            1e-10 \
	updateTestStepSize   yes \
	alphaTreduceFactor   0.1 \
	alphaTincreaseFactor 3 \
	nAlphaAdjustMax      3 \
	wolfeEnergy          0.0001 \
	wolfeGradient        0.9 \
	fdTest               no
kpoint   0.000000000000   0.000000000000   0.000000000000  1.00000000000000
kpoint-folding 12 12 1 
latt-move-scale 1 1 1
latt-scale 3 3 1 
lattice  \
	   4.727486978767153   -2.363743489383575    0.000000000000000  \
	  -0.000000000000000    4.094123819672498    0.000000000000000  \
	   0.000000000000000    0.000000000000000   40.000000000000000 
lattice-minimize  \
	dirUpdateScheme      L-BFGS \
	linminMethod         DirUpdateRecommended \
	nIterations          0 \
	history              15 \
	knormThreshold       0 \
	energyDiffThreshold  1e-06 \
	nEnergyDiff          2 \
	alphaTstart          1 \
	alphaTmin            1e-10 \
	updateTestStepSize   yes \
	alphaTreduceFactor   0.1 \
	alphaTincreaseFactor 3 \
	nAlphaAdjustMax      3 \
	wolfeEnergy          0.0001 \
	wolfeGradient        0.9 \
	fdTest               no
lcao-params -1 1e-06 1e-05
pcm-variant GLSSA13
spintype z-spin
subspace-rotation-factor 1 yes
symmetries automatic
symmetry-threshold 0.0001



---------- Setting up symmetries ----------

Found 24 point-group symmetries of the bravais lattice
Found 24 space-group symmetries with basis
Applied RMS atom displacement 0 bohrs to make symmetries exact.

---------- Initializing the Grid ----------
R = 
[      14.1825     -7.09123            0  ]
[            0      12.2824            0  ]
[            0            0           40  ]
unit cell volume = 6967.77
G =
[   0.443025   0.255781         -0  ]
[          0   0.511561         -0  ]
[         -0         -0    0.15708  ]
Minimum fftbox size, Smin = [  60  60  164  ]
Chosen fftbox size, S = [  60  60  168  ]

---------- Exchange Correlation functional ----------
Initalized PBE GGA exchange.
Initalized PBE GGA correlation.

---------- Setting up pseudopotentials ----------
Width of ionic core gaussian charges (only for fluid interactions / plotting) set to 0

Reading pseudopotential file '/home/gridsan/aligho/DFT/build-Nov24/pseudopotentials/SG15/Li_ONCV_PBE.upf':
  'Li' pseudopotential, 'PBE' functional
  Generated using ONCVPSP code by D. R. Hamann
  Author: Martin Schlipf and Francois Gygi  Date: 150915.
  3 valence electrons, 2 orbitals, 4 projectors, 1328 radial grid points, with lMax = 1
  Transforming local potential to a uniform radial grid of dG=0.02 with 1489 points.
  Transforming nonlocal projectors to a uniform radial grid of dG=0.02 with 432 points.
    1S    l: 0   occupation:  2.0   eigenvalue: -1.905623
    2S    l: 0   occupation:  1.0   eigenvalue: -0.105624
  Transforming atomic orbitals to a uniform radial grid of dG=0.02 with 432 points.
  WARNING: large normalization error in atomic orbital 1s (integral: 0.000000).
  Core radius for overlap checks: 1.63 bohrs.
  Reading pulay file /home/gridsan/aligho/DFT/build-Nov24/pseudopotentials/SG15/Li_ONCV_PBE.pulay ... using dE_dnG = -1.230239e-02 computed for Ecut = 20.

Initialized 1 species with 1 total atoms.

Folded 1 k-points by 12x12x1 to 144 k-points.

---------- Setting up k-points, bands, fillings ----------
Reduced to 19 k-points under symmetry. 
Computing the number of bands and number of electrons
Calculating initial fillings.
nElectrons:   3.000000   nBands: 3   nStates: 38

----- Setting up reduced wavefunction bases (one per k-point) -----
average nbasis = 29766.104 , ideal nbasis = 29766.845

---------- Setting up coulomb interaction ----------
Initialized slab truncation along lattice direction 001

---------- Setting up 2D ewald sum ----------
Optimum gaussian width for ewald sums = 7.873530 bohr.
Real space sums over 289 unit cells with max indices [  8  8  0  ]
Reciprocal space sums over 81 terms with max indices [  4  4  0  ]

---------- Allocating electronic variables ----------
Initializing wave functions:  linear combination of atomic orbitals
Note: number of bands (3) exceeds available atomic orbitals (2)
Li pseudo-atom occupations:   s ( 2 1 )
	FillingsUpdate:  mu: +0.353159863  nElectrons: 3.000000  magneticMoment: [ Abs: 0.44035  Tot: -0.44000 ]
LCAOMinimize: Iter:   0  F: -1.2867551102990886  |grad|_K:  4.891e-05  alpha:  1.000e+00
	FillingsUpdate:  mu: +0.353159332  nElectrons: 3.000000  magneticMoment: [ Abs: 0.44035  Tot: -0.44000 ]
LCAOMinimize: Iter:   1  F: -1.2867555427130357  |grad|_K:  4.919e-07  alpha:  1.057e+00  linmin: -1.077e-03  cgtest:  9.282e-03  t[s]:      7.28
	FillingsUpdate:  mu: +0.353159334  nElectrons: 3.000000  magneticMoment: [ Abs: 0.44035  Tot: -0.44000 ]
LCAOMinimize: Iter:   2  F: -1.2867555427509492  |grad|_K:  2.755e-08  alpha:  9.506e-01  linmin: -2.044e-02  cgtest:  9.557e-01  t[s]:      9.24
LCAOMinimize: Encountered beta<0, resetting CG.
LCAOMinimize: Converged (|Delta F|<1.000000e-06 for 2 iters).


---- Citations for features of the code used in this run ----

   Software package:
      R. Sundararaman, K. Letchworth-Weaver, K.A. Schwarz, D. Gunceler, Y. Ozhabes and T.A. Arias, 'JDFTx: software for joint density-functional theory', SoftwareX 6, 278 (2017)

   gga-PBE exchange-correlation functional:
      J.P. Perdew, K. Burke and M. Ernzerhof, Phys. Rev. Lett. 77, 3865 (1996)

   Pseudopotentials:
      M Schlipf and F Gygi, Comput. Phys. Commun. 196, 36 (2015)

   Truncated Coulomb potentials:
      R. Sundararaman and T.A. Arias, Phys. Rev. B 87, 165122 (2013)

This list may not be complete. Please suggest additional citations or
report any other bugs at https://github.com/shankar1729/jdftx/issues

Initialization completed successfully at t[s]:      9.33


-------- Electronic minimization -----------
Will mix electronic density at each iteration.
	FillingsUpdate:  mu: +0.353159334  nElectrons: 3.000000  magneticMoment: [ Abs: 0.44035  Tot: -0.44000 ]
	FillingsUpdate:  mu: -0.694277424  nElectrons: 3.000000  magneticMoment: [ Abs: 0.44035  Tot: -0.44000 ]
SCF: Cycle:  0   F: -6.875069198565391   dF: -5.588e+00   |Residual|: 1.225e+00   |deigs|: 4.156e+00  t[s]:     12.61
	FillingsUpdate:  mu: -0.571418456  nElectrons: 3.000000  magneticMoment: [ Abs: 0.69763  Tot: -0.44000 ]
SCF: Cycle:  1   F: -6.917603573678395   dF: -4.253e-02   |Residual|: 7.627e-01   |deigs|: 2.738e-01  t[s]:     15.28
	FillingsUpdate:  mu: -0.351628923  nElectrons: 3.000000  magneticMoment: [ Abs: 0.95893  Tot: -0.44000 ]
SCF: Cycle:  2   F: -7.038728015216641   dF: -1.211e-01   |Residual|: 3.293e-01   |deigs|: 7.098e-01  t[s]:     17.99
	FillingsUpdate:  mu: -0.364272773  nElectrons: 3.000000  magneticMoment: [ Abs: 0.89037  Tot: -0.44000 ]
SCF: Cycle:  3   F: -7.040336155386138   dF: -1.608e-03   |Residual|: 1.842e-01   |deigs|: 7.940e-02  t[s]:     20.74
	FillingsUpdate:  mu: -0.324267525  nElectrons: 3.000000  magneticMoment: [ Abs: 0.80867  Tot: -0.44000 ]
SCF: Cycle:  4   F: -7.041788203065726   dF: -1.452e-03   |Residual|: 4.952e-02   |deigs|: 3.137e-02  t[s]:     23.54
	FillingsUpdate:  mu: -0.307696054  nElectrons: 3.000000  magneticMoment: [ Abs: 0.74764  Tot: -0.44000 ]
SCF: Cycle:  5   F: -7.041189203361931   dF: +5.990e-04   |Residual|: 1.007e-01   |deigs|: 1.589e-02  t[s]:     26.41
	FillingsUpdate:  mu: -0.259329278  nElectrons: 3.000000  magneticMoment: [ Abs: 0.56896  Tot: -0.44000 ]
SCF: Cycle:  6   F: -7.045118623419731   dF: -3.929e-03   |Residual|: 3.595e-02   |deigs|: 9.665e-02  t[s]:     29.31
	FillingsUpdate:  mu: -0.244561218  nElectrons: 3.000000  magneticMoment: [ Abs: 0.54029  Tot: -0.44000 ]
SCF: Cycle:  7   F: -7.046031530505757   dF: -9.129e-04   |Residual|: 1.052e-01   |deigs|: 5.253e-02  t[s]:     32.32
	FillingsUpdate:  mu: -0.248956860  nElectrons: 3.000000  magneticMoment: [ Abs: 0.50660  Tot: -0.44000 ]
SCF: Cycle:  8   F: -7.045978501169585   dF: +5.303e-05   |Residual|: 7.610e-02   |deigs|: 1.774e-02  t[s]:     35.39
	FillingsUpdate:  mu: -0.218458328  nElectrons: 3.000000  magneticMoment: [ Abs: 0.52282  Tot: -0.44000 ]
SCF: Cycle:  9   F: -7.047023207863761   dF: -1.045e-03   |Residual|: 8.146e-02   |deigs|: 4.584e-02  t[s]:     38.49
	FillingsUpdate:  mu: -0.207096378  nElectrons: 3.000000  magneticMoment: [ Abs: 0.52007  Tot: -0.44000 ]
SCF: Cycle: 10   F: -7.047297231941188   dF: -2.740e-04   |Residual|: 5.311e-02   |deigs|: 1.269e-02  t[s]:     41.75
	FillingsUpdate:  mu: -0.176014885  nElectrons: 3.000000  magneticMoment: [ Abs: 0.58109  Tot: -0.44000 ]
SCF: Cycle: 11   F: -7.047954284257446   dF: -6.571e-04   |Residual|: 1.844e-02   |deigs|: 4.060e-02  t[s]:     44.96
	FillingsUpdate:  mu: -0.166515702  nElectrons: 3.000000  magneticMoment: [ Abs: 0.58194  Tot: -0.44000 ]
SCF: Cycle: 12   F: -7.048218914582932   dF: -2.646e-04   |Residual|: 1.077e-02   |deigs|: 8.014e-03  t[s]:     48.15
	FillingsUpdate:  mu: -0.145412487  nElectrons: 3.000000  magneticMoment: [ Abs: 0.57773  Tot: -0.44000 ]
SCF: Cycle: 13   F: -7.048178171244469   dF: +4.074e-05   |Residual|: 8.173e-03   |deigs|: 2.184e-02  t[s]:     51.34
	FillingsUpdate:  mu: -0.132361307  nElectrons: 3.000000  magneticMoment: [ Abs: 0.56258  Tot: -0.44000 ]
SCF: Cycle: 14   F: -7.048121881199346   dF: +5.629e-05   |Residual|: 7.197e-03   |deigs|: 1.498e-02  t[s]:     54.49
	FillingsUpdate:  mu: -0.120729075  nElectrons: 3.000000  magneticMoment: [ Abs: 0.53221  Tot: -0.44000 ]
SCF: Cycle: 15   F: -7.048131499781755   dF: -9.619e-06   |Residual|: 5.598e-03   |deigs|: 1.123e-02  t[s]:     57.72
	FillingsUpdate:  mu: -0.113565907  nElectrons: 3.000000  magneticMoment: [ Abs: 0.49968  Tot: -0.44000 ]
SCF: Cycle: 16   F: -7.048391631268236   dF: -2.601e-04   |Residual|: 4.341e-03   |deigs|: 7.264e-03  t[s]:     60.96
	FillingsUpdate:  mu: -0.108371787  nElectrons: 3.000000  magneticMoment: [ Abs: 0.47911  Tot: -0.44000 ]
SCF: Cycle: 17   F: -7.048554343752197   dF: -1.627e-04   |Residual|: 2.874e-03   |deigs|: 6.418e-03  t[s]:     64.18
	FillingsUpdate:  mu: -0.105965572  nElectrons: 3.000000  magneticMoment: [ Abs: 0.46862  Tot: -0.44000 ]
SCF: Cycle: 18   F: -7.048630193915639   dF: -7.585e-05   |Residual|: 1.919e-03   |deigs|: 2.951e-03  t[s]:     67.38
	FillingsUpdate:  mu: -0.104767257  nElectrons: 3.000000  magneticMoment: [ Abs: 0.46170  Tot: -0.44000 ]
SCF: Cycle: 19   F: -7.048670480364668   dF: -4.029e-05   |Residual|: 1.131e-03   |deigs|: 1.397e-03  t[s]:     70.60
	FillingsUpdate:  mu: -0.104920496  nElectrons: 3.000000  magneticMoment: [ Abs: 0.45744  Tot: -0.44000 ]
SCF: Cycle: 20   F: -7.048687228211018   dF: -1.675e-05   |Residual|: 7.016e-04   |deigs|: 4.281e-04  t[s]:     73.86
	FillingsUpdate:  mu: -0.104768927  nElectrons: 3.000000  magneticMoment: [ Abs: 0.45427  Tot: -0.44000 ]
SCF: Cycle: 21   F: -7.048695914763889   dF: -8.687e-06   |Residual|: 4.623e-04   |deigs|: 1.730e-04  t[s]:     77.02
	FillingsUpdate:  mu: -0.104796476  nElectrons: 3.000000  magneticMoment: [ Abs: 0.45196  Tot: -0.44000 ]
SCF: Cycle: 22   F: -7.048697772974281   dF: -1.858e-06   |Residual|: 3.564e-04   |deigs|: 1.228e-04  t[s]:     80.16
	FillingsUpdate:  mu: -0.104772593  nElectrons: 3.000000  magneticMoment: [ Abs: 0.44813  Tot: -0.44000 ]
SCF: Cycle: 23   F: -7.048698878279575   dF: -1.105e-06   |Residual|: 2.274e-04   |deigs|: 1.439e-04  t[s]:     83.42
	FillingsUpdate:  mu: -0.104875409  nElectrons: 3.000000  magneticMoment: [ Abs: 0.44568  Tot: -0.44000 ]
SCF: Cycle: 24   F: -7.048698968359692   dF: -9.008e-08   |Residual|: 2.039e-04   |deigs|: 1.413e-04  t[s]:     86.60
	FillingsUpdate:  mu: -0.105075398  nElectrons: 3.000000  magneticMoment: [ Abs: 0.44346  Tot: -0.44000 ]
SCF: Cycle: 25   F: -7.048699150008978   dF: -1.816e-07   |Residual|: 1.631e-04   |deigs|: 2.224e-04  t[s]:     89.76
	FillingsUpdate:  mu: -0.105233797  nElectrons: 3.000000  magneticMoment: [ Abs: 0.44152  Tot: -0.44000 ]
SCF: Cycle: 26   F: -7.048699512118159   dF: -3.621e-07   |Residual|: 1.044e-04   |deigs|: 1.832e-04  t[s]:     92.98
	FillingsUpdate:  mu: -0.105347931  nElectrons: 3.000000  magneticMoment: [ Abs: 0.44072  Tot: -0.44000 ]
SCF: Cycle: 27   F: -7.048699642683969   dF: -1.306e-07   |Residual|: 7.779e-05   |deigs|: 1.513e-04  t[s]:     96.16
	FillingsUpdate:  mu: -0.105415851  nElectrons: 3.000000  magneticMoment: [ Abs: 0.44017  Tot: -0.44000 ]
SCF: Cycle: 28   F: -7.048699725297979   dF: -8.261e-08   |Residual|: 5.322e-05   |deigs|: 1.113e-04  t[s]:     99.35
	FillingsUpdate:  mu: -0.105490490  nElectrons: 3.000000  magneticMoment: [ Abs: 0.44002  Tot: -0.44000 ]
SCF: Cycle: 29   F: -7.048699763585861   dF: -3.829e-08   |Residual|: 3.297e-05   |deigs|: 1.094e-04  t[s]:    102.63
	FillingsUpdate:  mu: -0.105537011  nElectrons: 3.000000  magneticMoment: [ Abs: 0.44005  Tot: -0.44000 ]
SCF: Cycle: 30   F: -7.048699787616624   dF: -2.403e-08   |Residual|: 2.497e-05   |deigs|: 7.440e-05  t[s]:    105.88
	FillingsUpdate:  mu: -0.105577276  nElectrons: 3.000000  magneticMoment: [ Abs: 0.44002  Tot: -0.44000 ]
SCF: Cycle: 31   F: -7.048699793077922   dF: -5.461e-09   |Residual|: 1.691e-05   |deigs|: 6.069e-05  t[s]:    109.02
	FillingsUpdate:  mu: -0.105596544  nElectrons: 3.000000  magneticMoment: [ Abs: 0.44003  Tot: -0.44000 ]
SCF: Cycle: 32   F: -7.048699809767562   dF: -1.669e-08   |Residual|: 1.012e-05   |deigs|: 3.868e-05  t[s]:    112.27
	FillingsUpdate:  mu: -0.105605724  nElectrons: 3.000000  magneticMoment: [ Abs: 0.44001  Tot: -0.44000 ]
SCF: Cycle: 33   F: -7.048699815747927   dF: -5.980e-09   |Residual|: 6.454e-06   |deigs|: 2.736e-05  t[s]:    115.48
	FillingsUpdate:  mu: -0.105611171  nElectrons: 3.000000  magneticMoment: [ Abs: 0.44000  Tot: -0.44000 ]
SCF: Cycle: 34   F: -7.048699819243662   dF: -3.496e-09   |Residual|: 4.196e-06   |deigs|: 2.034e-05  t[s]:    118.73
SCF: Converged (|Delta E|<1.000000e-08 for 2 iters).


# Ionic positions in lattice coordinates:
ion Li   0.000000000000000   0.000000000000000   0.000000000000000 0

# Forces in Lattice coordinates:
force Li  -0.000000000000000  -0.000000000000000   0.000000000000000 0

# Energy components:
   Eewald =       -1.3368908222468645
       EH =        2.2033224920352406
     Eloc =       -7.5438939345599909
      Enl =       -3.6018420457393669
   Epulay =       -0.0000013080581827
      Exc =       -1.5341490915438354
       KE =        4.7647557861183127
-------------------------------------
     Etot =       -7.0486989239946869
       TS =        0.0000008952489754
-------------------------------------
        F =       -7.0486998192436623

IonicMinimize: Iter:   0  F: -7.048699819243662  |grad|_K:  0.000e+00  t[s]:    118.87
IonicMinimize: Converged (|grad|_K<1.000000e-04).

#--- Lowdin population analysis ---
# oxidation-state Li +2.096
# magnetic-moments Li -0.406

End date and time: Sat Feb  5 22:55:36 2022  (Duration: 0-0:01:58.89)
Done!
