
*************** JDFTx 1.6.0 (git hash 42ebbcc2) ***************

Start date and time: Sat Feb  5 23:00:07 2022
Executable jdftx with command-line: -i Alkali.in
Running on hosts (process indices):  d-6-8-2 (0-18)
Divided in process groups (process indices):  0 (0)  1 (1)  2 (2)  3 (3)  4 (4)  5 (5)  6 (6)  7 (7)  8 (8)  9 (9)  10 (10)  11 (11)  12 (12)  13 (13)  14 (14)  15 (15)  16 (16)  17 (17)  18 (18)
Resource initialization completed at t[s]:      0.00
Run totals: 19 processes, 48 threads, 0 GPUs


Input parsed successfully to the following command list (including defaults):

basis kpoint-dependent
coords-type Lattice
core-overlap-check vector
coulomb-interaction Slab 001
davidson-band-ratio 1.1
dump End None
dump-name $INPUT.$VAR
elec-cutoff 20
elec-eigen-algo Davidson
elec-ex-corr gga-PBE
elec-initial-magnetization -0.060000 yes
elec-smearing Fermi 1e-05
electronic-minimize  \
	dirUpdateScheme      FletcherReeves \
	linminMethod         DirUpdateRecommended \
	nIterations          100 \
	history              15 \
	knormThreshold       0 \
	energyDiffThreshold  1e-08 \
	nEnergyDiff          2 \
	alphaTstart          1 \
	alphaTmin            1e-10 \
	updateTestStepSize   yes \
	alphaTreduceFactor   0.1 \
	alphaTincreaseFactor 3 \
	nAlphaAdjustMax      3 \
	wolfeEnergy          0.0001 \
	wolfeGradient        0.9 \
	fdTest               no
electronic-scf  \
	nIterations	10000 \
	energyDiffThreshold	1e-08 \
	residualThreshold	1e-07 \
	mixFraction	0.5 \
	qMetric	0.8 \
	history	10 \
	nEigSteps	2 \
	eigDiffThreshold	1e-08 \
	mixedVariable	Density \
	qKerker	0.8 \
	qKappa	-1 \
	verbose	no \
	mixFractionMag	1.5
exchange-regularization WignerSeitzTruncated
fluid None
fluid-ex-corr (null) lda-PZ
fluid-gummel-loop 10 1.000000e-05
fluid-minimize  \
	dirUpdateScheme      PolakRibiere \
	linminMethod         DirUpdateRecommended \
	nIterations          100 \
	history              15 \
	knormThreshold       0 \
	energyDiffThreshold  0 \
	nEnergyDiff          2 \
	alphaTstart          1 \
	alphaTmin            1e-10 \
	updateTestStepSize   yes \
	alphaTreduceFactor   0.1 \
	alphaTincreaseFactor 3 \
	nAlphaAdjustMax      3 \
	wolfeEnergy          0.0001 \
	wolfeGradient        0.9 \
	fdTest               no
fluid-solvent H2O 55.338 ScalarEOS \
	epsBulk 78.4 \
	pMol 0.92466 \
	epsInf 1.77 \
	Pvap 1.06736e-10 \
	sigmaBulk 4.62e-05 \
	Rvdw 2.61727 \
	Res 1.42 \
	tauNuc 343133 \
	poleEl 15 7 1
forces-output-coords Positions
ion Li   0.000000000000000   0.000000000000000   0.000000000000000 0
ion-species SG15/$ID_ONCV_PBE.upf
ion-width 0
ionic-minimize  \
	dirUpdateScheme      L-BFGS \
	linminMethod         DirUpdateRecommended \
	nIterations          0 \
	history              15 \
	knormThreshold       0.0001 \
	energyDiffThreshold  1e-06 \
	nEnergyDiff          2 \
	alphaTstart          1 \
	alphaTmin            1e-10 \
	updateTestStepSize   yes \
	alphaTreduceFactor   0.1 \
	alphaTincreaseFactor 3 \
	nAlphaAdjustMax      3 \
	wolfeEnergy          0.0001 \
	wolfeGradient        0.9 \
	fdTest               no
kpoint   0.000000000000   0.000000000000   0.000000000000  1.00000000000000
kpoint-folding 12 12 1 
latt-move-scale 1 1 1
latt-scale 3 3 1 
lattice  \
	   4.727486978767153   -2.363743489383575    0.000000000000000  \
	  -0.000000000000000    4.094123819672498    0.000000000000000  \
	   0.000000000000000    0.000000000000000   40.000000000000000 
lattice-minimize  \
	dirUpdateScheme      L-BFGS \
	linminMethod         DirUpdateRecommended \
	nIterations          0 \
	history              15 \
	knormThreshold       0 \
	energyDiffThreshold  1e-06 \
	nEnergyDiff          2 \
	alphaTstart          1 \
	alphaTmin            1e-10 \
	updateTestStepSize   yes \
	alphaTreduceFactor   0.1 \
	alphaTincreaseFactor 3 \
	nAlphaAdjustMax      3 \
	wolfeEnergy          0.0001 \
	wolfeGradient        0.9 \
	fdTest               no
lcao-params -1 1e-06 1e-05
pcm-variant GLSSA13
spintype z-spin
subspace-rotation-factor 1 yes
symmetries automatic
symmetry-threshold 0.0001



---------- Setting up symmetries ----------

Found 24 point-group symmetries of the bravais lattice
Found 24 space-group symmetries with basis
Applied RMS atom displacement 0 bohrs to make symmetries exact.

---------- Initializing the Grid ----------
R = 
[      14.1825     -7.09123            0  ]
[            0      12.2824            0  ]
[            0            0           40  ]
unit cell volume = 6967.77
G =
[   0.443025   0.255781         -0  ]
[          0   0.511561         -0  ]
[         -0         -0    0.15708  ]
Minimum fftbox size, Smin = [  60  60  164  ]
Chosen fftbox size, S = [  60  60  168  ]

---------- Exchange Correlation functional ----------
Initalized PBE GGA exchange.
Initalized PBE GGA correlation.

---------- Setting up pseudopotentials ----------
Width of ionic core gaussian charges (only for fluid interactions / plotting) set to 0

Reading pseudopotential file '/home/gridsan/aligho/DFT/build-Nov24/pseudopotentials/SG15/Li_ONCV_PBE.upf':
  'Li' pseudopotential, 'PBE' functional
  Generated using ONCVPSP code by D. R. Hamann
  Author: Martin Schlipf and Francois Gygi  Date: 150915.
  3 valence electrons, 2 orbitals, 4 projectors, 1328 radial grid points, with lMax = 1
  Transforming local potential to a uniform radial grid of dG=0.02 with 1489 points.
  Transforming nonlocal projectors to a uniform radial grid of dG=0.02 with 432 points.
    1S    l: 0   occupation:  2.0   eigenvalue: -1.905623
    2S    l: 0   occupation:  1.0   eigenvalue: -0.105624
  Transforming atomic orbitals to a uniform radial grid of dG=0.02 with 432 points.
  WARNING: large normalization error in atomic orbital 1s (integral: 0.000000).
  Core radius for overlap checks: 1.63 bohrs.
  Reading pulay file /home/gridsan/aligho/DFT/build-Nov24/pseudopotentials/SG15/Li_ONCV_PBE.pulay ... using dE_dnG = -1.230239e-02 computed for Ecut = 20.

Initialized 1 species with 1 total atoms.

Folded 1 k-points by 12x12x1 to 144 k-points.

---------- Setting up k-points, bands, fillings ----------
Reduced to 19 k-points under symmetry. 
Computing the number of bands and number of electrons
Calculating initial fillings.
nElectrons:   3.000000   nBands: 3   nStates: 38

----- Setting up reduced wavefunction bases (one per k-point) -----
average nbasis = 29766.104 , ideal nbasis = 29766.845

---------- Setting up coulomb interaction ----------
Initialized slab truncation along lattice direction 001

---------- Setting up 2D ewald sum ----------
Optimum gaussian width for ewald sums = 7.873530 bohr.
Real space sums over 289 unit cells with max indices [  8  8  0  ]
Reciprocal space sums over 81 terms with max indices [  4  4  0  ]

---------- Allocating electronic variables ----------
Initializing wave functions:  linear combination of atomic orbitals
Note: number of bands (3) exceeds available atomic orbitals (2)
Li pseudo-atom occupations:   s ( 2 1 )
	FillingsUpdate:  mu: +0.350803655  nElectrons: 3.000000  magneticMoment: [ Abs: 0.08720  Tot: -0.06000 ]
LCAOMinimize: Iter:   0  F: -1.2889912659754037  |grad|_K:  4.857e-05  alpha:  1.000e+00
	FillingsUpdate:  mu: +0.350803138  nElectrons: 3.000000  magneticMoment: [ Abs: 0.08719  Tot: -0.06000 ]
LCAOMinimize: Iter:   1  F: -1.2889916923300764  |grad|_K:  5.015e-07  alpha:  1.057e+00  linmin: -1.175e-03  cgtest:  9.929e-03  t[s]:      7.36
	FillingsUpdate:  mu: +0.350803137  nElectrons: 3.000000  magneticMoment: [ Abs: 0.08719  Tot: -0.06000 ]
LCAOMinimize: Iter:   2  F: -1.2889916923763591  |grad|_K:  1.182e-08  alpha:  1.023e+00  linmin:  1.886e-02  cgtest: -8.839e-01  t[s]:      9.33
LCAOMinimize: Converged (|Delta F|<1.000000e-06 for 2 iters).


---- Citations for features of the code used in this run ----

   Software package:
      R. Sundararaman, K. Letchworth-Weaver, K.A. Schwarz, D. Gunceler, Y. Ozhabes and T.A. Arias, 'JDFTx: software for joint density-functional theory', SoftwareX 6, 278 (2017)

   gga-PBE exchange-correlation functional:
      J.P. Perdew, K. Burke and M. Ernzerhof, Phys. Rev. Lett. 77, 3865 (1996)

   Pseudopotentials:
      M Schlipf and F Gygi, Comput. Phys. Commun. 196, 36 (2015)

   Truncated Coulomb potentials:
      R. Sundararaman and T.A. Arias, Phys. Rev. B 87, 165122 (2013)

This list may not be complete. Please suggest additional citations or
report any other bugs at https://github.com/shankar1729/jdftx/issues

Initialization completed successfully at t[s]:      9.42


-------- Electronic minimization -----------
Will mix electronic density at each iteration.
	FillingsUpdate:  mu: +0.350803137  nElectrons: 3.000000  magneticMoment: [ Abs: 0.08719  Tot: -0.06000 ]
	FillingsUpdate:  mu: -0.692742146  nElectrons: 3.000000  magneticMoment: [ Abs: 0.08719  Tot: -0.06000 ]
SCF: Cycle:  0   F: -6.868719350342625   dF: -5.580e+00   |Residual|: 1.224e+00   |deigs|: 4.156e+00  t[s]:     12.80
	FillingsUpdate:  mu: -0.581221242  nElectrons: 3.000000  magneticMoment: [ Abs: 0.09345  Tot: -0.06000 ]
SCF: Cycle:  1   F: -6.913865878885324   dF: -4.515e-02   |Residual|: 7.604e-01   |deigs|: 2.714e-01  t[s]:     15.47
	FillingsUpdate:  mu: -0.318811518  nElectrons: 3.000000  magneticMoment: [ Abs: 0.13517  Tot: -0.06000 ]
SCF: Cycle:  2   F: -7.041334947868587   dF: -1.275e-01   |Residual|: 3.241e-01   |deigs|: 7.184e-01  t[s]:     18.18
	FillingsUpdate:  mu: -0.360732366  nElectrons: 3.000000  magneticMoment: [ Abs: 0.14735  Tot: -0.06000 ]
SCF: Cycle:  3   F: -7.041724172512998   dF: -3.892e-04   |Residual|: 1.787e-01   |deigs|: 8.834e-02  t[s]:     21.00
	FillingsUpdate:  mu: -0.324902801  nElectrons: 3.000000  magneticMoment: [ Abs: 0.19612  Tot: -0.06000 ]
SCF: Cycle:  4   F: -7.036879993675150   dF: +4.844e-03   |Residual|: 1.235e-01   |deigs|: 3.261e-02  t[s]:     23.87
	FillingsUpdate:  mu: -0.316263216  nElectrons: 3.000000  magneticMoment: [ Abs: 0.17936  Tot: -0.06000 ]
SCF: Cycle:  5   F: -7.038121849543765   dF: -1.242e-03   |Residual|: 6.990e-02   |deigs|: 2.680e-02  t[s]:     26.77
	FillingsUpdate:  mu: -0.294125455  nElectrons: 3.000000  magneticMoment: [ Abs: 0.11548  Tot: -0.06000 ]
SCF: Cycle:  6   F: -7.041351936721146   dF: -3.230e-03   |Residual|: 2.613e-02   |deigs|: 5.380e-02  t[s]:     29.77
	FillingsUpdate:  mu: -0.224703139  nElectrons: 3.000000  magneticMoment: [ Abs: 0.16721  Tot: -0.06000 ]
SCF: Cycle:  7   F: -7.044789205026945   dF: -3.437e-03   |Residual|: 1.594e-01   |deigs|: 1.331e-01  t[s]:     32.86
	FillingsUpdate:  mu: -0.226978734  nElectrons: 3.000000  magneticMoment: [ Abs: 0.17622  Tot: -0.06000 ]
SCF: Cycle:  8   F: -7.045666290199919   dF: -8.771e-04   |Residual|: 2.430e-02   |deigs|: 6.065e-02  t[s]:     35.93
	FillingsUpdate:  mu: -0.221548025  nElectrons: 3.000000  magneticMoment: [ Abs: 0.21626  Tot: -0.06000 ]
SCF: Cycle:  9   F: -7.044722281946522   dF: +9.440e-04   |Residual|: 1.680e-01   |deigs|: 7.507e-02  t[s]:     39.11
	FillingsUpdate:  mu: -0.201844263  nElectrons: 3.000000  magneticMoment: [ Abs: 0.20123  Tot: -0.06000 ]
SCF: Cycle: 10   F: -7.045480301829460   dF: -7.580e-04   |Residual|: 1.313e-01   |deigs|: 1.530e-02  t[s]:     42.30
	FillingsUpdate:  mu: -0.172954770  nElectrons: 3.000000  magneticMoment: [ Abs: 0.26786  Tot: -0.06000 ]
SCF: Cycle: 11   F: -7.046249355147142   dF: -7.691e-04   |Residual|: 4.736e-02   |deigs|: 7.537e-02  t[s]:     45.58
	FillingsUpdate:  mu: -0.156736219  nElectrons: 3.000000  magneticMoment: [ Abs: 0.12033  Tot: -0.06000 ]
SCF: Cycle: 12   F: -7.046952727216683   dF: -7.034e-04   |Residual|: 1.196e-02   |deigs|: 1.647e-02  t[s]:     48.81
	FillingsUpdate:  mu: -0.140301667  nElectrons: 3.000000  magneticMoment: [ Abs: 0.12533  Tot: -0.06000 ]
SCF: Cycle: 13   F: -7.047020776349668   dF: -6.805e-05   |Residual|: 7.636e-03   |deigs|: 2.076e-02  t[s]:     52.05
	FillingsUpdate:  mu: -0.127864665  nElectrons: 3.000000  magneticMoment: [ Abs: 0.09484  Tot: -0.06000 ]
SCF: Cycle: 14   F: -7.047031172454893   dF: -1.040e-05   |Residual|: 6.716e-03   |deigs|: 1.341e-02  t[s]:     55.23
	FillingsUpdate:  mu: -0.118770123  nElectrons: 3.000000  magneticMoment: [ Abs: 0.09794  Tot: -0.06000 ]
SCF: Cycle: 15   F: -7.047070347892858   dF: -3.918e-05   |Residual|: 5.148e-03   |deigs|: 8.180e-03  t[s]:     58.45
	FillingsUpdate:  mu: -0.113121948  nElectrons: 3.000000  magneticMoment: [ Abs: 0.08763  Tot: -0.06000 ]
SCF: Cycle: 16   F: -7.047186265808441   dF: -1.159e-04   |Residual|: 3.984e-03   |deigs|: 6.549e-03  t[s]:     61.64
	FillingsUpdate:  mu: -0.107856684  nElectrons: 3.000000  magneticMoment: [ Abs: 0.07908  Tot: -0.06000 ]
SCF: Cycle: 17   F: -7.047322055366348   dF: -1.358e-04   |Residual|: 2.842e-03   |deigs|: 6.190e-03  t[s]:     64.86
	FillingsUpdate:  mu: -0.106164876  nElectrons: 3.000000  magneticMoment: [ Abs: 0.07004  Tot: -0.06000 ]
SCF: Cycle: 18   F: -7.047384184105133   dF: -6.213e-05   |Residual|: 1.882e-03   |deigs|: 1.928e-03  t[s]:     68.04
	FillingsUpdate:  mu: -0.106537718  nElectrons: 3.000000  magneticMoment: [ Abs: 0.06743  Tot: -0.06000 ]
SCF: Cycle: 19   F: -7.047416711377247   dF: -3.253e-05   |Residual|: 1.107e-03   |deigs|: 5.257e-04  t[s]:     71.22
	FillingsUpdate:  mu: -0.107239558  nElectrons: 3.000000  magneticMoment: [ Abs: 0.06504  Tot: -0.06000 ]
SCF: Cycle: 20   F: -7.047430448065025   dF: -1.374e-05   |Residual|: 6.515e-04   |deigs|: 7.644e-04  t[s]:     74.45
	FillingsUpdate:  mu: -0.107641797  nElectrons: 3.000000  magneticMoment: [ Abs: 0.06277  Tot: -0.06000 ]
SCF: Cycle: 21   F: -7.047436195842805   dF: -5.748e-06   |Residual|: 3.904e-04   |deigs|: 4.318e-04  t[s]:     77.58
	FillingsUpdate:  mu: -0.107541108  nElectrons: 3.000000  magneticMoment: [ Abs: 0.06208  Tot: -0.06000 ]
SCF: Cycle: 22   F: -7.047439092320994   dF: -2.896e-06   |Residual|: 2.372e-04   |deigs|: 1.478e-04  t[s]:     80.76
	FillingsUpdate:  mu: -0.107303175  nElectrons: 3.000000  magneticMoment: [ Abs: 0.06165  Tot: -0.06000 ]
SCF: Cycle: 23   F: -7.047439976094129   dF: -8.838e-07   |Residual|: 1.611e-04   |deigs|: 2.027e-04  t[s]:     83.94
	FillingsUpdate:  mu: -0.107024230  nElectrons: 3.000000  magneticMoment: [ Abs: 0.06128  Tot: -0.06000 ]
SCF: Cycle: 24   F: -7.047440323702217   dF: -3.476e-07   |Residual|: 9.838e-05   |deigs|: 2.476e-04  t[s]:     87.09
	FillingsUpdate:  mu: -0.106888232  nElectrons: 3.000000  magneticMoment: [ Abs: 0.06104  Tot: -0.06000 ]
SCF: Cycle: 25   F: -7.047440402001714   dF: -7.830e-08   |Residual|: 6.868e-05   |deigs|: 1.630e-04  t[s]:     90.21
	FillingsUpdate:  mu: -0.106824728  nElectrons: 3.000000  magneticMoment: [ Abs: 0.06096  Tot: -0.06000 ]
SCF: Cycle: 26   F: -7.047440423532450   dF: -2.153e-08   |Residual|: 4.797e-05   |deigs|: 1.189e-04  t[s]:     93.44
	FillingsUpdate:  mu: -0.106773838  nElectrons: 3.000000  magneticMoment: [ Abs: 0.06084  Tot: -0.06000 ]
SCF: Cycle: 27   F: -7.047440434106671   dF: -1.057e-08   |Residual|: 3.096e-05   |deigs|: 1.050e-04  t[s]:     96.66
	FillingsUpdate:  mu: -0.106760713  nElectrons: 3.000000  magneticMoment: [ Abs: 0.06073  Tot: -0.06000 ]
SCF: Cycle: 28   F: -7.047440437486479   dF: -3.380e-09   |Residual|: 2.318e-05   |deigs|: 7.199e-05  t[s]:     99.87
	FillingsUpdate:  mu: -0.106777903  nElectrons: 3.000000  magneticMoment: [ Abs: 0.06059  Tot: -0.06000 ]
SCF: Cycle: 29   F: -7.047440439770324   dF: -2.284e-09   |Residual|: 1.955e-05   |deigs|: 5.529e-05  t[s]:    103.04
SCF: Converged (|Delta E|<1.000000e-08 for 2 iters).


# Ionic positions in lattice coordinates:
ion Li   0.000000000000000   0.000000000000000   0.000000000000000 0

# Forces in Lattice coordinates:
force Li  -0.000000000000000  -0.000000000000000   0.000000000000000 0

# Energy components:
   Eewald =       -1.3368908222468645
       EH =        2.1946431355626213
     Eloc =       -7.5327696524246326
      Enl =       -3.6004881552022958
   Epulay =       -0.0000013080581827
      Exc =       -1.5303503878572577
       KE =        4.7584178141968110
-------------------------------------
     Etot =       -7.0474393760298017
       TS =        0.0000010637405219
-------------------------------------
        F =       -7.0474404397703241

IonicMinimize: Iter:   0  F: -7.047440439770324  |grad|_K:  0.000e+00  t[s]:    103.18
IonicMinimize: Converged (|grad|_K<1.000000e-04).

#--- Lowdin population analysis ---
# oxidation-state Li +2.107
# magnetic-moments Li -0.055

End date and time: Sat Feb  5 23:01:50 2022  (Duration: 0-0:01:43.20)
Done!
