
*************** JDFTx 1.6.0 (git hash 42ebbcc2) ***************

Start date and time: Sat Feb  5 23:09:42 2022
Executable jdftx with command-line: -i Alkali.in
Running on hosts (process indices):  d-17-1-1 (0-18)
Divided in process groups (process indices):  0 (0)  1 (1)  2 (2)  3 (3)  4 (4)  5 (5)  6 (6)  7 (7)  8 (8)  9 (9)  10 (10)  11 (11)  12 (12)  13 (13)  14 (14)  15 (15)  16 (16)  17 (17)  18 (18)
Resource initialization completed at t[s]:      0.00
Run totals: 19 processes, 48 threads, 0 GPUs


Input parsed successfully to the following command list (including defaults):

basis kpoint-dependent
coords-type Lattice
core-overlap-check vector
coulomb-interaction Slab 001
davidson-band-ratio 1.1
dump End None
dump-name $INPUT.$VAR
elec-cutoff 20
elec-eigen-algo Davidson
elec-ex-corr gga-PBE
elec-initial-magnetization 0.700000 yes
elec-smearing Fermi 1e-05
electronic-minimize  \
	dirUpdateScheme      FletcherReeves \
	linminMethod         DirUpdateRecommended \
	nIterations          100 \
	history              15 \
	knormThreshold       0 \
	energyDiffThreshold  1e-08 \
	nEnergyDiff          2 \
	alphaTstart          1 \
	alphaTmin            1e-10 \
	updateTestStepSize   yes \
	alphaTreduceFactor   0.1 \
	alphaTincreaseFactor 3 \
	nAlphaAdjustMax      3 \
	wolfeEnergy          0.0001 \
	wolfeGradient        0.9 \
	fdTest               no
electronic-scf  \
	nIterations	10000 \
	energyDiffThreshold	1e-08 \
	residualThreshold	1e-07 \
	mixFraction	0.5 \
	qMetric	0.8 \
	history	10 \
	nEigSteps	2 \
	eigDiffThreshold	1e-08 \
	mixedVariable	Density \
	qKerker	0.8 \
	qKappa	-1 \
	verbose	no \
	mixFractionMag	1.5
exchange-regularization WignerSeitzTruncated
fluid None
fluid-ex-corr (null) lda-PZ
fluid-gummel-loop 10 1.000000e-05
fluid-minimize  \
	dirUpdateScheme      PolakRibiere \
	linminMethod         DirUpdateRecommended \
	nIterations          100 \
	history              15 \
	knormThreshold       0 \
	energyDiffThreshold  0 \
	nEnergyDiff          2 \
	alphaTstart          1 \
	alphaTmin            1e-10 \
	updateTestStepSize   yes \
	alphaTreduceFactor   0.1 \
	alphaTincreaseFactor 3 \
	nAlphaAdjustMax      3 \
	wolfeEnergy          0.0001 \
	wolfeGradient        0.9 \
	fdTest               no
fluid-solvent H2O 55.338 ScalarEOS \
	epsBulk 78.4 \
	pMol 0.92466 \
	epsInf 1.77 \
	Pvap 1.06736e-10 \
	sigmaBulk 4.62e-05 \
	Rvdw 2.61727 \
	Res 1.42 \
	tauNuc 343133 \
	poleEl 15 7 1
forces-output-coords Positions
ion Li   0.000000000000000   0.000000000000000   0.000000000000000 0
ion-species SG15/$ID_ONCV_PBE.upf
ion-width 0
ionic-minimize  \
	dirUpdateScheme      L-BFGS \
	linminMethod         DirUpdateRecommended \
	nIterations          0 \
	history              15 \
	knormThreshold       0.0001 \
	energyDiffThreshold  1e-06 \
	nEnergyDiff          2 \
	alphaTstart          1 \
	alphaTmin            1e-10 \
	updateTestStepSize   yes \
	alphaTreduceFactor   0.1 \
	alphaTincreaseFactor 3 \
	nAlphaAdjustMax      3 \
	wolfeEnergy          0.0001 \
	wolfeGradient        0.9 \
	fdTest               no
kpoint   0.000000000000   0.000000000000   0.000000000000  1.00000000000000
kpoint-folding 12 12 1 
latt-move-scale 1 1 1
latt-scale 4 4 1 
lattice  \
	   4.727486978767153   -2.363743489383575    0.000000000000000  \
	  -0.000000000000000    4.094123819672498    0.000000000000000  \
	   0.000000000000000    0.000000000000000   40.000000000000000 
lattice-minimize  \
	dirUpdateScheme      L-BFGS \
	linminMethod         DirUpdateRecommended \
	nIterations          0 \
	history              15 \
	knormThreshold       0 \
	energyDiffThreshold  1e-06 \
	nEnergyDiff          2 \
	alphaTstart          1 \
	alphaTmin            1e-10 \
	updateTestStepSize   yes \
	alphaTreduceFactor   0.1 \
	alphaTincreaseFactor 3 \
	nAlphaAdjustMax      3 \
	wolfeEnergy          0.0001 \
	wolfeGradient        0.9 \
	fdTest               no
lcao-params -1 1e-06 1e-05
pcm-variant GLSSA13
spintype z-spin
subspace-rotation-factor 1 yes
symmetries automatic
symmetry-threshold 0.0001



---------- Setting up symmetries ----------

Found 24 point-group symmetries of the bravais lattice
Found 24 space-group symmetries with basis
Applied RMS atom displacement 0 bohrs to make symmetries exact.

---------- Initializing the Grid ----------
R = 
[      18.9099     -9.45497            0  ]
[            0      16.3765            0  ]
[            0            0           40  ]
unit cell volume = 12387.1
G =
[   0.332269   0.191835         -0  ]
[          0   0.383671         -0  ]
[         -0         -0    0.15708  ]
Minimum fftbox size, Smin = [  80  80  164  ]
Chosen fftbox size, S = [  80  80  168  ]

---------- Exchange Correlation functional ----------
Initalized PBE GGA exchange.
Initalized PBE GGA correlation.

---------- Setting up pseudopotentials ----------
Width of ionic core gaussian charges (only for fluid interactions / plotting) set to 0

Reading pseudopotential file '/home/gridsan/aligho/DFT/build-Nov24/pseudopotentials/SG15/Li_ONCV_PBE.upf':
  'Li' pseudopotential, 'PBE' functional
  Generated using ONCVPSP code by D. R. Hamann
  Author: Martin Schlipf and Francois Gygi  Date: 150915.
  3 valence electrons, 2 orbitals, 4 projectors, 1328 radial grid points, with lMax = 1
  Transforming local potential to a uniform radial grid of dG=0.02 with 1489 points.
  Transforming nonlocal projectors to a uniform radial grid of dG=0.02 with 432 points.
    1S    l: 0   occupation:  2.0   eigenvalue: -1.905623
    2S    l: 0   occupation:  1.0   eigenvalue: -0.105624
  Transforming atomic orbitals to a uniform radial grid of dG=0.02 with 432 points.
  WARNING: large normalization error in atomic orbital 1s (integral: 0.000000).
  Core radius for overlap checks: 1.63 bohrs.
  Reading pulay file /home/gridsan/aligho/DFT/build-Nov24/pseudopotentials/SG15/Li_ONCV_PBE.pulay ... using dE_dnG = -1.230239e-02 computed for Ecut = 20.

Initialized 1 species with 1 total atoms.

Folded 1 k-points by 12x12x1 to 144 k-points.

---------- Setting up k-points, bands, fillings ----------
Reduced to 19 k-points under symmetry. 
Computing the number of bands and number of electrons
Calculating initial fillings.
nElectrons:   3.000000   nBands: 3   nStates: 38

----- Setting up reduced wavefunction bases (one per k-point) -----
average nbasis = 52924.021 , ideal nbasis = 52918.836

---------- Setting up coulomb interaction ----------
Initialized slab truncation along lattice direction 001

---------- Setting up 2D ewald sum ----------
Optimum gaussian width for ewald sums = 10.498040 bohr.
Real space sums over 289 unit cells with max indices [  8  8  0  ]
Reciprocal space sums over 81 terms with max indices [  4  4  0  ]

---------- Allocating electronic variables ----------
Initializing wave functions:  linear combination of atomic orbitals
Note: number of bands (3) exceeds available atomic orbitals (2)
Li pseudo-atom occupations:   s ( 2 1 )
	FillingsUpdate:  mu: +0.359155267  nElectrons: 3.000000  magneticMoment: [ Abs: 0.70000  Tot: +0.70000 ]
LCAOMinimize: Iter:   0  F: -1.3074068339290885  |grad|_K:  3.970e-05  alpha:  1.000e+00
	FillingsUpdate:  mu: +0.359154749  nElectrons: 3.000000  magneticMoment: [ Abs: 0.70000  Tot: +0.70000 ]
LCAOMinimize: Iter:   1  F: -1.3074071192928651  |grad|_K:  1.633e-07  alpha:  1.059e+00  linmin: -3.605e-03  cgtest:  1.487e-02  t[s]:     12.34
LCAOMinimize: Encountered beta<0, resetting CG.
	FillingsUpdate:  mu: +0.359154749  nElectrons: 3.000000  magneticMoment: [ Abs: 0.70000  Tot: +0.70000 ]
LCAOMinimize: Iter:   2  F: -1.3074071192986012  |grad|_K:  4.501e-08  alpha:  1.339e+00  linmin:  1.614e-02  cgtest: -9.771e-01  t[s]:     15.52
LCAOMinimize: Converged (|Delta F|<1.000000e-06 for 2 iters).


---- Citations for features of the code used in this run ----

   Software package:
      R. Sundararaman, K. Letchworth-Weaver, K.A. Schwarz, D. Gunceler, Y. Ozhabes and T.A. Arias, 'JDFTx: software for joint density-functional theory', SoftwareX 6, 278 (2017)

   gga-PBE exchange-correlation functional:
      J.P. Perdew, K. Burke and M. Ernzerhof, Phys. Rev. Lett. 77, 3865 (1996)

   Pseudopotentials:
      M Schlipf and F Gygi, Comput. Phys. Commun. 196, 36 (2015)

   Truncated Coulomb potentials:
      R. Sundararaman and T.A. Arias, Phys. Rev. B 87, 165122 (2013)

This list may not be complete. Please suggest additional citations or
report any other bugs at https://github.com/shankar1729/jdftx/issues

Initialization completed successfully at t[s]:     15.65


-------- Electronic minimization -----------
Will mix electronic density at each iteration.
	FillingsUpdate:  mu: +0.359154749  nElectrons: 3.000000  magneticMoment: [ Abs: 0.70000  Tot: +0.70000 ]
	FillingsUpdate:  mu: -0.610540546  nElectrons: 3.000000  magneticMoment: [ Abs: 0.70000  Tot: +0.70000 ]
SCF: Cycle:  0   F: -6.881031491776596   dF: -5.574e+00   |Residual|: 1.230e+00   |deigs|: 4.155e+00  t[s]:     21.10
	FillingsUpdate:  mu: -0.484339045  nElectrons: 3.000000  magneticMoment: [ Abs: 1.20027  Tot: +0.70000 ]
SCF: Cycle:  1   F: -6.916268104708567   dF: -3.524e-02   |Residual|: 7.632e-01   |deigs|: 2.764e-01  t[s]:     25.50
	FillingsUpdate:  mu: -0.281968522  nElectrons: 3.000000  magneticMoment: [ Abs: 1.55167  Tot: +0.70000 ]
SCF: Cycle:  2   F: -7.037572735658518   dF: -1.213e-01   |Residual|: 3.207e-01   |deigs|: 7.024e-01  t[s]:     30.01
	FillingsUpdate:  mu: -0.288313529  nElectrons: 3.000000  magneticMoment: [ Abs: 1.37573  Tot: +0.70000 ]
SCF: Cycle:  3   F: -7.037754854854740   dF: -1.821e-04   |Residual|: 1.680e-01   |deigs|: 8.203e-02  t[s]:     34.63
	FillingsUpdate:  mu: -0.236206838  nElectrons: 3.000000  magneticMoment: [ Abs: 1.19123  Tot: +0.70000 ]
SCF: Cycle:  4   F: -7.041937089602991   dF: -4.182e-03   |Residual|: 4.246e-02   |deigs|: 4.644e-02  t[s]:     39.34
	FillingsUpdate:  mu: -0.220830167  nElectrons: 3.000000  magneticMoment: [ Abs: 1.17240  Tot: +0.70000 ]
SCF: Cycle:  5   F: -7.043230322483659   dF: -1.293e-03   |Residual|: 7.299e-02   |deigs|: 1.542e-02  t[s]:     44.13
	FillingsUpdate:  mu: -0.200926345  nElectrons: 3.000000  magneticMoment: [ Abs: 1.00448  Tot: +0.70000 ]
SCF: Cycle:  6   F: -7.044973506183600   dF: -1.743e-03   |Residual|: 2.678e-02   |deigs|: 4.574e-02  t[s]:     49.11
	FillingsUpdate:  mu: -0.183561672  nElectrons: 3.000000  magneticMoment: [ Abs: 0.91095  Tot: +0.70000 ]
SCF: Cycle:  7   F: -7.047033374227100   dF: -2.060e-03   |Residual|: 4.147e-02   |deigs|: 4.209e-02  t[s]:     54.14
	FillingsUpdate:  mu: -0.182607542  nElectrons: 3.000000  magneticMoment: [ Abs: 0.85003  Tot: +0.70000 ]
SCF: Cycle:  8   F: -7.047642383967846   dF: -6.090e-04   |Residual|: 3.590e-02   |deigs|: 2.460e-03  t[s]:     59.28
	FillingsUpdate:  mu: -0.180146450  nElectrons: 3.000000  magneticMoment: [ Abs: 0.80138  Tot: +0.70000 ]
SCF: Cycle:  9   F: -7.048362550048058   dF: -7.202e-04   |Residual|: 1.801e-02   |deigs|: 1.883e-02  t[s]:     64.56
	FillingsUpdate:  mu: -0.168347162  nElectrons: 3.000000  magneticMoment: [ Abs: 0.73433  Tot: +0.70000 ]
SCF: Cycle: 10   F: -7.048727154315296   dF: -3.646e-04   |Residual|: 3.427e-02   |deigs|: 9.023e-03  t[s]:     69.94
	FillingsUpdate:  mu: -0.158175655  nElectrons: 3.000000  magneticMoment: [ Abs: 0.76930  Tot: +0.70000 ]
SCF: Cycle: 11   F: -7.048772966618422   dF: -4.581e-05   |Residual|: 9.875e-03   |deigs|: 1.717e-02  t[s]:     75.24
	FillingsUpdate:  mu: -0.148826012  nElectrons: 3.000000  magneticMoment: [ Abs: 0.81073  Tot: +0.70000 ]
SCF: Cycle: 12   F: -7.048966735546280   dF: -1.938e-04   |Residual|: 1.144e-02   |deigs|: 7.594e-03  t[s]:     80.64
	FillingsUpdate:  mu: -0.129461651  nElectrons: 3.000000  magneticMoment: [ Abs: 0.86057  Tot: +0.70000 ]
SCF: Cycle: 13   F: -7.049118247547473   dF: -1.515e-04   |Residual|: 6.347e-03   |deigs|: 2.374e-02  t[s]:     85.98
	FillingsUpdate:  mu: -0.119930366  nElectrons: 3.000000  magneticMoment: [ Abs: 0.86192  Tot: +0.70000 ]
SCF: Cycle: 14   F: -7.049062582072984   dF: +5.567e-05   |Residual|: 5.608e-03   |deigs|: 9.827e-03  t[s]:     91.31
	FillingsUpdate:  mu: -0.114135757  nElectrons: 3.000000  magneticMoment: [ Abs: 0.84439  Tot: +0.70000 ]
SCF: Cycle: 15   F: -7.049115257826478   dF: -5.268e-05   |Residual|: 4.307e-03   |deigs|: 5.991e-03  t[s]:     96.65
	FillingsUpdate:  mu: -0.109728245  nElectrons: 3.000000  magneticMoment: [ Abs: 0.81676  Tot: +0.70000 ]
SCF: Cycle: 16   F: -7.049132682525220   dF: -1.742e-05   |Residual|: 3.346e-03   |deigs|: 4.504e-03  t[s]:    102.03
	FillingsUpdate:  mu: -0.106672055  nElectrons: 3.000000  magneticMoment: [ Abs: 0.78563  Tot: +0.70000 ]
SCF: Cycle: 17   F: -7.049121371254540   dF: +1.131e-05   |Residual|: 2.974e-03   |deigs|: 3.179e-03  t[s]:    107.44
	FillingsUpdate:  mu: -0.103226603  nElectrons: 3.000000  magneticMoment: [ Abs: 0.76686  Tot: +0.70000 ]
SCF: Cycle: 18   F: -7.049164121939724   dF: -4.275e-05   |Residual|: 2.129e-03   |deigs|: 3.912e-03  t[s]:    112.82
	FillingsUpdate:  mu: -0.102593148  nElectrons: 3.000000  magneticMoment: [ Abs: 0.74441  Tot: +0.70000 ]
SCF: Cycle: 19   F: -7.049215217301240   dF: -5.110e-05   |Residual|: 1.645e-03   |deigs|: 1.178e-03  t[s]:    118.22
	FillingsUpdate:  mu: -0.101530240  nElectrons: 3.000000  magneticMoment: [ Abs: 0.73495  Tot: +0.70000 ]
SCF: Cycle: 20   F: -7.049243722778339   dF: -2.851e-05   |Residual|: 1.164e-03   |deigs|: 1.206e-03  t[s]:    123.58
	FillingsUpdate:  mu: -0.100851464  nElectrons: 3.000000  magneticMoment: [ Abs: 0.72293  Tot: +0.70000 ]
SCF: Cycle: 21   F: -7.049265483136334   dF: -2.176e-05   |Residual|: 8.086e-04   |deigs|: 9.969e-04  t[s]:    128.93
	FillingsUpdate:  mu: -0.101150979  nElectrons: 3.000000  magneticMoment: [ Abs: 0.71497  Tot: +0.70000 ]
SCF: Cycle: 22   F: -7.049269512403222   dF: -4.029e-06   |Residual|: 6.258e-04   |deigs|: 3.512e-04  t[s]:    134.30
	FillingsUpdate:  mu: -0.101236094  nElectrons: 3.000000  magneticMoment: [ Abs: 0.70742  Tot: +0.70000 ]
SCF: Cycle: 23   F: -7.049275517147266   dF: -6.005e-06   |Residual|: 3.996e-04   |deigs|: 3.664e-04  t[s]:    139.64
	FillingsUpdate:  mu: -0.101639403  nElectrons: 3.000000  magneticMoment: [ Abs: 0.70382  Tot: +0.70000 ]
SCF: Cycle: 24   F: -7.049278325442527   dF: -2.808e-06   |Residual|: 2.705e-04   |deigs|: 5.624e-04  t[s]:    145.03
	FillingsUpdate:  mu: -0.101667575  nElectrons: 3.000000  magneticMoment: [ Abs: 0.70238  Tot: +0.70000 ]
SCF: Cycle: 25   F: -7.049279712862811   dF: -1.387e-06   |Residual|: 1.560e-04   |deigs|: 2.454e-04  t[s]:    150.40
	FillingsUpdate:  mu: -0.101697871  nElectrons: 3.000000  magneticMoment: [ Abs: 0.70163  Tot: +0.70000 ]
SCF: Cycle: 26   F: -7.049280175890869   dF: -4.630e-07   |Residual|: 9.124e-05   |deigs|: 1.268e-04  t[s]:    155.66
	FillingsUpdate:  mu: -0.101691970  nElectrons: 3.000000  magneticMoment: [ Abs: 0.70108  Tot: +0.70000 ]
SCF: Cycle: 27   F: -7.049280211300441   dF: -3.541e-08   |Residual|: 7.040e-05   |deigs|: 6.625e-05  t[s]:    161.04
	FillingsUpdate:  mu: -0.101692987  nElectrons: 3.000000  magneticMoment: [ Abs: 0.70078  Tot: +0.70000 ]
SCF: Cycle: 28   F: -7.049280244752405   dF: -3.345e-08   |Residual|: 5.013e-05   |deigs|: 5.053e-05  t[s]:    166.37
	FillingsUpdate:  mu: -0.101700052  nElectrons: 3.000000  magneticMoment: [ Abs: 0.70064  Tot: +0.70000 ]
SCF: Cycle: 29   F: -7.049280267487040   dF: -2.273e-08   |Residual|: 4.062e-05   |deigs|: 3.500e-05  t[s]:    171.75
	FillingsUpdate:  mu: -0.101708242  nElectrons: 3.000000  magneticMoment: [ Abs: 0.70049  Tot: +0.70000 ]
SCF: Cycle: 30   F: -7.049280256619131   dF: +1.087e-08   |Residual|: 2.968e-05   |deigs|: 2.952e-05  t[s]:    177.09
	FillingsUpdate:  mu: -0.101717162  nElectrons: 3.000000  magneticMoment: [ Abs: 0.70028  Tot: +0.70000 ]
SCF: Cycle: 31   F: -7.049280324354818   dF: -6.774e-08   |Residual|: 1.824e-05   |deigs|: 2.734e-05  t[s]:    182.50
	FillingsUpdate:  mu: -0.101717989  nElectrons: 3.000000  magneticMoment: [ Abs: 0.70012  Tot: +0.70000 ]
SCF: Cycle: 32   F: -7.049280326576712   dF: -2.222e-09   |Residual|: 1.295e-05   |deigs|: 2.635e-05  t[s]:    187.87
	FillingsUpdate:  mu: -0.101712710  nElectrons: 3.000000  magneticMoment: [ Abs: 0.70002  Tot: +0.70000 ]
SCF: Cycle: 33   F: -7.049280329837164   dF: -3.260e-09   |Residual|: 9.530e-06   |deigs|: 2.465e-05  t[s]:    193.21
SCF: Converged (|Delta E|<1.000000e-08 for 2 iters).


# Ionic positions in lattice coordinates:
ion Li   0.000000000000000   0.000000000000000   0.000000000000000 0

# Forces in Lattice coordinates:
force Li  -0.000000000000000   0.000000000000000   0.000000000000000 0

# Energy components:
   Eewald =       -1.0026681166851483
       EH =        2.5571422473309671
     Eloc =       -8.2375627595621825
      Enl =       -3.6049841486916017
   Epulay =        0.0000051497655618
      Exc =       -1.5416519547056440
       KE =        4.7804402117440441
-------------------------------------
     Etot =       -7.0492793708040038
       TS =        0.0000009590331603
-------------------------------------
        F =       -7.0492803298371642

IonicMinimize: Iter:   0  F: -7.049280329837164  |grad|_K:  0.000e+00  t[s]:    193.45
IonicMinimize: Converged (|grad|_K<1.000000e-04).

#--- Lowdin population analysis ---
# oxidation-state Li +2.070
# magnetic-moments Li +0.648

End date and time: Sat Feb  5 23:12:56 2022  (Duration: 0-0:03:13.48)
Done!
