
*************** JDFTx 1.6.0 (git hash 42ebbcc2) ***************

Start date and time: Sat Feb  5 23:02:06 2022
Executable jdftx with command-line: -i Alkali.in
Running on hosts (process indices):  d-16-1-2 (0-18)
Divided in process groups (process indices):  0 (0)  1 (1)  2 (2)  3 (3)  4 (4)  5 (5)  6 (6)  7 (7)  8 (8)  9 (9)  10 (10)  11 (11)  12 (12)  13 (13)  14 (14)  15 (15)  16 (16)  17 (17)  18 (18)
Resource initialization completed at t[s]:      0.00
Run totals: 19 processes, 48 threads, 0 GPUs


Input parsed successfully to the following command list (including defaults):

basis kpoint-dependent
coords-type Lattice
core-overlap-check vector
coulomb-interaction Slab 001
davidson-band-ratio 1.1
dump End None
dump-name $INPUT.$VAR
elec-cutoff 20
elec-eigen-algo Davidson
elec-ex-corr gga-PBE
elec-initial-magnetization -0.020000 yes
elec-smearing Fermi 1e-05
electronic-minimize  \
	dirUpdateScheme      FletcherReeves \
	linminMethod         DirUpdateRecommended \
	nIterations          100 \
	history              15 \
	knormThreshold       0 \
	energyDiffThreshold  1e-08 \
	nEnergyDiff          2 \
	alphaTstart          1 \
	alphaTmin            1e-10 \
	updateTestStepSize   yes \
	alphaTreduceFactor   0.1 \
	alphaTincreaseFactor 3 \
	nAlphaAdjustMax      3 \
	wolfeEnergy          0.0001 \
	wolfeGradient        0.9 \
	fdTest               no
electronic-scf  \
	nIterations	10000 \
	energyDiffThreshold	1e-08 \
	residualThreshold	1e-07 \
	mixFraction	0.5 \
	qMetric	0.8 \
	history	10 \
	nEigSteps	2 \
	eigDiffThreshold	1e-08 \
	mixedVariable	Density \
	qKerker	0.8 \
	qKappa	-1 \
	verbose	no \
	mixFractionMag	1.5
exchange-regularization WignerSeitzTruncated
fluid None
fluid-ex-corr (null) lda-PZ
fluid-gummel-loop 10 1.000000e-05
fluid-minimize  \
	dirUpdateScheme      PolakRibiere \
	linminMethod         DirUpdateRecommended \
	nIterations          100 \
	history              15 \
	knormThreshold       0 \
	energyDiffThreshold  0 \
	nEnergyDiff          2 \
	alphaTstart          1 \
	alphaTmin            1e-10 \
	updateTestStepSize   yes \
	alphaTreduceFactor   0.1 \
	alphaTincreaseFactor 3 \
	nAlphaAdjustMax      3 \
	wolfeEnergy          0.0001 \
	wolfeGradient        0.9 \
	fdTest               no
fluid-solvent H2O 55.338 ScalarEOS \
	epsBulk 78.4 \
	pMol 0.92466 \
	epsInf 1.77 \
	Pvap 1.06736e-10 \
	sigmaBulk 4.62e-05 \
	Rvdw 2.61727 \
	Res 1.42 \
	tauNuc 343133 \
	poleEl 15 7 1
forces-output-coords Positions
ion Li   0.000000000000000   0.000000000000000   0.000000000000000 0
ion-species SG15/$ID_ONCV_PBE.upf
ion-width 0
ionic-minimize  \
	dirUpdateScheme      L-BFGS \
	linminMethod         DirUpdateRecommended \
	nIterations          0 \
	history              15 \
	knormThreshold       0.0001 \
	energyDiffThreshold  1e-06 \
	nEnergyDiff          2 \
	alphaTstart          1 \
	alphaTmin            1e-10 \
	updateTestStepSize   yes \
	alphaTreduceFactor   0.1 \
	alphaTincreaseFactor 3 \
	nAlphaAdjustMax      3 \
	wolfeEnergy          0.0001 \
	wolfeGradient        0.9 \
	fdTest               no
kpoint   0.000000000000   0.000000000000   0.000000000000  1.00000000000000
kpoint-folding 12 12 1 
latt-move-scale 1 1 1
latt-scale 4 4 1 
lattice  \
	   4.727486978767153   -2.363743489383575    0.000000000000000  \
	  -0.000000000000000    4.094123819672498    0.000000000000000  \
	   0.000000000000000    0.000000000000000   40.000000000000000 
lattice-minimize  \
	dirUpdateScheme      L-BFGS \
	linminMethod         DirUpdateRecommended \
	nIterations          0 \
	history              15 \
	knormThreshold       0 \
	energyDiffThreshold  1e-06 \
	nEnergyDiff          2 \
	alphaTstart          1 \
	alphaTmin            1e-10 \
	updateTestStepSize   yes \
	alphaTreduceFactor   0.1 \
	alphaTincreaseFactor 3 \
	nAlphaAdjustMax      3 \
	wolfeEnergy          0.0001 \
	wolfeGradient        0.9 \
	fdTest               no
lcao-params -1 1e-06 1e-05
pcm-variant GLSSA13
spintype z-spin
subspace-rotation-factor 1 yes
symmetries automatic
symmetry-threshold 0.0001



---------- Setting up symmetries ----------

Found 24 point-group symmetries of the bravais lattice
Found 24 space-group symmetries with basis
Applied RMS atom displacement 0 bohrs to make symmetries exact.

---------- Initializing the Grid ----------
R = 
[      18.9099     -9.45497            0  ]
[            0      16.3765            0  ]
[            0            0           40  ]
unit cell volume = 12387.1
G =
[   0.332269   0.191835         -0  ]
[          0   0.383671         -0  ]
[         -0         -0    0.15708  ]
Minimum fftbox size, Smin = [  80  80  164  ]
Chosen fftbox size, S = [  80  80  168  ]

---------- Exchange Correlation functional ----------
Initalized PBE GGA exchange.
Initalized PBE GGA correlation.

---------- Setting up pseudopotentials ----------
Width of ionic core gaussian charges (only for fluid interactions / plotting) set to 0

Reading pseudopotential file '/home/gridsan/aligho/DFT/build-Nov24/pseudopotentials/SG15/Li_ONCV_PBE.upf':
  'Li' pseudopotential, 'PBE' functional
  Generated using ONCVPSP code by D. R. Hamann
  Author: Martin Schlipf and Francois Gygi  Date: 150915.
  3 valence electrons, 2 orbitals, 4 projectors, 1328 radial grid points, with lMax = 1
  Transforming local potential to a uniform radial grid of dG=0.02 with 1489 points.
  Transforming nonlocal projectors to a uniform radial grid of dG=0.02 with 432 points.
    1S    l: 0   occupation:  2.0   eigenvalue: -1.905623
    2S    l: 0   occupation:  1.0   eigenvalue: -0.105624
  Transforming atomic orbitals to a uniform radial grid of dG=0.02 with 432 points.
  WARNING: large normalization error in atomic orbital 1s (integral: 0.000000).
  Core radius for overlap checks: 1.63 bohrs.
  Reading pulay file /home/gridsan/aligho/DFT/build-Nov24/pseudopotentials/SG15/Li_ONCV_PBE.pulay ... using dE_dnG = -1.230239e-02 computed for Ecut = 20.

Initialized 1 species with 1 total atoms.

Folded 1 k-points by 12x12x1 to 144 k-points.

---------- Setting up k-points, bands, fillings ----------
Reduced to 19 k-points under symmetry. 
Computing the number of bands and number of electrons
Calculating initial fillings.
nElectrons:   3.000000   nBands: 3   nStates: 38

----- Setting up reduced wavefunction bases (one per k-point) -----
average nbasis = 52924.021 , ideal nbasis = 52918.836

---------- Setting up coulomb interaction ----------
Initialized slab truncation along lattice direction 001

---------- Setting up 2D ewald sum ----------
Optimum gaussian width for ewald sums = 10.498040 bohr.
Real space sums over 289 unit cells with max indices [  8  8  0  ]
Reciprocal space sums over 81 terms with max indices [  4  4  0  ]

---------- Allocating electronic variables ----------
Initializing wave functions:  linear combination of atomic orbitals
Note: number of bands (3) exceeds available atomic orbitals (2)
Li pseudo-atom occupations:   s ( 2 1 )
	FillingsUpdate:  mu: +0.362495447  nElectrons: 3.000000  magneticMoment: [ Abs: 0.05862  Tot: -0.02000 ]
LCAOMinimize: Iter:   0  F: -1.3120036199057439  |grad|_K:  4.076e-05  alpha:  1.000e+00
	FillingsUpdate:  mu: +0.362494963  nElectrons: 3.000000  magneticMoment: [ Abs: 0.05862  Tot: -0.02000 ]
LCAOMinimize: Iter:   1  F: -1.3120039206601581  |grad|_K:  7.246e-08  alpha:  1.059e+00  linmin: -7.707e-03  cgtest:  3.315e-02  t[s]:     12.49
LCAOMinimize: Encountered beta<0, resetting CG.
LCAOMinimize: 	Predicted alpha/alphaT>3.000000, increasing alphaT to 3.175760e+00.
	FillingsUpdate:  mu: +0.362494963  nElectrons: 3.000000  magneticMoment: [ Abs: 0.05862  Tot: -0.02000 ]
LCAOMinimize: Iter:   2  F: -1.3120039206614842  |grad|_K:  1.255e-08  alpha:  1.177e+00  linmin:  8.971e-03  cgtest: -9.915e-01  t[s]:     17.09
LCAOMinimize: Converged (|Delta F|<1.000000e-06 for 2 iters).


---- Citations for features of the code used in this run ----

   Software package:
      R. Sundararaman, K. Letchworth-Weaver, K.A. Schwarz, D. Gunceler, Y. Ozhabes and T.A. Arias, 'JDFTx: software for joint density-functional theory', SoftwareX 6, 278 (2017)

   gga-PBE exchange-correlation functional:
      J.P. Perdew, K. Burke and M. Ernzerhof, Phys. Rev. Lett. 77, 3865 (1996)

   Pseudopotentials:
      M Schlipf and F Gygi, Comput. Phys. Commun. 196, 36 (2015)

   Truncated Coulomb potentials:
      R. Sundararaman and T.A. Arias, Phys. Rev. B 87, 165122 (2013)

This list may not be complete. Please suggest additional citations or
report any other bugs at https://github.com/shankar1729/jdftx/issues

Initialization completed successfully at t[s]:     17.23


-------- Electronic minimization -----------
Will mix electronic density at each iteration.
	FillingsUpdate:  mu: +0.362494963  nElectrons: 3.000000  magneticMoment: [ Abs: 0.05862  Tot: -0.02000 ]
	FillingsUpdate:  mu: -0.614690866  nElectrons: 3.000000  magneticMoment: [ Abs: 0.05862  Tot: -0.02000 ]
SCF: Cycle:  0   F: -6.867758699181011   dF: -5.556e+00   |Residual|: 1.229e+00   |deigs|: 4.155e+00  t[s]:     22.73
	FillingsUpdate:  mu: -0.498698906  nElectrons: 3.000000  magneticMoment: [ Abs: 0.03961  Tot: -0.02000 ]
SCF: Cycle:  1   F: -6.912731755685862   dF: -4.497e-02   |Residual|: 7.591e-01   |deigs|: 2.744e-01  t[s]:     27.17
	FillingsUpdate:  mu: -0.226136571  nElectrons: 3.000000  magneticMoment: [ Abs: 0.04851  Tot: -0.02000 ]
SCF: Cycle:  2   F: -7.040253912669441   dF: -1.275e-01   |Residual|: 3.125e-01   |deigs|: 7.160e-01  t[s]:     31.74
	FillingsUpdate:  mu: -0.275986762  nElectrons: 3.000000  magneticMoment: [ Abs: 0.05017  Tot: -0.02000 ]
SCF: Cycle:  3   F: -7.037762277213848   dF: +2.492e-03   |Residual|: 1.819e-01   |deigs|: 8.389e-02  t[s]:     36.44
	FillingsUpdate:  mu: -0.233886895  nElectrons: 3.000000  magneticMoment: [ Abs: 0.07397  Tot: -0.02000 ]
SCF: Cycle:  4   F: -7.034406787113529   dF: +3.355e-03   |Residual|: 1.492e-01   |deigs|: 3.551e-02  t[s]:     41.22
	FillingsUpdate:  mu: -0.229199703  nElectrons: 3.000000  magneticMoment: [ Abs: 0.08451  Tot: -0.02000 ]
SCF: Cycle:  5   F: -7.036249762697455   dF: -1.843e-03   |Residual|: 3.902e-02   |deigs|: 3.604e-02  t[s]:     46.07
	FillingsUpdate:  mu: -0.208409712  nElectrons: 3.000000  magneticMoment: [ Abs: 0.04860  Tot: -0.02000 ]
SCF: Cycle:  6   F: -7.039739932732327   dF: -3.490e-03   |Residual|: 4.093e-02   |deigs|: 5.120e-02  t[s]:     51.07
	FillingsUpdate:  mu: -0.158183750  nElectrons: 3.000000  magneticMoment: [ Abs: 0.06166  Tot: -0.02000 ]
SCF: Cycle:  7   F: -7.043123902701146   dF: -3.384e-03   |Residual|: 1.163e-01   |deigs|: 9.451e-02  t[s]:     56.12
	FillingsUpdate:  mu: -0.173890490  nElectrons: 3.000000  magneticMoment: [ Abs: 0.05857  Tot: -0.02000 ]
SCF: Cycle:  8   F: -7.043380566782194   dF: -2.567e-04   |Residual|: 2.065e-02   |deigs|: 6.422e-02  t[s]:     61.27
	FillingsUpdate:  mu: -0.203291093  nElectrons: 3.000000  magneticMoment: [ Abs: 0.11902  Tot: -0.02000 ]
SCF: Cycle:  9   F: -7.039964719486748   dF: +3.416e-03   |Residual|: 3.174e-01   |deigs|: 1.717e-01  t[s]:     66.57
	FillingsUpdate:  mu: -0.181355407  nElectrons: 3.000000  magneticMoment: [ Abs: 0.16957  Tot: -0.02000 ]
SCF: Cycle: 10   F: -7.041834525784797   dF: -1.870e-03   |Residual|: 1.536e-01   |deigs|: 6.039e-02  t[s]:     71.93
	FillingsUpdate:  mu: -0.152865420  nElectrons: 3.000000  magneticMoment: [ Abs: 0.20825  Tot: -0.02000 ]
SCF: Cycle: 11   F: -7.042474387086754   dF: -6.399e-04   |Residual|: 9.693e-02   |deigs|: 1.010e-01  t[s]:     77.34
	FillingsUpdate:  mu: -0.135303941  nElectrons: 3.000000  magneticMoment: [ Abs: 0.13264  Tot: -0.02000 ]
SCF: Cycle: 12   F: -7.044331885188353   dF: -1.857e-03   |Residual|: 1.737e-02   |deigs|: 2.823e-02  t[s]:     82.77
	FillingsUpdate:  mu: -0.126772355  nElectrons: 3.000000  magneticMoment: [ Abs: 0.09004  Tot: -0.02000 ]
SCF: Cycle: 13   F: -7.044399013586637   dF: -6.713e-05   |Residual|: 7.163e-03   |deigs|: 9.400e-03  t[s]:     88.25
	FillingsUpdate:  mu: -0.118703984  nElectrons: 3.000000  magneticMoment: [ Abs: 0.07509  Tot: -0.02000 ]
SCF: Cycle: 14   F: -7.044444124017915   dF: -4.511e-05   |Residual|: 6.399e-03   |deigs|: 1.035e-02  t[s]:     93.68
	FillingsUpdate:  mu: -0.112744208  nElectrons: 3.000000  magneticMoment: [ Abs: 0.05764  Tot: -0.02000 ]
SCF: Cycle: 15   F: -7.044446549985805   dF: -2.426e-06   |Residual|: 3.864e-03   |deigs|: 5.506e-03  t[s]:     99.13
	FillingsUpdate:  mu: -0.110582909  nElectrons: 3.000000  magneticMoment: [ Abs: 0.04907  Tot: -0.02000 ]
SCF: Cycle: 16   F: -7.044466461166180   dF: -1.991e-05   |Residual|: 2.825e-03   |deigs|: 1.818e-03  t[s]:    104.59
	FillingsUpdate:  mu: -0.107867673  nElectrons: 3.000000  magneticMoment: [ Abs: 0.04225  Tot: -0.02000 ]
SCF: Cycle: 17   F: -7.044458647774595   dF: +7.813e-06   |Residual|: 2.124e-03   |deigs|: 3.065e-03  t[s]:    110.00
	FillingsUpdate:  mu: -0.105593036  nElectrons: 3.000000  magneticMoment: [ Abs: 0.03857  Tot: -0.02000 ]
SCF: Cycle: 18   F: -7.044467272530403   dF: -8.625e-06   |Residual|: 1.423e-03   |deigs|: 2.296e-03  t[s]:    115.39
	FillingsUpdate:  mu: -0.106247729  nElectrons: 3.000000  magneticMoment: [ Abs: 0.03255  Tot: -0.02000 ]
SCF: Cycle: 19   F: -7.044482247842201   dF: -1.498e-05   |Residual|: 1.200e-03   |deigs|: 9.272e-04  t[s]:    120.82
	FillingsUpdate:  mu: -0.106196854  nElectrons: 3.000000  magneticMoment: [ Abs: 0.02753  Tot: -0.02000 ]
SCF: Cycle: 20   F: -7.044495296715735   dF: -1.305e-05   |Residual|: 7.736e-04   |deigs|: 3.153e-04  t[s]:    126.23
	FillingsUpdate:  mu: -0.106019068  nElectrons: 3.000000  magneticMoment: [ Abs: 0.02443  Tot: -0.02000 ]
SCF: Cycle: 21   F: -7.044507493611379   dF: -1.220e-05   |Residual|: 5.795e-04   |deigs|: 2.670e-04  t[s]:    131.62
	FillingsUpdate:  mu: -0.106015223  nElectrons: 3.000000  magneticMoment: [ Abs: 0.02303  Tot: -0.02000 ]
SCF: Cycle: 22   F: -7.044516380774612   dF: -8.887e-06   |Residual|: 4.333e-04   |deigs|: 9.948e-05  t[s]:    136.99
	FillingsUpdate:  mu: -0.105641490  nElectrons: 3.000000  magneticMoment: [ Abs: 0.02223  Tot: -0.02000 ]
SCF: Cycle: 23   F: -7.044521077727462   dF: -4.697e-06   |Residual|: 3.180e-04   |deigs|: 3.563e-04  t[s]:    142.34
	FillingsUpdate:  mu: -0.105511102  nElectrons: 3.000000  magneticMoment: [ Abs: 0.02158  Tot: -0.02000 ]
SCF: Cycle: 24   F: -7.044522305528622   dF: -1.228e-06   |Residual|: 1.932e-04   |deigs|: 1.566e-04  t[s]:    147.77
	FillingsUpdate:  mu: -0.105417226  nElectrons: 3.000000  magneticMoment: [ Abs: 0.02091  Tot: -0.02000 ]
SCF: Cycle: 25   F: -7.044522865173531   dF: -5.596e-07   |Residual|: 1.120e-04   |deigs|: 8.881e-05  t[s]:    153.14
	FillingsUpdate:  mu: -0.105482490  nElectrons: 3.000000  magneticMoment: [ Abs: 0.02046  Tot: -0.02000 ]
SCF: Cycle: 26   F: -7.044523153346440   dF: -2.882e-07   |Residual|: 7.741e-05   |deigs|: 1.248e-04  t[s]:    158.63
	FillingsUpdate:  mu: -0.105582473  nElectrons: 3.000000  magneticMoment: [ Abs: 0.02027  Tot: -0.02000 ]
SCF: Cycle: 27   F: -7.044523310165929   dF: -1.568e-07   |Residual|: 5.617e-05   |deigs|: 1.473e-04  t[s]:    164.05
	FillingsUpdate:  mu: -0.105620925  nElectrons: 3.000000  magneticMoment: [ Abs: 0.02022  Tot: -0.02000 ]
SCF: Cycle: 28   F: -7.044523354432332   dF: -4.427e-08   |Residual|: 3.494e-05   |deigs|: 7.305e-05  t[s]:    169.45
	FillingsUpdate:  mu: -0.105637352  nElectrons: 3.000000  magneticMoment: [ Abs: 0.02020  Tot: -0.02000 ]
SCF: Cycle: 29   F: -7.044523370566386   dF: -1.613e-08   |Residual|: 2.491e-05   |deigs|: 5.290e-05  t[s]:    174.84
	FillingsUpdate:  mu: -0.105651082  nElectrons: 3.000000  magneticMoment: [ Abs: 0.02015  Tot: -0.02000 ]
SCF: Cycle: 30   F: -7.044523373382063   dF: -2.816e-09   |Residual|: 1.812e-05   |deigs|: 4.582e-05  t[s]:    180.26
	FillingsUpdate:  mu: -0.105658301  nElectrons: 3.000000  magneticMoment: [ Abs: 0.02011  Tot: -0.02000 ]
SCF: Cycle: 31   F: -7.044523376705842   dF: -3.324e-09   |Residual|: 1.044e-05   |deigs|: 3.896e-05  t[s]:    185.61
SCF: Converged (|Delta E|<1.000000e-08 for 2 iters).


# Ionic positions in lattice coordinates:
ion Li   0.000000000000000   0.000000000000000   0.000000000000000 0

# Forces in Lattice coordinates:
force Li   0.000000000000000   0.000000000000000   0.000000000000000 0

# Energy components:
   Eewald =       -1.0026681166851483
       EH =        2.5452845655707796
     Eloc =       -8.2227763686091411
      Enl =       -3.6031584904113725
   Epulay =        0.0000051497655618
      Exc =       -1.5339734728050944
       KE =        4.7727643765609162
-------------------------------------
     Etot =       -7.0445223566134985
       TS =        0.0000010200923436
-------------------------------------
        F =       -7.0445233767058424

IonicMinimize: Iter:   0  F: -7.044523376705842  |grad|_K:  0.000e+00  t[s]:    185.85
IonicMinimize: Converged (|grad|_K<1.000000e-04).

#--- Lowdin population analysis ---
# oxidation-state Li +2.082
# magnetic-moments Li -0.019

End date and time: Sat Feb  5 23:05:11 2022  (Duration: 0-0:03:05.88)
Done!
