
*************** JDFTx 1.6.0 (git hash 42ebbcc2) ***************

Start date and time: Sat Feb  5 23:09:42 2022
Executable jdftx with command-line: -i Alkali.in
Running on hosts (process indices):  d-16-8-3 (0-18)
Divided in process groups (process indices):  0 (0)  1 (1)  2 (2)  3 (3)  4 (4)  5 (5)  6 (6)  7 (7)  8 (8)  9 (9)  10 (10)  11 (11)  12 (12)  13 (13)  14 (14)  15 (15)  16 (16)  17 (17)  18 (18)
Resource initialization completed at t[s]:      0.00
Run totals: 19 processes, 48 threads, 0 GPUs


Input parsed successfully to the following command list (including defaults):

basis kpoint-dependent
coords-type Lattice
core-overlap-check vector
coulomb-interaction Slab 001
davidson-band-ratio 1.1
dump End None
dump-name $INPUT.$VAR
elec-cutoff 20
elec-eigen-algo Davidson
elec-ex-corr gga-PBE
elec-initial-magnetization 0.640000 yes
elec-smearing Fermi 1e-05
electronic-minimize  \
	dirUpdateScheme      FletcherReeves \
	linminMethod         DirUpdateRecommended \
	nIterations          100 \
	history              15 \
	knormThreshold       0 \
	energyDiffThreshold  1e-08 \
	nEnergyDiff          2 \
	alphaTstart          1 \
	alphaTmin            1e-10 \
	updateTestStepSize   yes \
	alphaTreduceFactor   0.1 \
	alphaTincreaseFactor 3 \
	nAlphaAdjustMax      3 \
	wolfeEnergy          0.0001 \
	wolfeGradient        0.9 \
	fdTest               no
electronic-scf  \
	nIterations	10000 \
	energyDiffThreshold	1e-08 \
	residualThreshold	1e-07 \
	mixFraction	0.5 \
	qMetric	0.8 \
	history	10 \
	nEigSteps	2 \
	eigDiffThreshold	1e-08 \
	mixedVariable	Density \
	qKerker	0.8 \
	qKappa	-1 \
	verbose	no \
	mixFractionMag	1.5
exchange-regularization WignerSeitzTruncated
fluid None
fluid-ex-corr (null) lda-PZ
fluid-gummel-loop 10 1.000000e-05
fluid-minimize  \
	dirUpdateScheme      PolakRibiere \
	linminMethod         DirUpdateRecommended \
	nIterations          100 \
	history              15 \
	knormThreshold       0 \
	energyDiffThreshold  0 \
	nEnergyDiff          2 \
	alphaTstart          1 \
	alphaTmin            1e-10 \
	updateTestStepSize   yes \
	alphaTreduceFactor   0.1 \
	alphaTincreaseFactor 3 \
	nAlphaAdjustMax      3 \
	wolfeEnergy          0.0001 \
	wolfeGradient        0.9 \
	fdTest               no
fluid-solvent H2O 55.338 ScalarEOS \
	epsBulk 78.4 \
	pMol 0.92466 \
	epsInf 1.77 \
	Pvap 1.06736e-10 \
	sigmaBulk 4.62e-05 \
	Rvdw 2.61727 \
	Res 1.42 \
	tauNuc 343133 \
	poleEl 15 7 1
forces-output-coords Positions
ion Li   0.000000000000000   0.000000000000000   0.000000000000000 0
ion-species SG15/$ID_ONCV_PBE.upf
ion-width 0
ionic-minimize  \
	dirUpdateScheme      L-BFGS \
	linminMethod         DirUpdateRecommended \
	nIterations          0 \
	history              15 \
	knormThreshold       0.0001 \
	energyDiffThreshold  1e-06 \
	nEnergyDiff          2 \
	alphaTstart          1 \
	alphaTmin            1e-10 \
	updateTestStepSize   yes \
	alphaTreduceFactor   0.1 \
	alphaTincreaseFactor 3 \
	nAlphaAdjustMax      3 \
	wolfeEnergy          0.0001 \
	wolfeGradient        0.9 \
	fdTest               no
kpoint   0.000000000000   0.000000000000   0.000000000000  1.00000000000000
kpoint-folding 12 12 1 
latt-move-scale 1 1 1
latt-scale 4 4 1 
lattice  \
	   4.727486978767153   -2.363743489383575    0.000000000000000  \
	  -0.000000000000000    4.094123819672498    0.000000000000000  \
	   0.000000000000000    0.000000000000000   40.000000000000000 
lattice-minimize  \
	dirUpdateScheme      L-BFGS \
	linminMethod         DirUpdateRecommended \
	nIterations          0 \
	history              15 \
	knormThreshold       0 \
	energyDiffThreshold  1e-06 \
	nEnergyDiff          2 \
	alphaTstart          1 \
	alphaTmin            1e-10 \
	updateTestStepSize   yes \
	alphaTreduceFactor   0.1 \
	alphaTincreaseFactor 3 \
	nAlphaAdjustMax      3 \
	wolfeEnergy          0.0001 \
	wolfeGradient        0.9 \
	fdTest               no
lcao-params -1 1e-06 1e-05
pcm-variant GLSSA13
spintype z-spin
subspace-rotation-factor 1 yes
symmetries automatic
symmetry-threshold 0.0001



---------- Setting up symmetries ----------

Found 24 point-group symmetries of the bravais lattice
Found 24 space-group symmetries with basis
Applied RMS atom displacement 0 bohrs to make symmetries exact.

---------- Initializing the Grid ----------
R = 
[      18.9099     -9.45497            0  ]
[            0      16.3765            0  ]
[            0            0           40  ]
unit cell volume = 12387.1
G =
[   0.332269   0.191835         -0  ]
[          0   0.383671         -0  ]
[         -0         -0    0.15708  ]
Minimum fftbox size, Smin = [  80  80  164  ]
Chosen fftbox size, S = [  80  80  168  ]

---------- Exchange Correlation functional ----------
Initalized PBE GGA exchange.
Initalized PBE GGA correlation.

---------- Setting up pseudopotentials ----------
Width of ionic core gaussian charges (only for fluid interactions / plotting) set to 0

Reading pseudopotential file '/home/gridsan/aligho/DFT/build-Nov24/pseudopotentials/SG15/Li_ONCV_PBE.upf':
  'Li' pseudopotential, 'PBE' functional
  Generated using ONCVPSP code by D. R. Hamann
  Author: Martin Schlipf and Francois Gygi  Date: 150915.
  3 valence electrons, 2 orbitals, 4 projectors, 1328 radial grid points, with lMax = 1
  Transforming local potential to a uniform radial grid of dG=0.02 with 1489 points.
  Transforming nonlocal projectors to a uniform radial grid of dG=0.02 with 432 points.
    1S    l: 0   occupation:  2.0   eigenvalue: -1.905623
    2S    l: 0   occupation:  1.0   eigenvalue: -0.105624
  Transforming atomic orbitals to a uniform radial grid of dG=0.02 with 432 points.
  WARNING: large normalization error in atomic orbital 1s (integral: 0.000000).
  Core radius for overlap checks: 1.63 bohrs.
  Reading pulay file /home/gridsan/aligho/DFT/build-Nov24/pseudopotentials/SG15/Li_ONCV_PBE.pulay ... using dE_dnG = -1.230239e-02 computed for Ecut = 20.

Initialized 1 species with 1 total atoms.

Folded 1 k-points by 12x12x1 to 144 k-points.

---------- Setting up k-points, bands, fillings ----------
Reduced to 19 k-points under symmetry. 
Computing the number of bands and number of electrons
Calculating initial fillings.
nElectrons:   3.000000   nBands: 3   nStates: 38

----- Setting up reduced wavefunction bases (one per k-point) -----
average nbasis = 52924.021 , ideal nbasis = 52918.836

---------- Setting up coulomb interaction ----------
Initialized slab truncation along lattice direction 001

---------- Setting up 2D ewald sum ----------
Optimum gaussian width for ewald sums = 10.498040 bohr.
Real space sums over 289 unit cells with max indices [  8  8  0  ]
Reciprocal space sums over 81 terms with max indices [  4  4  0  ]

---------- Allocating electronic variables ----------
Initializing wave functions:  linear combination of atomic orbitals
Note: number of bands (3) exceeds available atomic orbitals (2)
Li pseudo-atom occupations:   s ( 2 1 )
	FillingsUpdate:  mu: +0.359555078  nElectrons: 3.000000  magneticMoment: [ Abs: 0.64000  Tot: +0.64000 ]
LCAOMinimize: Iter:   0  F: -1.3080304173302215  |grad|_K:  3.956e-05  alpha:  1.000e+00
	FillingsUpdate:  mu: +0.359554569  nElectrons: 3.000000  magneticMoment: [ Abs: 0.64000  Tot: +0.64000 ]
LCAOMinimize: Iter:   1  F: -1.3080307006317697  |grad|_K:  1.560e-07  alpha:  1.059e+00  linmin: -5.958e-03  cgtest:  1.758e-02  t[s]:     12.57
LCAOMinimize: Encountered beta<0, resetting CG.
	FillingsUpdate:  mu: +0.359554569  nElectrons: 3.000000  magneticMoment: [ Abs: 0.64000  Tot: +0.64000 ]
LCAOMinimize: Iter:   2  F: -1.3080307006378626  |grad|_K:  1.015e-08  alpha:  1.091e+00  linmin:  1.756e-02  cgtest: -6.678e-01  t[s]:     15.77
LCAOMinimize: Converged (|Delta F|<1.000000e-06 for 2 iters).


---- Citations for features of the code used in this run ----

   Software package:
      R. Sundararaman, K. Letchworth-Weaver, K.A. Schwarz, D. Gunceler, Y. Ozhabes and T.A. Arias, 'JDFTx: software for joint density-functional theory', SoftwareX 6, 278 (2017)

   gga-PBE exchange-correlation functional:
      J.P. Perdew, K. Burke and M. Ernzerhof, Phys. Rev. Lett. 77, 3865 (1996)

   Pseudopotentials:
      M Schlipf and F Gygi, Comput. Phys. Commun. 196, 36 (2015)

   Truncated Coulomb potentials:
      R. Sundararaman and T.A. Arias, Phys. Rev. B 87, 165122 (2013)

This list may not be complete. Please suggest additional citations or
report any other bugs at https://github.com/shankar1729/jdftx/issues

Initialization completed successfully at t[s]:     15.90


-------- Electronic minimization -----------
Will mix electronic density at each iteration.
	FillingsUpdate:  mu: +0.359554569  nElectrons: 3.000000  magneticMoment: [ Abs: 0.64000  Tot: +0.64000 ]
	FillingsUpdate:  mu: -0.610631607  nElectrons: 3.000000  magneticMoment: [ Abs: 0.64000  Tot: +0.64000 ]
SCF: Cycle:  0   F: -6.878686156479667   dF: -5.571e+00   |Residual|: 1.230e+00   |deigs|: 4.155e+00  t[s]:     21.46
	FillingsUpdate:  mu: -0.484748047  nElectrons: 3.000000  magneticMoment: [ Abs: 1.09774  Tot: +0.64000 ]
SCF: Cycle:  1   F: -6.916714877281607   dF: -3.803e-02   |Residual|: 7.627e-01   |deigs|: 2.766e-01  t[s]:     25.96
	FillingsUpdate:  mu: -0.278727156  nElectrons: 3.000000  magneticMoment: [ Abs: 1.41744  Tot: +0.64000 ]
SCF: Cycle:  2   F: -7.037232754566131   dF: -1.205e-01   |Residual|: 3.202e-01   |deigs|: 7.027e-01  t[s]:     30.57
	FillingsUpdate:  mu: -0.285504380  nElectrons: 3.000000  magneticMoment: [ Abs: 1.26648  Tot: +0.64000 ]
SCF: Cycle:  3   F: -7.037480178041157   dF: -2.474e-04   |Residual|: 1.732e-01   |deigs|: 7.927e-02  t[s]:     35.23
	FillingsUpdate:  mu: -0.235369315  nElectrons: 3.000000  magneticMoment: [ Abs: 1.09922  Tot: +0.64000 ]
SCF: Cycle:  4   F: -7.040941067570757   dF: -3.461e-03   |Residual|: 4.573e-02   |deigs|: 4.363e-02  t[s]:     40.02
	FillingsUpdate:  mu: -0.221571391  nElectrons: 3.000000  magneticMoment: [ Abs: 1.08667  Tot: +0.64000 ]
SCF: Cycle:  5   F: -7.042122842947748   dF: -1.182e-03   |Residual|: 7.981e-02   |deigs|: 1.445e-02  t[s]:     44.92
	FillingsUpdate:  mu: -0.200261043  nElectrons: 3.000000  magneticMoment: [ Abs: 0.92356  Tot: +0.64000 ]
SCF: Cycle:  6   F: -7.044221259416223   dF: -2.098e-03   |Residual|: 2.577e-02   |deigs|: 4.895e-02  t[s]:     49.94
	FillingsUpdate:  mu: -0.183733569  nElectrons: 3.000000  magneticMoment: [ Abs: 0.82570  Tot: +0.64000 ]
SCF: Cycle:  7   F: -7.046185518887522   dF: -1.964e-03   |Residual|: 5.056e-02   |deigs|: 4.339e-02  t[s]:     55.08
	FillingsUpdate:  mu: -0.183678431  nElectrons: 3.000000  magneticMoment: [ Abs: 0.77439  Tot: +0.64000 ]
SCF: Cycle:  8   F: -7.046725636039736   dF: -5.401e-04   |Residual|: 3.730e-02   |deigs|: 4.443e-03  t[s]:     60.28
	FillingsUpdate:  mu: -0.180933355  nElectrons: 3.000000  magneticMoment: [ Abs: 0.73533  Tot: +0.64000 ]
SCF: Cycle:  9   F: -7.047523843407682   dF: -7.982e-04   |Residual|: 2.807e-02   |deigs|: 2.318e-02  t[s]:     65.63
	FillingsUpdate:  mu: -0.167787576  nElectrons: 3.000000  magneticMoment: [ Abs: 0.67567  Tot: +0.64000 ]
SCF: Cycle: 10   F: -7.047954790514556   dF: -4.309e-04   |Residual|: 2.603e-02   |deigs|: 1.292e-02  t[s]:     70.99
	FillingsUpdate:  mu: -0.157656104  nElectrons: 3.000000  magneticMoment: [ Abs: 0.71159  Tot: +0.64000 ]
SCF: Cycle: 11   F: -7.048035331015894   dF: -8.054e-05   |Residual|: 1.156e-02   |deigs|: 1.563e-02  t[s]:     76.43
	FillingsUpdate:  mu: -0.148924919  nElectrons: 3.000000  magneticMoment: [ Abs: 0.74635  Tot: +0.64000 ]
SCF: Cycle: 12   F: -7.048204112271208   dF: -1.688e-04   |Residual|: 1.271e-02   |deigs|: 7.771e-03  t[s]:     81.87
	FillingsUpdate:  mu: -0.128098257  nElectrons: 3.000000  magneticMoment: [ Abs: 0.79458  Tot: +0.64000 ]
SCF: Cycle: 13   F: -7.048320177792080   dF: -1.161e-04   |Residual|: 6.459e-03   |deigs|: 2.530e-02  t[s]:     87.24
	FillingsUpdate:  mu: -0.121383332  nElectrons: 3.000000  magneticMoment: [ Abs: 0.79445  Tot: +0.64000 ]
SCF: Cycle: 14   F: -7.048293729014963   dF: +2.645e-05   |Residual|: 5.685e-03   |deigs|: 6.938e-03  t[s]:     92.70
	FillingsUpdate:  mu: -0.114999964  nElectrons: 3.000000  magneticMoment: [ Abs: 0.77124  Tot: +0.64000 ]
SCF: Cycle: 15   F: -7.048345043700577   dF: -5.131e-05   |Residual|: 4.131e-03   |deigs|: 6.223e-03  t[s]:     98.04
	FillingsUpdate:  mu: -0.110575258  nElectrons: 3.000000  magneticMoment: [ Abs: 0.75072  Tot: +0.64000 ]
SCF: Cycle: 16   F: -7.048345870425188   dF: -8.267e-07   |Residual|: 3.231e-03   |deigs|: 4.319e-03  t[s]:    103.39
	FillingsUpdate:  mu: -0.106999765  nElectrons: 3.000000  magneticMoment: [ Abs: 0.72237  Tot: +0.64000 ]
SCF: Cycle: 17   F: -7.048325406166783   dF: +2.046e-05   |Residual|: 2.771e-03   |deigs|: 3.683e-03  t[s]:    108.82
	FillingsUpdate:  mu: -0.104180505  nElectrons: 3.000000  magneticMoment: [ Abs: 0.70393  Tot: +0.64000 ]
SCF: Cycle: 18   F: -7.048373533285954   dF: -4.813e-05   |Residual|: 2.011e-03   |deigs|: 3.339e-03  t[s]:    114.22
	FillingsUpdate:  mu: -0.103010338  nElectrons: 3.000000  magneticMoment: [ Abs: 0.68361  Tot: +0.64000 ]
SCF: Cycle: 19   F: -7.048424823076045   dF: -5.129e-05   |Residual|: 1.469e-03   |deigs|: 1.610e-03  t[s]:    119.60
	FillingsUpdate:  mu: -0.102071419  nElectrons: 3.000000  magneticMoment: [ Abs: 0.67448  Tot: +0.64000 ]
SCF: Cycle: 20   F: -7.048446920592716   dF: -2.210e-05   |Residual|: 1.093e-03   |deigs|: 1.021e-03  t[s]:    124.96
	FillingsUpdate:  mu: -0.101485991  nElectrons: 3.000000  magneticMoment: [ Abs: 0.66361  Tot: +0.64000 ]
SCF: Cycle: 21   F: -7.048465286025701   dF: -1.837e-05   |Residual|: 7.706e-04   |deigs|: 8.038e-04  t[s]:    130.40
	FillingsUpdate:  mu: -0.101942993  nElectrons: 3.000000  magneticMoment: [ Abs: 0.65540  Tot: +0.64000 ]
SCF: Cycle: 22   F: -7.048470215263401   dF: -4.929e-06   |Residual|: 5.810e-04   |deigs|: 5.284e-04  t[s]:    135.86
	FillingsUpdate:  mu: -0.102106331  nElectrons: 3.000000  magneticMoment: [ Abs: 0.64726  Tot: +0.64000 ]
SCF: Cycle: 23   F: -7.048478283744255   dF: -8.068e-06   |Residual|: 3.748e-04   |deigs|: 4.372e-04  t[s]:    141.27
	FillingsUpdate:  mu: -0.102443072  nElectrons: 3.000000  magneticMoment: [ Abs: 0.64344  Tot: +0.64000 ]
SCF: Cycle: 24   F: -7.048482349908731   dF: -4.066e-06   |Residual|: 2.452e-04   |deigs|: 4.793e-04  t[s]:    146.74
	FillingsUpdate:  mu: -0.102422667  nElectrons: 3.000000  magneticMoment: [ Abs: 0.64229  Tot: +0.64000 ]
SCF: Cycle: 25   F: -7.048483366463409   dF: -1.017e-06   |Residual|: 1.397e-04   |deigs|: 1.621e-04  t[s]:    152.14
	FillingsUpdate:  mu: -0.102412912  nElectrons: 3.000000  magneticMoment: [ Abs: 0.64153  Tot: +0.64000 ]
SCF: Cycle: 26   F: -7.048483541709934   dF: -1.752e-07   |Residual|: 7.968e-05   |deigs|: 1.037e-04  t[s]:    157.62
	FillingsUpdate:  mu: -0.102413525  nElectrons: 3.000000  magneticMoment: [ Abs: 0.64103  Tot: +0.64000 ]
SCF: Cycle: 27   F: -7.048483605323424   dF: -6.361e-08   |Residual|: 6.007e-05   |deigs|: 7.230e-05  t[s]:    163.02
	FillingsUpdate:  mu: -0.102439464  nElectrons: 3.000000  magneticMoment: [ Abs: 0.64072  Tot: +0.64000 ]
SCF: Cycle: 28   F: -7.048483603229928   dF: +2.093e-09   |Residual|: 4.540e-05   |deigs|: 7.031e-05  t[s]:    168.43
	FillingsUpdate:  mu: -0.102451880  nElectrons: 3.000000  magneticMoment: [ Abs: 0.64055  Tot: +0.64000 ]
SCF: Cycle: 29   F: -7.048483627301036   dF: -2.407e-08   |Residual|: 3.678e-05   |deigs|: 4.428e-05  t[s]:    173.88
	FillingsUpdate:  mu: -0.102465116  nElectrons: 3.000000  magneticMoment: [ Abs: 0.64048  Tot: +0.64000 ]
SCF: Cycle: 30   F: -7.048483672670062   dF: -4.537e-08   |Residual|: 2.878e-05   |deigs|: 3.439e-05  t[s]:    179.29
	FillingsUpdate:  mu: -0.102460677  nElectrons: 3.000000  magneticMoment: [ Abs: 0.64034  Tot: +0.64000 ]
SCF: Cycle: 31   F: -7.048483686350374   dF: -1.368e-08   |Residual|: 1.994e-05   |deigs|: 3.012e-05  t[s]:    184.72
	FillingsUpdate:  mu: -0.102451323  nElectrons: 3.000000  magneticMoment: [ Abs: 0.64017  Tot: +0.64000 ]
SCF: Cycle: 32   F: -7.048483686591554   dF: -2.412e-10   |Residual|: 1.405e-05   |deigs|: 2.957e-05  t[s]:    190.09
	FillingsUpdate:  mu: -0.102444387  nElectrons: 3.000000  magneticMoment: [ Abs: 0.64005  Tot: +0.64000 ]
SCF: Cycle: 33   F: -7.048483668731695   dF: +1.786e-08   |Residual|: 9.774e-06   |deigs|: 2.567e-05  t[s]:    195.58
	FillingsUpdate:  mu: -0.102440389  nElectrons: 3.000000  magneticMoment: [ Abs: 0.64002  Tot: +0.64000 ]
SCF: Cycle: 34   F: -7.048483687590493   dF: -1.886e-08   |Residual|: 7.471e-06   |deigs|: 2.327e-05  t[s]:    201.03
	FillingsUpdate:  mu: -0.102439088  nElectrons: 3.000000  magneticMoment: [ Abs: 0.64001  Tot: +0.64000 ]
SCF: Cycle: 35   F: -7.048483713370517   dF: -2.578e-08   |Residual|: 6.004e-06   |deigs|: 2.220e-05  t[s]:    206.43
	FillingsUpdate:  mu: -0.102438656  nElectrons: 3.000000  magneticMoment: [ Abs: 0.64001  Tot: +0.64000 ]
SCF: Cycle: 36   F: -7.048483718879779   dF: -5.509e-09   |Residual|: 4.525e-06   |deigs|: 2.104e-05  t[s]:    211.85
	FillingsUpdate:  mu: -0.102437872  nElectrons: 3.000000  magneticMoment: [ Abs: 0.64000  Tot: +0.64000 ]
SCF: Cycle: 37   F: -7.048483719936004   dF: -1.056e-09   |Residual|: 3.529e-06   |deigs|: 2.027e-05  t[s]:    217.32
SCF: Converged (|Delta E|<1.000000e-08 for 2 iters).


# Ionic positions in lattice coordinates:
ion Li   0.000000000000000   0.000000000000000   0.000000000000000 0

# Forces in Lattice coordinates:
force Li   0.000000000000000   0.000000000000000   0.000000000000000 0

# Energy components:
   Eewald =       -1.0026681166851483
       EH =        2.5552963886343658
     Eloc =       -8.2352689428776582
      Enl =       -3.6046987212602493
   Epulay =        0.0000051497655618
      Exc =       -1.5403884370040424
       KE =        4.7792406206277969
-------------------------------------
     Etot =       -7.0484820587993733
       TS =        0.0000016611366311
-------------------------------------
        F =       -7.0484837199360042

IonicMinimize: Iter:   0  F: -7.048483719936004  |grad|_K:  0.000e+00  t[s]:    217.56
IonicMinimize: Converged (|grad|_K<1.000000e-04).

#--- Lowdin population analysis ---
# oxidation-state Li +2.072
# magnetic-moments Li +0.593

End date and time: Sat Feb  5 23:13:19 2022  (Duration: 0-0:03:37.59)
Done!
