
*************** JDFTx 1.6.0 (git hash 42ebbcc2) ***************

Start date and time: Sat Feb  5 23:09:39 2022
Executable jdftx with command-line: -i Alkali.in
Running on hosts (process indices):  d-3-7-3 (0-18)
Divided in process groups (process indices):  0 (0)  1 (1)  2 (2)  3 (3)  4 (4)  5 (5)  6 (6)  7 (7)  8 (8)  9 (9)  10 (10)  11 (11)  12 (12)  13 (13)  14 (14)  15 (15)  16 (16)  17 (17)  18 (18)
Resource initialization completed at t[s]:      0.00
Run totals: 19 processes, 48 threads, 0 GPUs


Input parsed successfully to the following command list (including defaults):

basis kpoint-dependent
coords-type Lattice
core-overlap-check vector
coulomb-interaction Slab 001
davidson-band-ratio 1.1
dump End None
dump-name $INPUT.$VAR
elec-cutoff 20
elec-eigen-algo Davidson
elec-ex-corr gga-PBE
elec-initial-magnetization 0.500000 yes
elec-smearing Fermi 1e-05
electronic-minimize  \
	dirUpdateScheme      FletcherReeves \
	linminMethod         DirUpdateRecommended \
	nIterations          100 \
	history              15 \
	knormThreshold       0 \
	energyDiffThreshold  1e-08 \
	nEnergyDiff          2 \
	alphaTstart          1 \
	alphaTmin            1e-10 \
	updateTestStepSize   yes \
	alphaTreduceFactor   0.1 \
	alphaTincreaseFactor 3 \
	nAlphaAdjustMax      3 \
	wolfeEnergy          0.0001 \
	wolfeGradient        0.9 \
	fdTest               no
electronic-scf  \
	nIterations	10000 \
	energyDiffThreshold	1e-08 \
	residualThreshold	1e-07 \
	mixFraction	0.5 \
	qMetric	0.8 \
	history	10 \
	nEigSteps	2 \
	eigDiffThreshold	1e-08 \
	mixedVariable	Density \
	qKerker	0.8 \
	qKappa	-1 \
	verbose	no \
	mixFractionMag	1.5
exchange-regularization WignerSeitzTruncated
fluid None
fluid-ex-corr (null) lda-PZ
fluid-gummel-loop 10 1.000000e-05
fluid-minimize  \
	dirUpdateScheme      PolakRibiere \
	linminMethod         DirUpdateRecommended \
	nIterations          100 \
	history              15 \
	knormThreshold       0 \
	energyDiffThreshold  0 \
	nEnergyDiff          2 \
	alphaTstart          1 \
	alphaTmin            1e-10 \
	updateTestStepSize   yes \
	alphaTreduceFactor   0.1 \
	alphaTincreaseFactor 3 \
	nAlphaAdjustMax      3 \
	wolfeEnergy          0.0001 \
	wolfeGradient        0.9 \
	fdTest               no
fluid-solvent H2O 55.338 ScalarEOS \
	epsBulk 78.4 \
	pMol 0.92466 \
	epsInf 1.77 \
	Pvap 1.06736e-10 \
	sigmaBulk 4.62e-05 \
	Rvdw 2.61727 \
	Res 1.42 \
	tauNuc 343133 \
	poleEl 15 7 1
forces-output-coords Positions
ion Li   0.000000000000000   0.000000000000000   0.000000000000000 0
ion-species SG15/$ID_ONCV_PBE.upf
ion-width 0
ionic-minimize  \
	dirUpdateScheme      L-BFGS \
	linminMethod         DirUpdateRecommended \
	nIterations          0 \
	history              15 \
	knormThreshold       0.0001 \
	energyDiffThreshold  1e-06 \
	nEnergyDiff          2 \
	alphaTstart          1 \
	alphaTmin            1e-10 \
	updateTestStepSize   yes \
	alphaTreduceFactor   0.1 \
	alphaTincreaseFactor 3 \
	nAlphaAdjustMax      3 \
	wolfeEnergy          0.0001 \
	wolfeGradient        0.9 \
	fdTest               no
kpoint   0.000000000000   0.000000000000   0.000000000000  1.00000000000000
kpoint-folding 12 12 1 
latt-move-scale 1 1 1
latt-scale 4 4 1 
lattice  \
	   4.727486978767153   -2.363743489383575    0.000000000000000  \
	  -0.000000000000000    4.094123819672498    0.000000000000000  \
	   0.000000000000000    0.000000000000000   40.000000000000000 
lattice-minimize  \
	dirUpdateScheme      L-BFGS \
	linminMethod         DirUpdateRecommended \
	nIterations          0 \
	history              15 \
	knormThreshold       0 \
	energyDiffThreshold  1e-06 \
	nEnergyDiff          2 \
	alphaTstart          1 \
	alphaTmin            1e-10 \
	updateTestStepSize   yes \
	alphaTreduceFactor   0.1 \
	alphaTincreaseFactor 3 \
	nAlphaAdjustMax      3 \
	wolfeEnergy          0.0001 \
	wolfeGradient        0.9 \
	fdTest               no
lcao-params -1 1e-06 1e-05
pcm-variant GLSSA13
spintype z-spin
subspace-rotation-factor 1 yes
symmetries automatic
symmetry-threshold 0.0001



---------- Setting up symmetries ----------

Found 24 point-group symmetries of the bravais lattice
Found 24 space-group symmetries with basis
Applied RMS atom displacement 0 bohrs to make symmetries exact.

---------- Initializing the Grid ----------
R = 
[      18.9099     -9.45497            0  ]
[            0      16.3765            0  ]
[            0            0           40  ]
unit cell volume = 12387.1
G =
[   0.332269   0.191835         -0  ]
[          0   0.383671         -0  ]
[         -0         -0    0.15708  ]
Minimum fftbox size, Smin = [  80  80  164  ]
Chosen fftbox size, S = [  80  80  168  ]

---------- Exchange Correlation functional ----------
Initalized PBE GGA exchange.
Initalized PBE GGA correlation.

---------- Setting up pseudopotentials ----------
Width of ionic core gaussian charges (only for fluid interactions / plotting) set to 0

Reading pseudopotential file '/home/gridsan/aligho/DFT/build-Nov24/pseudopotentials/SG15/Li_ONCV_PBE.upf':
  'Li' pseudopotential, 'PBE' functional
  Generated using ONCVPSP code by D. R. Hamann
  Author: Martin Schlipf and Francois Gygi  Date: 150915.
  3 valence electrons, 2 orbitals, 4 projectors, 1328 radial grid points, with lMax = 1
  Transforming local potential to a uniform radial grid of dG=0.02 with 1489 points.
  Transforming nonlocal projectors to a uniform radial grid of dG=0.02 with 432 points.
    1S    l: 0   occupation:  2.0   eigenvalue: -1.905623
    2S    l: 0   occupation:  1.0   eigenvalue: -0.105624
  Transforming atomic orbitals to a uniform radial grid of dG=0.02 with 432 points.
  WARNING: large normalization error in atomic orbital 1s (integral: 0.000000).
  Core radius for overlap checks: 1.63 bohrs.
  Reading pulay file /home/gridsan/aligho/DFT/build-Nov24/pseudopotentials/SG15/Li_ONCV_PBE.pulay ... using dE_dnG = -1.230239e-02 computed for Ecut = 20.

Initialized 1 species with 1 total atoms.

Folded 1 k-points by 12x12x1 to 144 k-points.

---------- Setting up k-points, bands, fillings ----------
Reduced to 19 k-points under symmetry. 
Computing the number of bands and number of electrons
Calculating initial fillings.
nElectrons:   3.000000   nBands: 3   nStates: 38

----- Setting up reduced wavefunction bases (one per k-point) -----
average nbasis = 52924.021 , ideal nbasis = 52918.836

---------- Setting up coulomb interaction ----------
Initialized slab truncation along lattice direction 001

---------- Setting up 2D ewald sum ----------
Optimum gaussian width for ewald sums = 10.498040 bohr.
Real space sums over 289 unit cells with max indices [  8  8  0  ]
Reciprocal space sums over 81 terms with max indices [  4  4  0  ]

---------- Allocating electronic variables ----------
Initializing wave functions:  linear combination of atomic orbitals
Note: number of bands (3) exceeds available atomic orbitals (2)
Li pseudo-atom occupations:   s ( 2 1 )
	FillingsUpdate:  mu: +0.360050456  nElectrons: 3.000000  magneticMoment: [ Abs: 0.50000  Tot: +0.50000 ]
LCAOMinimize: Iter:   0  F: -1.3092723895835170  |grad|_K:  3.975e-05  alpha:  1.000e+00
	FillingsUpdate:  mu: +0.360095247  nElectrons: 3.000000  magneticMoment: [ Abs: 0.50000  Tot: +0.50000 ]
LCAOMinimize: Iter:   1  F: -1.3092726756275499  |grad|_K:  1.070e-07  alpha:  1.059e+00  linmin: -1.043e-02  cgtest:  3.134e-02  t[s]:     12.38
LCAOMinimize: Encountered beta<0, resetting CG.
LCAOMinimize: 	Wrong curvature in test step, increasing alphaT to 3.175745e+00.
	FillingsUpdate:  mu: +0.360096995  nElectrons: 3.000000  magneticMoment: [ Abs: 0.50000  Tot: +0.50000 ]
LCAOMinimize: Iter:   2  F: -1.3092726756337563  |grad|_K:  5.404e-09  alpha: -1.067e+00  linmin:  8.227e-03  cgtest: -4.114e-01  t[s]:     15.57
LCAOMinimize: Converged (|Delta F|<1.000000e-06 for 2 iters).


---- Citations for features of the code used in this run ----

   Software package:
      R. Sundararaman, K. Letchworth-Weaver, K.A. Schwarz, D. Gunceler, Y. Ozhabes and T.A. Arias, 'JDFTx: software for joint density-functional theory', SoftwareX 6, 278 (2017)

   gga-PBE exchange-correlation functional:
      J.P. Perdew, K. Burke and M. Ernzerhof, Phys. Rev. Lett. 77, 3865 (1996)

   Pseudopotentials:
      M Schlipf and F Gygi, Comput. Phys. Commun. 196, 36 (2015)

   Truncated Coulomb potentials:
      R. Sundararaman and T.A. Arias, Phys. Rev. B 87, 165122 (2013)

This list may not be complete. Please suggest additional citations or
report any other bugs at https://github.com/shankar1729/jdftx/issues

Initialization completed successfully at t[s]:     15.70


-------- Electronic minimization -----------
Will mix electronic density at each iteration.
	FillingsUpdate:  mu: +0.360096995  nElectrons: 3.000000  magneticMoment: [ Abs: 0.50000  Tot: +0.50000 ]
	FillingsUpdate:  mu: -0.612563919  nElectrons: 3.000000  magneticMoment: [ Abs: 0.50000  Tot: +0.50000 ]
SCF: Cycle:  0   F: -6.874209146035112   dF: -5.565e+00   |Residual|: 1.230e+00   |deigs|: 4.155e+00  t[s]:     21.29
	FillingsUpdate:  mu: -0.487244580  nElectrons: 3.000000  magneticMoment: [ Abs: 0.85865  Tot: +0.50000 ]
SCF: Cycle:  1   F: -6.916798909872519   dF: -4.259e-02   |Residual|: 7.617e-01   |deigs|: 2.767e-01  t[s]:     25.72
	FillingsUpdate:  mu: -0.269349697  nElectrons: 3.000000  magneticMoment: [ Abs: 1.10693  Tot: +0.50000 ]
SCF: Cycle:  2   F: -7.036887999344326   dF: -1.201e-01   |Residual|: 3.200e-01   |deigs|: 7.040e-01  t[s]:     30.23
	FillingsUpdate:  mu: -0.278140277  nElectrons: 3.000000  magneticMoment: [ Abs: 1.00796  Tot: +0.50000 ]
SCF: Cycle:  3   F: -7.037202536184142   dF: -3.145e-04   |Residual|: 1.829e-01   |deigs|: 7.392e-02  t[s]:     34.93
	FillingsUpdate:  mu: -0.232369857  nElectrons: 3.000000  magneticMoment: [ Abs: 0.89114  Tot: +0.50000 ]
SCF: Cycle:  4   F: -7.038851422162837   dF: -1.649e-03   |Residual|: 5.333e-02   |deigs|: 3.824e-02  t[s]:     39.72
	FillingsUpdate:  mu: -0.220647988  nElectrons: 3.000000  magneticMoment: [ Abs: 0.88941  Tot: +0.50000 ]
SCF: Cycle:  5   F: -7.039834594651843   dF: -9.832e-04   |Residual|: 9.832e-02   |deigs|: 1.241e-02  t[s]:     44.56
	FillingsUpdate:  mu: -0.197522312  nElectrons: 3.000000  magneticMoment: [ Abs: 0.74175  Tot: +0.50000 ]
SCF: Cycle:  6   F: -7.042884920107434   dF: -3.050e-03   |Residual|: 2.192e-02   |deigs|: 5.937e-02  t[s]:     49.49
	FillingsUpdate:  mu: -0.182942838  nElectrons: 3.000000  magneticMoment: [ Abs: 0.63130  Tot: +0.50000 ]
SCF: Cycle:  7   F: -7.044600383731741   dF: -1.715e-03   |Residual|: 7.911e-02   |deigs|: 4.723e-02  t[s]:     54.57
	FillingsUpdate:  mu: -0.184741920  nElectrons: 3.000000  magneticMoment: [ Abs: 0.59402  Tot: +0.50000 ]
SCF: Cycle:  8   F: -7.044982527569449   dF: -3.821e-04   |Residual|: 4.784e-02   |deigs|: 1.172e-02  t[s]:     59.78
	FillingsUpdate:  mu: -0.183950344  nElectrons: 3.000000  magneticMoment: [ Abs: 0.57374  Tot: +0.50000 ]
SCF: Cycle:  9   F: -7.045754116413717   dF: -7.716e-04   |Residual|: 7.013e-02   |deigs|: 4.321e-02  t[s]:     65.08
	FillingsUpdate:  mu: -0.165975753  nElectrons: 3.000000  magneticMoment: [ Abs: 0.53576  Tot: +0.50000 ]
SCF: Cycle: 10   F: -7.046387082222641   dF: -6.330e-04   |Residual|: 1.336e-02   |deigs|: 3.601e-02  t[s]:     70.43
	FillingsUpdate:  mu: -0.153517475  nElectrons: 3.000000  magneticMoment: [ Abs: 0.58747  Tot: +0.50000 ]
SCF: Cycle: 11   F: -7.046511791912753   dF: -1.247e-04   |Residual|: 3.458e-02   |deigs|: 1.914e-02  t[s]:     75.78
	FillingsUpdate:  mu: -0.150103907  nElectrons: 3.000000  magneticMoment: [ Abs: 0.57880  Tot: +0.50000 ]
SCF: Cycle: 12   F: -7.046630780680452   dF: -1.190e-04   |Residual|: 1.170e-02   |deigs|: 1.273e-02  t[s]:     81.17
	FillingsUpdate:  mu: -0.128509232  nElectrons: 3.000000  magneticMoment: [ Abs: 0.63709  Tot: +0.50000 ]
SCF: Cycle: 13   F: -7.046773628516397   dF: -1.428e-04   |Residual|: 6.627e-03   |deigs|: 2.404e-02  t[s]:     86.54
	FillingsUpdate:  mu: -0.122486337  nElectrons: 3.000000  magneticMoment: [ Abs: 0.63669  Tot: +0.50000 ]
SCF: Cycle: 14   F: -7.046790504643687   dF: -1.688e-05   |Residual|: 5.802e-03   |deigs|: 7.010e-03  t[s]:     91.94
	FillingsUpdate:  mu: -0.115428513  nElectrons: 3.000000  magneticMoment: [ Abs: 0.60984  Tot: +0.50000 ]
SCF: Cycle: 15   F: -7.046790853764235   dF: -3.491e-07   |Residual|: 4.083e-03   |deigs|: 6.214e-03  t[s]:     97.29
	FillingsUpdate:  mu: -0.111546636  nElectrons: 3.000000  magneticMoment: [ Abs: 0.59533  Tot: +0.50000 ]
SCF: Cycle: 16   F: -7.046809625153171   dF: -1.877e-05   |Residual|: 3.351e-03   |deigs|: 3.952e-03  t[s]:    102.71
	FillingsUpdate:  mu: -0.108228004  nElectrons: 3.000000  magneticMoment: [ Abs: 0.56366  Tot: +0.50000 ]
SCF: Cycle: 17   F: -7.046797070618393   dF: +1.255e-05   |Residual|: 2.398e-03   |deigs|: 3.195e-03  t[s]:    108.09
	FillingsUpdate:  mu: -0.106207260  nElectrons: 3.000000  magneticMoment: [ Abs: 0.55125  Tot: +0.50000 ]
SCF: Cycle: 18   F: -7.046829450467960   dF: -3.238e-05   |Residual|: 1.745e-03   |deigs|: 2.507e-03  t[s]:    113.48
	FillingsUpdate:  mu: -0.104761495  nElectrons: 3.000000  magneticMoment: [ Abs: 0.53898  Tot: +0.50000 ]
SCF: Cycle: 19   F: -7.046861277405549   dF: -3.183e-05   |Residual|: 1.341e-03   |deigs|: 1.968e-03  t[s]:    118.89
	FillingsUpdate:  mu: -0.103539866  nElectrons: 3.000000  magneticMoment: [ Abs: 0.53018  Tot: +0.50000 ]
SCF: Cycle: 20   F: -7.046885071152881   dF: -2.379e-05   |Residual|: 9.743e-04   |deigs|: 1.648e-03  t[s]:    124.26
	FillingsUpdate:  mu: -0.102871201  nElectrons: 3.000000  magneticMoment: [ Abs: 0.52225  Tot: +0.50000 ]
SCF: Cycle: 21   F: -7.046901969168950   dF: -1.690e-05   |Residual|: 7.161e-04   |deigs|: 7.764e-04  t[s]:    129.69
	FillingsUpdate:  mu: -0.102931498  nElectrons: 3.000000  magneticMoment: [ Abs: 0.51529  Tot: +0.50000 ]
SCF: Cycle: 22   F: -7.046914432858090   dF: -1.246e-05   |Residual|: 4.749e-04   |deigs|: 3.884e-04  t[s]:    135.13
	FillingsUpdate:  mu: -0.103315949  nElectrons: 3.000000  magneticMoment: [ Abs: 0.50900  Tot: +0.50000 ]
SCF: Cycle: 23   F: -7.046919643674544   dF: -5.211e-06   |Residual|: 3.210e-04   |deigs|: 6.156e-04  t[s]:    140.53
	FillingsUpdate:  mu: -0.103589639  nElectrons: 3.000000  magneticMoment: [ Abs: 0.50443  Tot: +0.50000 ]
SCF: Cycle: 24   F: -7.046920943648347   dF: -1.300e-06   |Residual|: 2.329e-04   |deigs|: 3.826e-04  t[s]:    145.86
	FillingsUpdate:  mu: -0.103707881  nElectrons: 3.000000  magneticMoment: [ Abs: 0.50242  Tot: +0.50000 ]
SCF: Cycle: 25   F: -7.046922140034646   dF: -1.196e-06   |Residual|: 1.278e-04   |deigs|: 1.913e-04  t[s]:    151.23
	FillingsUpdate:  mu: -0.103749609  nElectrons: 3.000000  magneticMoment: [ Abs: 0.50185  Tot: +0.50000 ]
SCF: Cycle: 26   F: -7.046922436865940   dF: -2.968e-07   |Residual|: 8.612e-05   |deigs|: 1.089e-04  t[s]:    156.65
	FillingsUpdate:  mu: -0.103783834  nElectrons: 3.000000  magneticMoment: [ Abs: 0.50099  Tot: +0.50000 ]
SCF: Cycle: 27   F: -7.046922503033633   dF: -6.617e-08   |Residual|: 5.292e-05   |deigs|: 9.884e-05  t[s]:    162.12
	FillingsUpdate:  mu: -0.103781679  nElectrons: 3.000000  magneticMoment: [ Abs: 0.50069  Tot: +0.50000 ]
SCF: Cycle: 28   F: -7.046922548645075   dF: -4.561e-08   |Residual|: 4.044e-05   |deigs|: 6.517e-05  t[s]:    167.47
	FillingsUpdate:  mu: -0.103777867  nElectrons: 3.000000  magneticMoment: [ Abs: 0.50045  Tot: +0.50000 ]
SCF: Cycle: 29   F: -7.046922551164021   dF: -2.519e-09   |Residual|: 3.327e-05   |deigs|: 4.957e-05  t[s]:    172.89
	FillingsUpdate:  mu: -0.103767312  nElectrons: 3.000000  magneticMoment: [ Abs: 0.50020  Tot: +0.50000 ]
SCF: Cycle: 30   F: -7.046922576792568   dF: -2.563e-08   |Residual|: 2.364e-05   |deigs|: 3.855e-05  t[s]:    178.30
	FillingsUpdate:  mu: -0.103759748  nElectrons: 3.000000  magneticMoment: [ Abs: 0.50011  Tot: +0.50000 ]
SCF: Cycle: 31   F: -7.046922576293444   dF: +4.991e-10   |Residual|: 1.829e-05   |deigs|: 3.198e-05  t[s]:    183.68
	FillingsUpdate:  mu: -0.103757825  nElectrons: 3.000000  magneticMoment: [ Abs: 0.50005  Tot: +0.50000 ]
SCF: Cycle: 32   F: -7.046922596464954   dF: -2.017e-08   |Residual|: 1.320e-05   |deigs|: 2.691e-05  t[s]:    189.05
	FillingsUpdate:  mu: -0.103758533  nElectrons: 3.000000  magneticMoment: [ Abs: 0.50002  Tot: +0.50000 ]
SCF: Cycle: 33   F: -7.046922592444383   dF: +4.021e-09   |Residual|: 1.083e-05   |deigs|: 2.419e-05  t[s]:    194.47
	FillingsUpdate:  mu: -0.103761035  nElectrons: 3.000000  magneticMoment: [ Abs: 0.50002  Tot: +0.50000 ]
SCF: Cycle: 34   F: -7.046922590595354   dF: +1.849e-09   |Residual|: 8.295e-06   |deigs|: 2.219e-05  t[s]:    199.88
	FillingsUpdate:  mu: -0.103762140  nElectrons: 3.000000  magneticMoment: [ Abs: 0.50002  Tot: +0.50000 ]
SCF: Cycle: 35   F: -7.046922598011719   dF: -7.416e-09   |Residual|: 6.510e-06   |deigs|: 2.089e-05  t[s]:    205.28
	FillingsUpdate:  mu: -0.103762819  nElectrons: 3.000000  magneticMoment: [ Abs: 0.50001  Tot: +0.50000 ]
SCF: Cycle: 36   F: -7.046922599402194   dF: -1.390e-09   |Residual|: 5.001e-06   |deigs|: 1.982e-05  t[s]:    210.74
SCF: Converged (|Delta E|<1.000000e-08 for 2 iters).


# Ionic positions in lattice coordinates:
ion Li   0.000000000000000   0.000000000000000   0.000000000000000 0

# Forces in Lattice coordinates:
force Li  -0.000000000000000   0.000000000000000   0.000000000000000 0

# Energy components:
   Eewald =       -1.0026681166851483
       EH =        2.5514470452764098
     Eloc =       -8.2304802283954341
      Enl =       -3.6041119983348526
   Epulay =        0.0000051497655618
      Exc =       -1.5378664142865026
       KE =        4.7767537366760155
-------------------------------------
     Etot =       -7.0469208259839515
       TS =        0.0000017734182429
-------------------------------------
        F =       -7.0469225994021940

IonicMinimize: Iter:   0  F: -7.046922599402194  |grad|_K:  0.000e+00  t[s]:    210.97
IonicMinimize: Converged (|grad|_K<1.000000e-04).

#--- Lowdin population analysis ---
# oxidation-state Li +2.076
# magnetic-moments Li +0.463

End date and time: Sat Feb  5 23:13:10 2022  (Duration: 0-0:03:31.00)
Done!
