
*************** JDFTx 1.6.0 (git hash 42ebbcc2) ***************

Start date and time: Sat Feb  5 23:16:13 2022
Executable jdftx with command-line: -i Alkali.in
Running on hosts (process indices):  d-6-13-4 (0-18)
Divided in process groups (process indices):  0 (0)  1 (1)  2 (2)  3 (3)  4 (4)  5 (5)  6 (6)  7 (7)  8 (8)  9 (9)  10 (10)  11 (11)  12 (12)  13 (13)  14 (14)  15 (15)  16 (16)  17 (17)  18 (18)
Resource initialization completed at t[s]:      0.00
Run totals: 19 processes, 48 threads, 0 GPUs


Input parsed successfully to the following command list (including defaults):

basis kpoint-dependent
coords-type Lattice
core-overlap-check vector
coulomb-interaction Slab 001
davidson-band-ratio 1.1
dump End None
dump-name $INPUT.$VAR
elec-cutoff 20
elec-eigen-algo Davidson
elec-ex-corr gga-PBE
elec-initial-magnetization 0.940000 yes
elec-smearing Fermi 1e-05
electronic-minimize  \
	dirUpdateScheme      FletcherReeves \
	linminMethod         DirUpdateRecommended \
	nIterations          100 \
	history              15 \
	knormThreshold       0 \
	energyDiffThreshold  1e-08 \
	nEnergyDiff          2 \
	alphaTstart          1 \
	alphaTmin            1e-10 \
	updateTestStepSize   yes \
	alphaTreduceFactor   0.1 \
	alphaTincreaseFactor 3 \
	nAlphaAdjustMax      3 \
	wolfeEnergy          0.0001 \
	wolfeGradient        0.9 \
	fdTest               no
electronic-scf  \
	nIterations	10000 \
	energyDiffThreshold	1e-08 \
	residualThreshold	1e-07 \
	mixFraction	0.5 \
	qMetric	0.8 \
	history	10 \
	nEigSteps	2 \
	eigDiffThreshold	1e-08 \
	mixedVariable	Density \
	qKerker	0.8 \
	qKappa	-1 \
	verbose	no \
	mixFractionMag	1.5
exchange-regularization WignerSeitzTruncated
fluid None
fluid-ex-corr (null) lda-PZ
fluid-gummel-loop 10 1.000000e-05
fluid-minimize  \
	dirUpdateScheme      PolakRibiere \
	linminMethod         DirUpdateRecommended \
	nIterations          100 \
	history              15 \
	knormThreshold       0 \
	energyDiffThreshold  0 \
	nEnergyDiff          2 \
	alphaTstart          1 \
	alphaTmin            1e-10 \
	updateTestStepSize   yes \
	alphaTreduceFactor   0.1 \
	alphaTincreaseFactor 3 \
	nAlphaAdjustMax      3 \
	wolfeEnergy          0.0001 \
	wolfeGradient        0.9 \
	fdTest               no
fluid-solvent H2O 55.338 ScalarEOS \
	epsBulk 78.4 \
	pMol 0.92466 \
	epsInf 1.77 \
	Pvap 1.06736e-10 \
	sigmaBulk 4.62e-05 \
	Rvdw 2.61727 \
	Res 1.42 \
	tauNuc 343133 \
	poleEl 15 7 1
forces-output-coords Positions
ion Li   0.000000000000000   0.000000000000000   0.000000000000000 0
ion-species SG15/$ID_ONCV_PBE.upf
ion-width 0
ionic-minimize  \
	dirUpdateScheme      L-BFGS \
	linminMethod         DirUpdateRecommended \
	nIterations          0 \
	history              15 \
	knormThreshold       0.0001 \
	energyDiffThreshold  1e-06 \
	nEnergyDiff          2 \
	alphaTstart          1 \
	alphaTmin            1e-10 \
	updateTestStepSize   yes \
	alphaTreduceFactor   0.1 \
	alphaTincreaseFactor 3 \
	nAlphaAdjustMax      3 \
	wolfeEnergy          0.0001 \
	wolfeGradient        0.9 \
	fdTest               no
kpoint   0.000000000000   0.000000000000   0.000000000000  1.00000000000000
kpoint-folding 12 12 1 
latt-move-scale 1 1 1
latt-scale 4 4 1 
lattice  \
	   4.727486978767153   -2.363743489383575    0.000000000000000  \
	  -0.000000000000000    4.094123819672498    0.000000000000000  \
	   0.000000000000000    0.000000000000000   40.000000000000000 
lattice-minimize  \
	dirUpdateScheme      L-BFGS \
	linminMethod         DirUpdateRecommended \
	nIterations          0 \
	history              15 \
	knormThreshold       0 \
	energyDiffThreshold  1e-06 \
	nEnergyDiff          2 \
	alphaTstart          1 \
	alphaTmin            1e-10 \
	updateTestStepSize   yes \
	alphaTreduceFactor   0.1 \
	alphaTincreaseFactor 3 \
	nAlphaAdjustMax      3 \
	wolfeEnergy          0.0001 \
	wolfeGradient        0.9 \
	fdTest               no
lcao-params -1 1e-06 1e-05
pcm-variant GLSSA13
spintype z-spin
subspace-rotation-factor 1 yes
symmetries automatic
symmetry-threshold 0.0001



---------- Setting up symmetries ----------

Found 24 point-group symmetries of the bravais lattice
Found 24 space-group symmetries with basis
Applied RMS atom displacement 0 bohrs to make symmetries exact.

---------- Initializing the Grid ----------
R = 
[      18.9099     -9.45497            0  ]
[            0      16.3765            0  ]
[            0            0           40  ]
unit cell volume = 12387.1
G =
[   0.332269   0.191835         -0  ]
[          0   0.383671         -0  ]
[         -0         -0    0.15708  ]
Minimum fftbox size, Smin = [  80  80  164  ]
Chosen fftbox size, S = [  80  80  168  ]

---------- Exchange Correlation functional ----------
Initalized PBE GGA exchange.
Initalized PBE GGA correlation.

---------- Setting up pseudopotentials ----------
Width of ionic core gaussian charges (only for fluid interactions / plotting) set to 0

Reading pseudopotential file '/home/gridsan/aligho/DFT/build-Nov24/pseudopotentials/SG15/Li_ONCV_PBE.upf':
  'Li' pseudopotential, 'PBE' functional
  Generated using ONCVPSP code by D. R. Hamann
  Author: Martin Schlipf and Francois Gygi  Date: 150915.
  3 valence electrons, 2 orbitals, 4 projectors, 1328 radial grid points, with lMax = 1
  Transforming local potential to a uniform radial grid of dG=0.02 with 1489 points.
  Transforming nonlocal projectors to a uniform radial grid of dG=0.02 with 432 points.
    1S    l: 0   occupation:  2.0   eigenvalue: -1.905623
    2S    l: 0   occupation:  1.0   eigenvalue: -0.105624
  Transforming atomic orbitals to a uniform radial grid of dG=0.02 with 432 points.
  WARNING: large normalization error in atomic orbital 1s (integral: 0.000000).
  Core radius for overlap checks: 1.63 bohrs.
  Reading pulay file /home/gridsan/aligho/DFT/build-Nov24/pseudopotentials/SG15/Li_ONCV_PBE.pulay ... using dE_dnG = -1.230239e-02 computed for Ecut = 20.

Initialized 1 species with 1 total atoms.

Folded 1 k-points by 12x12x1 to 144 k-points.

---------- Setting up k-points, bands, fillings ----------
Reduced to 19 k-points under symmetry. 
Computing the number of bands and number of electrons
Calculating initial fillings.
nElectrons:   3.000000   nBands: 3   nStates: 38

----- Setting up reduced wavefunction bases (one per k-point) -----
average nbasis = 52924.021 , ideal nbasis = 52918.836

---------- Setting up coulomb interaction ----------
Initialized slab truncation along lattice direction 001

---------- Setting up 2D ewald sum ----------
Optimum gaussian width for ewald sums = 10.498040 bohr.
Real space sums over 289 unit cells with max indices [  8  8  0  ]
Reciprocal space sums over 81 terms with max indices [  4  4  0  ]

---------- Allocating electronic variables ----------
Initializing wave functions:  linear combination of atomic orbitals
Note: number of bands (3) exceeds available atomic orbitals (2)
Li pseudo-atom occupations:   s ( 2 1 )
	FillingsUpdate:  mu: +0.361621242  nElectrons: 3.000000  magneticMoment: [ Abs: 0.94000  Tot: +0.94000 ]
LCAOMinimize: Iter:   0  F: -1.3040206154839433  |grad|_K:  3.999e-05  alpha:  1.000e+00
	FillingsUpdate:  mu: +0.361620971  nElectrons: 3.000000  magneticMoment: [ Abs: 0.94000  Tot: +0.94000 ]
LCAOMinimize: Iter:   1  F: -1.3040209050954199  |grad|_K:  1.703e-07  alpha:  1.059e+00  linmin: -1.632e-03  cgtest:  7.693e-03  t[s]:     12.71
LCAOMinimize: Encountered beta<0, resetting CG.
LCAOMinimize: 	Wrong curvature in test step, increasing alphaT to 3.177667e+00.
	FillingsUpdate:  mu: +0.361620971  nElectrons: 3.000000  magneticMoment: [ Abs: 0.94000  Tot: +0.94000 ]
LCAOMinimize: Iter:   2  F: -1.3040209051080538  |grad|_K:  7.509e-09  alpha: -2.606e+00  linmin: -1.601e-03  cgtest:  1.158e-01  t[s]:     15.95
LCAOMinimize: Encountered beta<0, resetting CG.
LCAOMinimize: Converged (|Delta F|<1.000000e-06 for 2 iters).


---- Citations for features of the code used in this run ----

   Software package:
      R. Sundararaman, K. Letchworth-Weaver, K.A. Schwarz, D. Gunceler, Y. Ozhabes and T.A. Arias, 'JDFTx: software for joint density-functional theory', SoftwareX 6, 278 (2017)

   gga-PBE exchange-correlation functional:
      J.P. Perdew, K. Burke and M. Ernzerhof, Phys. Rev. Lett. 77, 3865 (1996)

   Pseudopotentials:
      M Schlipf and F Gygi, Comput. Phys. Commun. 196, 36 (2015)

   Truncated Coulomb potentials:
      R. Sundararaman and T.A. Arias, Phys. Rev. B 87, 165122 (2013)

This list may not be complete. Please suggest additional citations or
report any other bugs at https://github.com/shankar1729/jdftx/issues

Initialization completed successfully at t[s]:     16.09


-------- Electronic minimization -----------
Will mix electronic density at each iteration.
	FillingsUpdate:  mu: +0.361620971  nElectrons: 3.000000  magneticMoment: [ Abs: 0.94000  Tot: +0.94000 ]
	FillingsUpdate:  mu: -0.610765857  nElectrons: 3.000000  magneticMoment: [ Abs: 0.94000  Tot: +0.94000 ]
SCF: Cycle:  0   F: -6.891630141689647   dF: -5.588e+00   |Residual|: 1.230e+00   |deigs|: 4.155e+00  t[s]:     21.77
	FillingsUpdate:  mu: -0.485570883  nElectrons: 3.000000  magneticMoment: [ Abs: 1.61121  Tot: +0.94000 ]
SCF: Cycle:  1   F: -6.915037581926274   dF: -2.341e-02   |Residual|: 7.659e-01   |deigs|: 2.759e-01  t[s]:     26.37
	FillingsUpdate:  mu: -0.291912952  nElectrons: 3.000000  magneticMoment: [ Abs: 2.08162  Tot: +0.94000 ]
SCF: Cycle:  2   F: -7.039895432513902   dF: -1.249e-01   |Residual|: 3.226e-01   |deigs|: 7.024e-01  t[s]:     30.97
	FillingsUpdate:  mu: -0.297268321  nElectrons: 3.000000  magneticMoment: [ Abs: 1.79603  Tot: +0.94000 ]
SCF: Cycle:  3   F: -7.040184674137330   dF: -2.892e-04   |Residual|: 1.470e-01   |deigs|: 9.339e-02  t[s]:     35.73
	FillingsUpdate:  mu: -0.244665008  nElectrons: 3.000000  magneticMoment: [ Abs: 1.56900  Tot: +0.94000 ]
SCF: Cycle:  4   F: -7.046177391464120   dF: -5.993e-03   |Residual|: 3.631e-02   |deigs|: 5.439e-02  t[s]:     40.61
	FillingsUpdate:  mu: -0.224777255  nElectrons: 3.000000  magneticMoment: [ Abs: 1.52143  Tot: +0.94000 ]
SCF: Cycle:  5   F: -7.047780943381776   dF: -1.604e-03   |Residual|: 5.394e-02   |deigs|: 1.934e-02  t[s]:     45.67
	FillingsUpdate:  mu: -0.197074369  nElectrons: 3.000000  magneticMoment: [ Abs: 1.31085  Tot: +0.94000 ]
SCF: Cycle:  6   F: -7.049580554102247   dF: -1.800e-03   |Residual|: 3.180e-02   |deigs|: 4.174e-02  t[s]:     50.84
	FillingsUpdate:  mu: -0.180609945  nElectrons: 3.000000  magneticMoment: [ Abs: 1.20306  Tot: +0.94000 ]
SCF: Cycle:  7   F: -7.051267366224518   dF: -1.687e-03   |Residual|: 2.591e-02   |deigs|: 3.731e-02  t[s]:     56.04
	FillingsUpdate:  mu: -0.175814809  nElectrons: 3.000000  magneticMoment: [ Abs: 1.13484  Tot: +0.94000 ]
SCF: Cycle:  8   F: -7.052015910209118   dF: -7.485e-04   |Residual|: 2.819e-02   |deigs|: 5.968e-03  t[s]:     61.40
	FillingsUpdate:  mu: -0.175867983  nElectrons: 3.000000  magneticMoment: [ Abs: 1.07538  Tot: +0.94000 ]
SCF: Cycle:  9   F: -7.052596203874091   dF: -5.803e-04   |Residual|: 1.226e-02   |deigs|: 1.034e-02  t[s]:     66.86
	FillingsUpdate:  mu: -0.166541330  nElectrons: 3.000000  magneticMoment: [ Abs: 1.00002  Tot: +0.94000 ]
SCF: Cycle: 10   F: -7.052855419229157   dF: -2.592e-04   |Residual|: 3.354e-02   |deigs|: 1.157e-02  t[s]:     72.37
	FillingsUpdate:  mu: -0.152020891  nElectrons: 3.000000  magneticMoment: [ Abs: 1.01012  Tot: +0.94000 ]
SCF: Cycle: 11   F: -7.052903967808884   dF: -4.855e-05   |Residual|: 9.905e-03   |deigs|: 1.923e-02  t[s]:     77.94
	FillingsUpdate:  mu: -0.141161441  nElectrons: 3.000000  magneticMoment: [ Abs: 1.07156  Tot: +0.94000 ]
SCF: Cycle: 12   F: -7.053078362251763   dF: -1.744e-04   |Residual|: 9.403e-03   |deigs|: 1.042e-02  t[s]:     83.46
	FillingsUpdate:  mu: -0.124927101  nElectrons: 3.000000  magneticMoment: [ Abs: 1.11437  Tot: +0.94000 ]
SCF: Cycle: 13   F: -7.053165318360717   dF: -8.696e-05   |Residual|: 6.589e-03   |deigs|: 1.806e-02  t[s]:     89.01
	FillingsUpdate:  mu: -0.116840290  nElectrons: 3.000000  magneticMoment: [ Abs: 1.12042  Tot: +0.94000 ]
SCF: Cycle: 14   F: -7.053140453158001   dF: +2.487e-05   |Residual|: 5.723e-03   |deigs|: 8.004e-03  t[s]:     94.60
	FillingsUpdate:  mu: -0.110061845  nElectrons: 3.000000  magneticMoment: [ Abs: 1.10531  Tot: +0.94000 ]
SCF: Cycle: 15   F: -7.053181217406330   dF: -4.076e-05   |Residual|: 4.784e-03   |deigs|: 5.898e-03  t[s]:    100.20
	FillingsUpdate:  mu: -0.104440640  nElectrons: 3.000000  magneticMoment: [ Abs: 1.06399  Tot: +0.94000 ]
SCF: Cycle: 16   F: -7.053217216858003   dF: -3.600e-05   |Residual|: 4.027e-03   |deigs|: 5.091e-03  t[s]:    105.75
	FillingsUpdate:  mu: -0.100862012  nElectrons: 3.000000  magneticMoment: [ Abs: 1.02492  Tot: +0.94000 ]
SCF: Cycle: 17   F: -7.053211563692493   dF: +5.653e-06   |Residual|: 3.512e-03   |deigs|: 4.639e-03  t[s]:    111.37
	FillingsUpdate:  mu: -0.096802779  nElectrons: 3.000000  magneticMoment: [ Abs: 1.00015  Tot: +0.94000 ]
SCF: Cycle: 18   F: -7.053275101071582   dF: -6.354e-05   |Residual|: 2.615e-03   |deigs|: 7.793e-03  t[s]:    117.02
	FillingsUpdate:  mu: -0.096609413  nElectrons: 3.000000  magneticMoment: [ Abs: 0.98591  Tot: +0.94000 ]
SCF: Cycle: 19   F: -7.053298353821665   dF: -2.325e-05   |Residual|: 1.861e-03   |deigs|: 2.177e-03  t[s]:    122.54
	FillingsUpdate:  mu: -0.095175231  nElectrons: 3.000000  magneticMoment: [ Abs: 0.98141  Tot: +0.94000 ]
SCF: Cycle: 20   F: -7.053317699539477   dF: -1.935e-05   |Residual|: 1.399e-03   |deigs|: 1.562e-03  t[s]:    128.10
	FillingsUpdate:  mu: -0.095136346  nElectrons: 3.000000  magneticMoment: [ Abs: 0.96562  Tot: +0.94000 ]
SCF: Cycle: 21   F: -7.053327075757156   dF: -9.376e-06   |Residual|: 9.295e-04   |deigs|: 6.750e-04  t[s]:    133.63
	FillingsUpdate:  mu: -0.095292371  nElectrons: 3.000000  magneticMoment: [ Abs: 0.95271  Tot: +0.94000 ]
SCF: Cycle: 22   F: -7.053333333257737   dF: -6.258e-06   |Residual|: 6.565e-04   |deigs|: 3.683e-04  t[s]:    139.15
	FillingsUpdate:  mu: -0.095917095  nElectrons: 3.000000  magneticMoment: [ Abs: 0.94304  Tot: +0.94000 ]
SCF: Cycle: 23   F: -7.053337069332846   dF: -3.736e-06   |Residual|: 4.283e-04   |deigs|: 7.596e-04  t[s]:    144.71
	FillingsUpdate:  mu: -0.096190734  nElectrons: 3.000000  magneticMoment: [ Abs: 0.94157  Tot: +0.94000 ]
SCF: Cycle: 24   F: -7.053340363899052   dF: -3.295e-06   |Residual|: 2.784e-04   |deigs|: 6.018e-04  t[s]:    150.26
	FillingsUpdate:  mu: -0.096306566  nElectrons: 3.000000  magneticMoment: [ Abs: 0.94221  Tot: +0.94000 ]
SCF: Cycle: 25   F: -7.053341038653151   dF: -6.748e-07   |Residual|: 1.593e-04   |deigs|: 4.721e-04  t[s]:    155.84
	FillingsUpdate:  mu: -0.096141836  nElectrons: 3.000000  magneticMoment: [ Abs: 0.94202  Tot: +0.94000 ]
SCF: Cycle: 26   F: -7.053341605485882   dF: -5.668e-07   |Residual|: 1.119e-04   |deigs|: 2.038e-04  t[s]:    161.34
	FillingsUpdate:  mu: -0.096121729  nElectrons: 3.000000  magneticMoment: [ Abs: 0.94157  Tot: +0.94000 ]
SCF: Cycle: 27   F: -7.053341632267947   dF: -2.678e-08   |Residual|: 8.929e-05   |deigs|: 1.050e-04  t[s]:    166.91
	FillingsUpdate:  mu: -0.096129682  nElectrons: 3.000000  magneticMoment: [ Abs: 0.94066  Tot: +0.94000 ]
SCF: Cycle: 28   F: -7.053341603526916   dF: +2.874e-08   |Residual|: 6.433e-05   |deigs|: 5.234e-05  t[s]:    172.42
	FillingsUpdate:  mu: -0.096124096  nElectrons: 3.000000  magneticMoment: [ Abs: 0.94032  Tot: +0.94000 ]
SCF: Cycle: 29   F: -7.053341686156209   dF: -8.263e-08   |Residual|: 5.135e-05   |deigs|: 3.939e-05  t[s]:    177.96
	FillingsUpdate:  mu: -0.096213770  nElectrons: 3.000000  magneticMoment: [ Abs: 0.94015  Tot: +0.94000 ]
SCF: Cycle: 30   F: -7.053341821592280   dF: -1.354e-07   |Residual|: 3.734e-05   |deigs|: 1.035e-04  t[s]:    183.48
	FillingsUpdate:  mu: -0.096247523  nElectrons: 3.000000  magneticMoment: [ Abs: 0.94007  Tot: +0.94000 ]
SCF: Cycle: 31   F: -7.053341859617166   dF: -3.802e-08   |Residual|: 2.408e-05   |deigs|: 5.043e-05  t[s]:    188.94
	FillingsUpdate:  mu: -0.096273688  nElectrons: 3.000000  magneticMoment: [ Abs: 0.94003  Tot: +0.94000 ]
SCF: Cycle: 32   F: -7.053341873693422   dF: -1.408e-08   |Residual|: 1.476e-05   |deigs|: 4.992e-05  t[s]:    194.53
	FillingsUpdate:  mu: -0.096288093  nElectrons: 3.000000  magneticMoment: [ Abs: 0.94004  Tot: +0.94000 ]
SCF: Cycle: 33   F: -7.053341880381804   dF: -6.688e-09   |Residual|: 1.063e-05   |deigs|: 3.966e-05  t[s]:    200.11
	FillingsUpdate:  mu: -0.096285920  nElectrons: 3.000000  magneticMoment: [ Abs: 0.94008  Tot: +0.94000 ]
SCF: Cycle: 34   F: -7.053341884871568   dF: -4.490e-09   |Residual|: 7.889e-06   |deigs|: 3.632e-05  t[s]:    205.60
SCF: Converged (|Delta E|<1.000000e-08 for 2 iters).


# Ionic positions in lattice coordinates:
ion Li   0.000000000000000   0.000000000000000   0.000000000000000 0

# Forces in Lattice coordinates:
force Li   0.000000000000000   0.000000000000000   0.000000000000000 0

# Energy components:
   Eewald =       -1.0026681166851483
       EH =        2.5660907043354184
     Eloc =       -8.2487635180072356
      Enl =       -3.6065718557361195
   Epulay =        0.0000051497655618
      Exc =       -1.5480325213311357
       KE =        4.7865990310581052
-------------------------------------
     Etot =       -7.0533411266005546
       TS =        0.0000007582710131
-------------------------------------
        F =       -7.0533418848715677

IonicMinimize: Iter:   0  F: -7.053341884871568  |grad|_K:  0.000e+00  t[s]:    205.85
IonicMinimize: Converged (|grad|_K<1.000000e-04).

#--- Lowdin population analysis ---
# oxidation-state Li +2.061
# magnetic-moments Li +0.873

End date and time: Sat Feb  5 23:19:38 2022  (Duration: 0-0:03:25.89)
Done!
