
*************** JDFTx 1.6.0 (git hash 42ebbcc2) ***************

Start date and time: Sat Feb  5 23:04:07 2022
Executable jdftx with command-line: -i Alkali.in
Running on hosts (process indices):  d-6-7-4 (0-18)
Divided in process groups (process indices):  0 (0)  1 (1)  2 (2)  3 (3)  4 (4)  5 (5)  6 (6)  7 (7)  8 (8)  9 (9)  10 (10)  11 (11)  12 (12)  13 (13)  14 (14)  15 (15)  16 (16)  17 (17)  18 (18)
Resource initialization completed at t[s]:      0.00
Run totals: 19 processes, 48 threads, 0 GPUs


Input parsed successfully to the following command list (including defaults):

basis kpoint-dependent
coords-type Lattice
core-overlap-check vector
coulomb-interaction Slab 001
davidson-band-ratio 1.1
dump End None
dump-name $INPUT.$VAR
elec-cutoff 20
elec-eigen-algo Davidson
elec-ex-corr gga-PBE
elec-initial-magnetization 0.360000 yes
elec-smearing Fermi 1e-05
electronic-minimize  \
	dirUpdateScheme      FletcherReeves \
	linminMethod         DirUpdateRecommended \
	nIterations          100 \
	history              15 \
	knormThreshold       0 \
	energyDiffThreshold  1e-08 \
	nEnergyDiff          2 \
	alphaTstart          1 \
	alphaTmin            1e-10 \
	updateTestStepSize   yes \
	alphaTreduceFactor   0.1 \
	alphaTincreaseFactor 3 \
	nAlphaAdjustMax      3 \
	wolfeEnergy          0.0001 \
	wolfeGradient        0.9 \
	fdTest               no
electronic-scf  \
	nIterations	10000 \
	energyDiffThreshold	1e-08 \
	residualThreshold	1e-07 \
	mixFraction	0.5 \
	qMetric	0.8 \
	history	10 \
	nEigSteps	2 \
	eigDiffThreshold	1e-08 \
	mixedVariable	Density \
	qKerker	0.8 \
	qKappa	-1 \
	verbose	no \
	mixFractionMag	1.5
exchange-regularization WignerSeitzTruncated
fluid None
fluid-ex-corr (null) lda-PZ
fluid-gummel-loop 10 1.000000e-05
fluid-minimize  \
	dirUpdateScheme      PolakRibiere \
	linminMethod         DirUpdateRecommended \
	nIterations          100 \
	history              15 \
	knormThreshold       0 \
	energyDiffThreshold  0 \
	nEnergyDiff          2 \
	alphaTstart          1 \
	alphaTmin            1e-10 \
	updateTestStepSize   yes \
	alphaTreduceFactor   0.1 \
	alphaTincreaseFactor 3 \
	nAlphaAdjustMax      3 \
	wolfeEnergy          0.0001 \
	wolfeGradient        0.9 \
	fdTest               no
fluid-solvent H2O 55.338 ScalarEOS \
	epsBulk 78.4 \
	pMol 0.92466 \
	epsInf 1.77 \
	Pvap 1.06736e-10 \
	sigmaBulk 4.62e-05 \
	Rvdw 2.61727 \
	Res 1.42 \
	tauNuc 343133 \
	poleEl 15 7 1
forces-output-coords Positions
ion Li   0.000000000000000   0.000000000000000   0.000000000000000 0
ion-species SG15/$ID_ONCV_PBE.upf
ion-width 0
ionic-minimize  \
	dirUpdateScheme      L-BFGS \
	linminMethod         DirUpdateRecommended \
	nIterations          0 \
	history              15 \
	knormThreshold       0.0001 \
	energyDiffThreshold  1e-06 \
	nEnergyDiff          2 \
	alphaTstart          1 \
	alphaTmin            1e-10 \
	updateTestStepSize   yes \
	alphaTreduceFactor   0.1 \
	alphaTincreaseFactor 3 \
	nAlphaAdjustMax      3 \
	wolfeEnergy          0.0001 \
	wolfeGradient        0.9 \
	fdTest               no
kpoint   0.000000000000   0.000000000000   0.000000000000  1.00000000000000
kpoint-folding 12 12 1 
latt-move-scale 1 1 1
latt-scale 4 4 1 
lattice  \
	   4.727486978767153   -2.363743489383575    0.000000000000000  \
	  -0.000000000000000    4.094123819672498    0.000000000000000  \
	   0.000000000000000    0.000000000000000   40.000000000000000 
lattice-minimize  \
	dirUpdateScheme      L-BFGS \
	linminMethod         DirUpdateRecommended \
	nIterations          0 \
	history              15 \
	knormThreshold       0 \
	energyDiffThreshold  1e-06 \
	nEnergyDiff          2 \
	alphaTstart          1 \
	alphaTmin            1e-10 \
	updateTestStepSize   yes \
	alphaTreduceFactor   0.1 \
	alphaTincreaseFactor 3 \
	nAlphaAdjustMax      3 \
	wolfeEnergy          0.0001 \
	wolfeGradient        0.9 \
	fdTest               no
lcao-params -1 1e-06 1e-05
pcm-variant GLSSA13
spintype z-spin
subspace-rotation-factor 1 yes
symmetries automatic
symmetry-threshold 0.0001



---------- Setting up symmetries ----------

Found 24 point-group symmetries of the bravais lattice
Found 24 space-group symmetries with basis
Applied RMS atom displacement 0 bohrs to make symmetries exact.

---------- Initializing the Grid ----------
R = 
[      18.9099     -9.45497            0  ]
[            0      16.3765            0  ]
[            0            0           40  ]
unit cell volume = 12387.1
G =
[   0.332269   0.191835         -0  ]
[          0   0.383671         -0  ]
[         -0         -0    0.15708  ]
Minimum fftbox size, Smin = [  80  80  164  ]
Chosen fftbox size, S = [  80  80  168  ]

---------- Exchange Correlation functional ----------
Initalized PBE GGA exchange.
Initalized PBE GGA correlation.

---------- Setting up pseudopotentials ----------
Width of ionic core gaussian charges (only for fluid interactions / plotting) set to 0

Reading pseudopotential file '/home/gridsan/aligho/DFT/build-Nov24/pseudopotentials/SG15/Li_ONCV_PBE.upf':
  'Li' pseudopotential, 'PBE' functional
  Generated using ONCVPSP code by D. R. Hamann
  Author: Martin Schlipf and Francois Gygi  Date: 150915.
  3 valence electrons, 2 orbitals, 4 projectors, 1328 radial grid points, with lMax = 1
  Transforming local potential to a uniform radial grid of dG=0.02 with 1489 points.
  Transforming nonlocal projectors to a uniform radial grid of dG=0.02 with 432 points.
    1S    l: 0   occupation:  2.0   eigenvalue: -1.905623
    2S    l: 0   occupation:  1.0   eigenvalue: -0.105624
  Transforming atomic orbitals to a uniform radial grid of dG=0.02 with 432 points.
  WARNING: large normalization error in atomic orbital 1s (integral: 0.000000).
  Core radius for overlap checks: 1.63 bohrs.
  Reading pulay file /home/gridsan/aligho/DFT/build-Nov24/pseudopotentials/SG15/Li_ONCV_PBE.pulay ... using dE_dnG = -1.230239e-02 computed for Ecut = 20.

Initialized 1 species with 1 total atoms.

Folded 1 k-points by 12x12x1 to 144 k-points.

---------- Setting up k-points, bands, fillings ----------
Reduced to 19 k-points under symmetry. 
Computing the number of bands and number of electrons
Calculating initial fillings.
nElectrons:   3.000000   nBands: 3   nStates: 38

----- Setting up reduced wavefunction bases (one per k-point) -----
average nbasis = 52924.021 , ideal nbasis = 52918.836

---------- Setting up coulomb interaction ----------
Initialized slab truncation along lattice direction 001

---------- Setting up 2D ewald sum ----------
Optimum gaussian width for ewald sums = 10.498040 bohr.
Real space sums over 289 unit cells with max indices [  8  8  0  ]
Reciprocal space sums over 81 terms with max indices [  4  4  0  ]

---------- Allocating electronic variables ----------
Initializing wave functions:  linear combination of atomic orbitals
Note: number of bands (3) exceeds available atomic orbitals (2)
Li pseudo-atom occupations:   s ( 2 1 )
	FillingsUpdate:  mu: +0.359351909  nElectrons: 3.000000  magneticMoment: [ Abs: 0.36000  Tot: +0.36000 ]
LCAOMinimize: Iter:   0  F: -1.3103543762166476  |grad|_K:  4.109e-05  alpha:  1.000e+00
	FillingsUpdate:  mu: +0.359351523  nElectrons: 3.000000  magneticMoment: [ Abs: 0.36000  Tot: +0.36000 ]
LCAOMinimize: Iter:   1  F: -1.3103546817990628  |grad|_K:  7.986e-08  alpha:  1.059e+00  linmin: -1.327e-02  cgtest:  3.187e-02  t[s]:     12.38
LCAOMinimize: Encountered beta<0, resetting CG.
	FillingsUpdate:  mu: +0.359351523  nElectrons: 3.000000  magneticMoment: [ Abs: 0.36000  Tot: +0.36000 ]
LCAOMinimize: Iter:   2  F: -1.3103546818008576  |grad|_K:  4.034e-08  alpha:  5.163e-01  linmin: -2.399e-02  cgtest:  9.990e-01  t[s]:     15.54
LCAOMinimize: Encountered beta<0, resetting CG.
LCAOMinimize: Converged (|Delta F|<1.000000e-06 for 2 iters).


---- Citations for features of the code used in this run ----

   Software package:
      R. Sundararaman, K. Letchworth-Weaver, K.A. Schwarz, D. Gunceler, Y. Ozhabes and T.A. Arias, 'JDFTx: software for joint density-functional theory', SoftwareX 6, 278 (2017)

   gga-PBE exchange-correlation functional:
      J.P. Perdew, K. Burke and M. Ernzerhof, Phys. Rev. Lett. 77, 3865 (1996)

   Pseudopotentials:
      M Schlipf and F Gygi, Comput. Phys. Commun. 196, 36 (2015)

   Truncated Coulomb potentials:
      R. Sundararaman and T.A. Arias, Phys. Rev. B 87, 165122 (2013)

This list may not be complete. Please suggest additional citations or
report any other bugs at https://github.com/shankar1729/jdftx/issues

Initialization completed successfully at t[s]:     15.67


-------- Electronic minimization -----------
Will mix electronic density at each iteration.
	FillingsUpdate:  mu: +0.359351523  nElectrons: 3.000000  magneticMoment: [ Abs: 0.36000  Tot: +0.36000 ]
	FillingsUpdate:  mu: -0.612500887  nElectrons: 3.000000  magneticMoment: [ Abs: 0.36000  Tot: +0.36000 ]
SCF: Cycle:  0   F: -6.871117251270039   dF: -5.561e+00   |Residual|: 1.230e+00   |deigs|: 4.155e+00  t[s]:     21.12
	FillingsUpdate:  mu: -0.489808155  nElectrons: 3.000000  magneticMoment: [ Abs: 0.61944  Tot: +0.36000 ]
SCF: Cycle:  1   F: -6.915992536562218   dF: -4.488e-02   |Residual|: 7.610e-01   |deigs|: 2.767e-01  t[s]:     25.56
	FillingsUpdate:  mu: -0.257367417  nElectrons: 3.000000  magneticMoment: [ Abs: 0.79797  Tot: +0.36000 ]
SCF: Cycle:  2   F: -7.036879283203398   dF: -1.209e-01   |Residual|: 3.192e-01   |deigs|: 7.063e-01  t[s]:     30.04
	FillingsUpdate:  mu: -0.269479410  nElectrons: 3.000000  magneticMoment: [ Abs: 0.74433  Tot: +0.36000 ]
SCF: Cycle:  3   F: -7.037310851945509   dF: -4.316e-04   |Residual|: 1.875e-01   |deigs|: 7.144e-02  t[s]:     34.63
	FillingsUpdate:  mu: -0.233357858  nElectrons: 3.000000  magneticMoment: [ Abs: 0.69910  Tot: +0.36000 ]
SCF: Cycle:  4   F: -7.036698065815953   dF: +6.128e-04   |Residual|: 6.110e-02   |deigs|: 3.091e-02  t[s]:     39.38
	FillingsUpdate:  mu: -0.221125268  nElectrons: 3.000000  magneticMoment: [ Abs: 0.69331  Tot: +0.36000 ]
SCF: Cycle:  5   F: -7.037945338855256   dF: -1.247e-03   |Residual|: 1.180e-01   |deigs|: 1.130e-02  t[s]:     44.22
	FillingsUpdate:  mu: -0.197160180  nElectrons: 3.000000  magneticMoment: [ Abs: 0.57477  Tot: +0.36000 ]
SCF: Cycle:  6   F: -7.041833763441847   dF: -3.888e-03   |Residual|: 2.179e-02   |deigs|: 6.971e-02  t[s]:     49.14
	FillingsUpdate:  mu: -0.179447325  nElectrons: 3.000000  magneticMoment: [ Abs: 0.47242  Tot: +0.36000 ]
SCF: Cycle:  7   F: -7.043479285518329   dF: -1.646e-03   |Residual|: 1.074e-01   |deigs|: 5.505e-02  t[s]:     54.24
	FillingsUpdate:  mu: -0.183639842  nElectrons: 3.000000  magneticMoment: [ Abs: 0.42038  Tot: +0.36000 ]
SCF: Cycle:  8   F: -7.043706657366429   dF: -2.274e-04   |Residual|: 6.440e-02   |deigs|: 1.840e-02  t[s]:     59.46
	FillingsUpdate:  mu: -0.188864216  nElectrons: 3.000000  magneticMoment: [ Abs: 0.46611  Tot: +0.36000 ]
SCF: Cycle:  9   F: -7.044121411982704   dF: -4.148e-04   |Residual|: 1.059e-01   |deigs|: 6.736e-02  t[s]:     64.71
	FillingsUpdate:  mu: -0.166809742  nElectrons: 3.000000  magneticMoment: [ Abs: 0.43525  Tot: +0.36000 ]
SCF: Cycle: 10   F: -7.045109189208681   dF: -9.878e-04   |Residual|: 4.075e-02   |deigs|: 3.989e-02  t[s]:     70.07
	FillingsUpdate:  mu: -0.152271189  nElectrons: 3.000000  magneticMoment: [ Abs: 0.47965  Tot: +0.36000 ]
SCF: Cycle: 11   F: -7.045285023929661   dF: -1.758e-04   |Residual|: 4.042e-02   |deigs|: 3.637e-02  t[s]:     75.45
	FillingsUpdate:  mu: -0.149855970  nElectrons: 3.000000  magneticMoment: [ Abs: 0.42626  Tot: +0.36000 ]
SCF: Cycle: 12   F: -7.045431508012473   dF: -1.465e-04   |Residual|: 1.226e-02   |deigs|: 1.667e-02  t[s]:     80.80
	FillingsUpdate:  mu: -0.130345233  nElectrons: 3.000000  magneticMoment: [ Abs: 0.47764  Tot: +0.36000 ]
SCF: Cycle: 13   F: -7.045618538224341   dF: -1.870e-04   |Residual|: 7.011e-03   |deigs|: 2.206e-02  t[s]:     86.16
	FillingsUpdate:  mu: -0.122400331  nElectrons: 3.000000  magneticMoment: [ Abs: 0.47235  Tot: +0.36000 ]
SCF: Cycle: 14   F: -7.045644177298866   dF: -2.564e-05   |Residual|: 5.770e-03   |deigs|: 9.112e-03  t[s]:     91.57
	FillingsUpdate:  mu: -0.114026665  nElectrons: 3.000000  magneticMoment: [ Abs: 0.44943  Tot: +0.36000 ]
SCF: Cycle: 15   F: -7.045644068242256   dF: +1.091e-07   |Residual|: 4.059e-03   |deigs|: 8.062e-03  t[s]:     97.02
	FillingsUpdate:  mu: -0.111259769  nElectrons: 3.000000  magneticMoment: [ Abs: 0.44317  Tot: +0.36000 ]
SCF: Cycle: 16   F: -7.045669409419582   dF: -2.534e-05   |Residual|: 3.178e-03   |deigs|: 2.505e-03  t[s]:    102.47
	FillingsUpdate:  mu: -0.108359462  nElectrons: 3.000000  magneticMoment: [ Abs: 0.41500  Tot: +0.36000 ]
SCF: Cycle: 17   F: -7.045637649724743   dF: +3.176e-05   |Residual|: 2.395e-03   |deigs|: 2.924e-03  t[s]:    107.86
	FillingsUpdate:  mu: -0.106561329  nElectrons: 3.000000  magneticMoment: [ Abs: 0.40805  Tot: +0.36000 ]
SCF: Cycle: 18   F: -7.045675591412337   dF: -3.794e-05   |Residual|: 1.638e-03   |deigs|: 1.656e-03  t[s]:    113.20
	FillingsUpdate:  mu: -0.106313929  nElectrons: 3.000000  magneticMoment: [ Abs: 0.39435  Tot: +0.36000 ]
SCF: Cycle: 19   F: -7.045687051158706   dF: -1.146e-05   |Residual|: 1.277e-03   |deigs|: 5.299e-04  t[s]:    118.58
	FillingsUpdate:  mu: -0.106141445  nElectrons: 3.000000  magneticMoment: [ Abs: 0.38128  Tot: +0.36000 ]
SCF: Cycle: 20   F: -7.045720102887913   dF: -3.305e-05   |Residual|: 9.125e-04   |deigs|: 5.004e-04  t[s]:    124.01
	FillingsUpdate:  mu: -0.105729426  nElectrons: 3.000000  magneticMoment: [ Abs: 0.37431  Tot: +0.36000 ]
SCF: Cycle: 21   F: -7.045738199464454   dF: -1.810e-05   |Residual|: 7.280e-04   |deigs|: 5.207e-04  t[s]:    129.38
	FillingsUpdate:  mu: -0.105330919  nElectrons: 3.000000  magneticMoment: [ Abs: 0.36821  Tot: +0.36000 ]
SCF: Cycle: 22   F: -7.045749291756305   dF: -1.109e-05   |Residual|: 5.366e-04   |deigs|: 4.398e-04  t[s]:    134.80
	FillingsUpdate:  mu: -0.104904373  nElectrons: 3.000000  magneticMoment: [ Abs: 0.36601  Tot: +0.36000 ]
SCF: Cycle: 23   F: -7.045753772904835   dF: -4.481e-06   |Residual|: 3.924e-04   |deigs|: 3.971e-04  t[s]:    140.19
	FillingsUpdate:  mu: -0.104734727  nElectrons: 3.000000  magneticMoment: [ Abs: 0.36405  Tot: +0.36000 ]
SCF: Cycle: 24   F: -7.045755129370043   dF: -1.356e-06   |Residual|: 2.789e-04   |deigs|: 1.679e-04  t[s]:    145.53
	FillingsUpdate:  mu: -0.104603045  nElectrons: 3.000000  magneticMoment: [ Abs: 0.36166  Tot: +0.36000 ]
SCF: Cycle: 25   F: -7.045755715506907   dF: -5.861e-07   |Residual|: 1.452e-04   |deigs|: 1.575e-04  t[s]:    150.93
	FillingsUpdate:  mu: -0.104576231  nElectrons: 3.000000  magneticMoment: [ Abs: 0.36169  Tot: +0.36000 ]
SCF: Cycle: 26   F: -7.045755931724429   dF: -2.162e-07   |Residual|: 1.030e-04   |deigs|: 7.682e-05  t[s]:    156.32
	FillingsUpdate:  mu: -0.104567805  nElectrons: 3.000000  magneticMoment: [ Abs: 0.36126  Tot: +0.36000 ]
SCF: Cycle: 27   F: -7.045755970920003   dF: -3.920e-08   |Residual|: 7.310e-05   |deigs|: 7.188e-05  t[s]:    161.70
	FillingsUpdate:  mu: -0.104565827  nElectrons: 3.000000  magneticMoment: [ Abs: 0.36095  Tot: +0.36000 ]
SCF: Cycle: 28   F: -7.045756034681105   dF: -6.376e-08   |Residual|: 4.595e-05   |deigs|: 6.012e-05  t[s]:    166.99
	FillingsUpdate:  mu: -0.104576217  nElectrons: 3.000000  magneticMoment: [ Abs: 0.36066  Tot: +0.36000 ]
SCF: Cycle: 29   F: -7.045756051003939   dF: -1.632e-08   |Residual|: 3.407e-05   |deigs|: 5.276e-05  t[s]:    172.40
	FillingsUpdate:  mu: -0.104597926  nElectrons: 3.000000  magneticMoment: [ Abs: 0.36050  Tot: +0.36000 ]
SCF: Cycle: 30   F: -7.045756065859046   dF: -1.486e-08   |Residual|: 2.621e-05   |deigs|: 4.899e-05  t[s]:    177.83
	FillingsUpdate:  mu: -0.104615872  nElectrons: 3.000000  magneticMoment: [ Abs: 0.36038  Tot: +0.36000 ]
SCF: Cycle: 31   F: -7.045756074099365   dF: -8.240e-09   |Residual|: 1.971e-05   |deigs|: 3.979e-05  t[s]:    183.23
	FillingsUpdate:  mu: -0.104629351  nElectrons: 3.000000  magneticMoment: [ Abs: 0.36025  Tot: +0.36000 ]
SCF: Cycle: 32   F: -7.045756095283985   dF: -2.118e-08   |Residual|: 1.499e-05   |deigs|: 3.289e-05  t[s]:    188.58
	FillingsUpdate:  mu: -0.104636612  nElectrons: 3.000000  magneticMoment: [ Abs: 0.36014  Tot: +0.36000 ]
SCF: Cycle: 33   F: -7.045756095081098   dF: +2.029e-10   |Residual|: 1.162e-05   |deigs|: 2.624e-05  t[s]:    193.97
	FillingsUpdate:  mu: -0.104641262  nElectrons: 3.000000  magneticMoment: [ Abs: 0.36009  Tot: +0.36000 ]
SCF: Cycle: 34   F: -7.045756098239486   dF: -3.158e-09   |Residual|: 9.271e-06   |deigs|: 2.291e-05  t[s]:    199.32
	FillingsUpdate:  mu: -0.104646246  nElectrons: 3.000000  magneticMoment: [ Abs: 0.36006  Tot: +0.36000 ]
SCF: Cycle: 35   F: -7.045756090894094   dF: +7.345e-09   |Residual|: 7.671e-06   |deigs|: 2.002e-05  t[s]:    204.68
	FillingsUpdate:  mu: -0.104653554  nElectrons: 3.000000  magneticMoment: [ Abs: 0.36005  Tot: +0.36000 ]
SCF: Cycle: 36   F: -7.045756099342801   dF: -8.449e-09   |Residual|: 5.213e-06   |deigs|: 2.038e-05  t[s]:    210.05
	FillingsUpdate:  mu: -0.104657391  nElectrons: 3.000000  magneticMoment: [ Abs: 0.36002  Tot: +0.36000 ]
SCF: Cycle: 37   F: -7.045756095266325   dF: +4.076e-09   |Residual|: 4.517e-06   |deigs|: 1.803e-05  t[s]:    215.41
	FillingsUpdate:  mu: -0.104662201  nElectrons: 3.000000  magneticMoment: [ Abs: 0.36000  Tot: +0.36000 ]
SCF: Cycle: 38   F: -7.045756098479950   dF: -3.214e-09   |Residual|: 3.402e-06   |deigs|: 1.780e-05  t[s]:    220.86
	FillingsUpdate:  mu: -0.104665030  nElectrons: 3.000000  magneticMoment: [ Abs: 0.36001  Tot: +0.36000 ]
SCF: Cycle: 39   F: -7.045756098888259   dF: -4.083e-10   |Residual|: 2.820e-06   |deigs|: 1.623e-05  t[s]:    226.26
SCF: Converged (|Delta E|<1.000000e-08 for 2 iters).


# Ionic positions in lattice coordinates:
ion Li   0.000000000000000   0.000000000000000   0.000000000000000 0

# Forces in Lattice coordinates:
force Li   0.000000000000000  -0.000000000000000   0.000000000000000 0

# Energy components:
   Eewald =       -1.0026681166851483
       EH =        2.5485084027984453
     Eloc =       -8.2268100107672257
      Enl =       -3.6036577577692537
   Epulay =        0.0000051497655618
      Exc =       -1.5359811943133153
       KE =        4.7748491319244977
-------------------------------------
     Etot =       -7.0457543950464387
       TS =        0.0000017038418208
-------------------------------------
        F =       -7.0457560988882593

IonicMinimize: Iter:   0  F: -7.045756098888259  |grad|_K:  0.000e+00  t[s]:    226.50
IonicMinimize: Converged (|grad|_K<1.000000e-04).

#--- Lowdin population analysis ---
# oxidation-state Li +2.079
# magnetic-moments Li +0.333

End date and time: Sat Feb  5 23:07:53 2022  (Duration: 0-0:03:46.53)
Done!
