
*************** JDFTx 1.6.0 (git hash 42ebbcc2) ***************

Start date and time: Sat Feb  5 23:08:46 2022
Executable jdftx with command-line: -i Alkali.in
Running on hosts (process indices):  d-6-8-2 (0-18)
Divided in process groups (process indices):  0 (0)  1 (1)  2 (2)  3 (3)  4 (4)  5 (5)  6 (6)  7 (7)  8 (8)  9 (9)  10 (10)  11 (11)  12 (12)  13 (13)  14 (14)  15 (15)  16 (16)  17 (17)  18 (18)
Resource initialization completed at t[s]:      0.00
Run totals: 19 processes, 48 threads, 0 GPUs


Input parsed successfully to the following command list (including defaults):

basis kpoint-dependent
coords-type Lattice
core-overlap-check vector
coulomb-interaction Slab 001
davidson-band-ratio 1.1
dump End None
dump-name $INPUT.$VAR
elec-cutoff 20
elec-eigen-algo Davidson
elec-ex-corr gga-PBE
elec-initial-magnetization 0.420000 yes
elec-smearing Fermi 1e-05
electronic-minimize  \
	dirUpdateScheme      FletcherReeves \
	linminMethod         DirUpdateRecommended \
	nIterations          100 \
	history              15 \
	knormThreshold       0 \
	energyDiffThreshold  1e-08 \
	nEnergyDiff          2 \
	alphaTstart          1 \
	alphaTmin            1e-10 \
	updateTestStepSize   yes \
	alphaTreduceFactor   0.1 \
	alphaTincreaseFactor 3 \
	nAlphaAdjustMax      3 \
	wolfeEnergy          0.0001 \
	wolfeGradient        0.9 \
	fdTest               no
electronic-scf  \
	nIterations	10000 \
	energyDiffThreshold	1e-08 \
	residualThreshold	1e-07 \
	mixFraction	0.5 \
	qMetric	0.8 \
	history	10 \
	nEigSteps	2 \
	eigDiffThreshold	1e-08 \
	mixedVariable	Density \
	qKerker	0.8 \
	qKappa	-1 \
	verbose	no \
	mixFractionMag	1.5
exchange-regularization WignerSeitzTruncated
fluid None
fluid-ex-corr (null) lda-PZ
fluid-gummel-loop 10 1.000000e-05
fluid-minimize  \
	dirUpdateScheme      PolakRibiere \
	linminMethod         DirUpdateRecommended \
	nIterations          100 \
	history              15 \
	knormThreshold       0 \
	energyDiffThreshold  0 \
	nEnergyDiff          2 \
	alphaTstart          1 \
	alphaTmin            1e-10 \
	updateTestStepSize   yes \
	alphaTreduceFactor   0.1 \
	alphaTincreaseFactor 3 \
	nAlphaAdjustMax      3 \
	wolfeEnergy          0.0001 \
	wolfeGradient        0.9 \
	fdTest               no
fluid-solvent H2O 55.338 ScalarEOS \
	epsBulk 78.4 \
	pMol 0.92466 \
	epsInf 1.77 \
	Pvap 1.06736e-10 \
	sigmaBulk 4.62e-05 \
	Rvdw 2.61727 \
	Res 1.42 \
	tauNuc 343133 \
	poleEl 15 7 1
forces-output-coords Positions
ion Li   0.000000000000000   0.000000000000000   0.000000000000000 0
ion-species SG15/$ID_ONCV_PBE.upf
ion-width 0
ionic-minimize  \
	dirUpdateScheme      L-BFGS \
	linminMethod         DirUpdateRecommended \
	nIterations          0 \
	history              15 \
	knormThreshold       0.0001 \
	energyDiffThreshold  1e-06 \
	nEnergyDiff          2 \
	alphaTstart          1 \
	alphaTmin            1e-10 \
	updateTestStepSize   yes \
	alphaTreduceFactor   0.1 \
	alphaTincreaseFactor 3 \
	nAlphaAdjustMax      3 \
	wolfeEnergy          0.0001 \
	wolfeGradient        0.9 \
	fdTest               no
kpoint   0.000000000000   0.000000000000   0.000000000000  1.00000000000000
kpoint-folding 12 12 1 
latt-move-scale 1 1 1
latt-scale 4 4 1 
lattice  \
	   4.727486978767153   -2.363743489383575    0.000000000000000  \
	  -0.000000000000000    4.094123819672498    0.000000000000000  \
	   0.000000000000000    0.000000000000000   40.000000000000000 
lattice-minimize  \
	dirUpdateScheme      L-BFGS \
	linminMethod         DirUpdateRecommended \
	nIterations          0 \
	history              15 \
	knormThreshold       0 \
	energyDiffThreshold  1e-06 \
	nEnergyDiff          2 \
	alphaTstart          1 \
	alphaTmin            1e-10 \
	updateTestStepSize   yes \
	alphaTreduceFactor   0.1 \
	alphaTincreaseFactor 3 \
	nAlphaAdjustMax      3 \
	wolfeEnergy          0.0001 \
	wolfeGradient        0.9 \
	fdTest               no
lcao-params -1 1e-06 1e-05
pcm-variant GLSSA13
spintype z-spin
subspace-rotation-factor 1 yes
symmetries automatic
symmetry-threshold 0.0001



---------- Setting up symmetries ----------

Found 24 point-group symmetries of the bravais lattice
Found 24 space-group symmetries with basis
Applied RMS atom displacement 0 bohrs to make symmetries exact.

---------- Initializing the Grid ----------
R = 
[      18.9099     -9.45497            0  ]
[            0      16.3765            0  ]
[            0            0           40  ]
unit cell volume = 12387.1
G =
[   0.332269   0.191835         -0  ]
[          0   0.383671         -0  ]
[         -0         -0    0.15708  ]
Minimum fftbox size, Smin = [  80  80  164  ]
Chosen fftbox size, S = [  80  80  168  ]

---------- Exchange Correlation functional ----------
Initalized PBE GGA exchange.
Initalized PBE GGA correlation.

---------- Setting up pseudopotentials ----------
Width of ionic core gaussian charges (only for fluid interactions / plotting) set to 0

Reading pseudopotential file '/home/gridsan/aligho/DFT/build-Nov24/pseudopotentials/SG15/Li_ONCV_PBE.upf':
  'Li' pseudopotential, 'PBE' functional
  Generated using ONCVPSP code by D. R. Hamann
  Author: Martin Schlipf and Francois Gygi  Date: 150915.
  3 valence electrons, 2 orbitals, 4 projectors, 1328 radial grid points, with lMax = 1
  Transforming local potential to a uniform radial grid of dG=0.02 with 1489 points.
  Transforming nonlocal projectors to a uniform radial grid of dG=0.02 with 432 points.
    1S    l: 0   occupation:  2.0   eigenvalue: -1.905623
    2S    l: 0   occupation:  1.0   eigenvalue: -0.105624
  Transforming atomic orbitals to a uniform radial grid of dG=0.02 with 432 points.
  WARNING: large normalization error in atomic orbital 1s (integral: 0.000000).
  Core radius for overlap checks: 1.63 bohrs.
  Reading pulay file /home/gridsan/aligho/DFT/build-Nov24/pseudopotentials/SG15/Li_ONCV_PBE.pulay ... using dE_dnG = -1.230239e-02 computed for Ecut = 20.

Initialized 1 species with 1 total atoms.

Folded 1 k-points by 12x12x1 to 144 k-points.

---------- Setting up k-points, bands, fillings ----------
Reduced to 19 k-points under symmetry. 
Computing the number of bands and number of electrons
Calculating initial fillings.
nElectrons:   3.000000   nBands: 3   nStates: 38

----- Setting up reduced wavefunction bases (one per k-point) -----
average nbasis = 52924.021 , ideal nbasis = 52918.836

---------- Setting up coulomb interaction ----------
Initialized slab truncation along lattice direction 001

---------- Setting up 2D ewald sum ----------
Optimum gaussian width for ewald sums = 10.498040 bohr.
Real space sums over 289 unit cells with max indices [  8  8  0  ]
Reciprocal space sums over 81 terms with max indices [  4  4  0  ]

---------- Allocating electronic variables ----------
Initializing wave functions:  linear combination of atomic orbitals
Note: number of bands (3) exceeds available atomic orbitals (2)
Li pseudo-atom occupations:   s ( 2 1 )
	FillingsUpdate:  mu: +0.358154924  nElectrons: 3.000000  magneticMoment: [ Abs: 0.42000  Tot: +0.42000 ]
LCAOMinimize: Iter:   0  F: -1.3099159110215277  |grad|_K:  4.070e-05  alpha:  1.000e+00
	FillingsUpdate:  mu: +0.358154440  nElectrons: 3.000000  magneticMoment: [ Abs: 0.42000  Tot: +0.42000 ]
LCAOMinimize: Iter:   1  F: -1.3099162108940767  |grad|_K:  8.106e-08  alpha:  1.059e+00  linmin: -1.097e-02  cgtest:  3.438e-02  t[s]:     12.43
LCAOMinimize: Encountered beta<0, resetting CG.
LCAOMinimize: 	Wrong curvature in test step, increasing alphaT to 3.175716e+00.
	FillingsUpdate:  mu: +0.358154440  nElectrons: 3.000000  magneticMoment: [ Abs: 0.42000  Tot: +0.42000 ]
LCAOMinimize: Iter:   2  F: -1.3099162108977618  |grad|_K:  4.019e-09  alpha: -9.638e-01  linmin:  4.304e-03  cgtest: -3.404e-01  t[s]:     15.65
LCAOMinimize: Converged (|Delta F|<1.000000e-06 for 2 iters).


---- Citations for features of the code used in this run ----

   Software package:
      R. Sundararaman, K. Letchworth-Weaver, K.A. Schwarz, D. Gunceler, Y. Ozhabes and T.A. Arias, 'JDFTx: software for joint density-functional theory', SoftwareX 6, 278 (2017)

   gga-PBE exchange-correlation functional:
      J.P. Perdew, K. Burke and M. Ernzerhof, Phys. Rev. Lett. 77, 3865 (1996)

   Pseudopotentials:
      M Schlipf and F Gygi, Comput. Phys. Commun. 196, 36 (2015)

   Truncated Coulomb potentials:
      R. Sundararaman and T.A. Arias, Phys. Rev. B 87, 165122 (2013)

This list may not be complete. Please suggest additional citations or
report any other bugs at https://github.com/shankar1729/jdftx/issues

Initialization completed successfully at t[s]:     15.79


-------- Electronic minimization -----------
Will mix electronic density at each iteration.
	FillingsUpdate:  mu: +0.358154440  nElectrons: 3.000000  magneticMoment: [ Abs: 0.42000  Tot: +0.42000 ]
	FillingsUpdate:  mu: -0.612767139  nElectrons: 3.000000  magneticMoment: [ Abs: 0.42000  Tot: +0.42000 ]
SCF: Cycle:  0   F: -6.872301185650334   dF: -5.562e+00   |Residual|: 1.230e+00   |deigs|: 4.155e+00  t[s]:     21.33
	FillingsUpdate:  mu: -0.488652348  nElectrons: 3.000000  magneticMoment: [ Abs: 0.72256  Tot: +0.42000 ]
SCF: Cycle:  1   F: -6.916410614281555   dF: -4.411e-02   |Residual|: 7.613e-01   |deigs|: 2.767e-01  t[s]:     25.73
	FillingsUpdate:  mu: -0.262681332  nElectrons: 3.000000  magneticMoment: [ Abs: 0.93047  Tot: +0.42000 ]
SCF: Cycle:  2   F: -7.036872181351583   dF: -1.205e-01   |Residual|: 3.194e-01   |deigs|: 7.051e-01  t[s]:     30.28
	FillingsUpdate:  mu: -0.273150379  nElectrons: 3.000000  magneticMoment: [ Abs: 0.85796  Tot: +0.42000 ]
SCF: Cycle:  3   F: -7.037234767288648   dF: -3.626e-04   |Residual|: 1.861e-01   |deigs|: 7.208e-02  t[s]:     34.94
	FillingsUpdate:  mu: -0.231225028  nElectrons: 3.000000  magneticMoment: [ Abs: 0.77886  Tot: +0.42000 ]
SCF: Cycle:  4   F: -7.037723242428621   dF: -4.885e-04   |Residual|: 5.757e-02   |deigs|: 3.484e-02  t[s]:     39.73
	FillingsUpdate:  mu: -0.220052149  nElectrons: 3.000000  magneticMoment: [ Abs: 0.77790  Tot: +0.42000 ]
SCF: Cycle:  5   F: -7.038690707472184   dF: -9.675e-04   |Residual|: 1.099e-01   |deigs|: 1.144e-02  t[s]:     44.54
	FillingsUpdate:  mu: -0.196215733  nElectrons: 3.000000  magneticMoment: [ Abs: 0.64690  Tot: +0.42000 ]
SCF: Cycle:  6   F: -7.042302663514919   dF: -3.612e-03   |Residual|: 2.126e-02   |deigs|: 6.649e-02  t[s]:     49.50
	FillingsUpdate:  mu: -0.180854076  nElectrons: 3.000000  magneticMoment: [ Abs: 0.53306  Tot: +0.42000 ]
SCF: Cycle:  7   F: -7.043921152393818   dF: -1.618e-03   |Residual|: 9.884e-02   |deigs|: 5.142e-02  t[s]:     54.61
	FillingsUpdate:  mu: -0.184202721  nElectrons: 3.000000  magneticMoment: [ Abs: 0.49306  Tot: +0.42000 ]
SCF: Cycle:  8   F: -7.044187214410171   dF: -2.661e-04   |Residual|: 5.873e-02   |deigs|: 1.635e-02  t[s]:     59.81
	FillingsUpdate:  mu: -0.186754166  nElectrons: 3.000000  magneticMoment: [ Abs: 0.49535  Tot: +0.42000 ]
SCF: Cycle:  9   F: -7.044760267892730   dF: -5.731e-04   |Residual|: 1.005e-01   |deigs|: 6.060e-02  t[s]:     65.24
	FillingsUpdate:  mu: -0.167743845  nElectrons: 3.000000  magneticMoment: [ Abs: 0.46346  Tot: +0.42000 ]
SCF: Cycle: 10   F: -7.045603776988266   dF: -8.435e-04   |Residual|: 2.142e-02   |deigs|: 4.166e-02  t[s]:     70.66
	FillingsUpdate:  mu: -0.151524750  nElectrons: 3.000000  magneticMoment: [ Abs: 0.52710  Tot: +0.42000 ]
SCF: Cycle: 11   F: -7.045746139818450   dF: -1.424e-04   |Residual|: 4.320e-02   |deigs|: 3.092e-02  t[s]:     76.08
	FillingsUpdate:  mu: -0.150335131  nElectrons: 3.000000  magneticMoment: [ Abs: 0.49139  Tot: +0.42000 ]
SCF: Cycle: 12   F: -7.045888282780011   dF: -1.421e-04   |Residual|: 1.148e-02   |deigs|: 1.663e-02  t[s]:     81.47
	FillingsUpdate:  mu: -0.129738921  nElectrons: 3.000000  magneticMoment: [ Abs: 0.54687  Tot: +0.42000 ]
SCF: Cycle: 13   F: -7.046072264535504   dF: -1.840e-04   |Residual|: 6.926e-03   |deigs|: 2.262e-02  t[s]:     86.83
	FillingsUpdate:  mu: -0.122909328  nElectrons: 3.000000  magneticMoment: [ Abs: 0.54450  Tot: +0.42000 ]
SCF: Cycle: 14   F: -7.046092699536376   dF: -2.044e-05   |Residual|: 5.798e-03   |deigs|: 7.814e-03  t[s]:     92.24
	FillingsUpdate:  mu: -0.115832482  nElectrons: 3.000000  magneticMoment: [ Abs: 0.51868  Tot: +0.42000 ]
SCF: Cycle: 15   F: -7.046084344221446   dF: +8.355e-06   |Residual|: 4.206e-03   |deigs|: 6.411e-03  t[s]:     97.77
	FillingsUpdate:  mu: -0.111304686  nElectrons: 3.000000  magneticMoment: [ Abs: 0.50902  Tot: +0.42000 ]
SCF: Cycle: 16   F: -7.046111773480591   dF: -2.743e-05   |Residual|: 3.242e-03   |deigs|: 4.584e-03  t[s]:    103.24
	FillingsUpdate:  mu: -0.108668191  nElectrons: 3.000000  magneticMoment: [ Abs: 0.47967  Tot: +0.42000 ]
SCF: Cycle: 17   F: -7.046090568618991   dF: +2.120e-05   |Residual|: 2.334e-03   |deigs|: 2.616e-03  t[s]:    108.61
	FillingsUpdate:  mu: -0.106679570  nElectrons: 3.000000  magneticMoment: [ Abs: 0.46781  Tot: +0.42000 ]
SCF: Cycle: 18   F: -7.046124776573604   dF: -3.421e-05   |Residual|: 1.737e-03   |deigs|: 2.034e-03  t[s]:    114.09
	FillingsUpdate:  mu: -0.106184468  nElectrons: 3.000000  magneticMoment: [ Abs: 0.45366  Tot: +0.42000 ]
SCF: Cycle: 19   F: -7.046137764445416   dF: -1.299e-05   |Residual|: 1.326e-03   |deigs|: 8.709e-04  t[s]:    119.51
	FillingsUpdate:  mu: -0.105192960  nElectrons: 3.000000  magneticMoment: [ Abs: 0.44260  Tot: +0.42000 ]
SCF: Cycle: 20   F: -7.046175906189456   dF: -3.814e-05   |Residual|: 8.759e-04   |deigs|: 1.374e-03  t[s]:    124.93
	FillingsUpdate:  mu: -0.104405143  nElectrons: 3.000000  magneticMoment: [ Abs: 0.43667  Tot: +0.42000 ]
SCF: Cycle: 21   F: -7.046189234546201   dF: -1.333e-05   |Residual|: 6.885e-04   |deigs|: 9.922e-04  t[s]:    130.35
	FillingsUpdate:  mu: -0.103918320  nElectrons: 3.000000  magneticMoment: [ Abs: 0.43238  Tot: +0.42000 ]
SCF: Cycle: 22   F: -7.046198977986880   dF: -9.743e-06   |Residual|: 4.991e-04   |deigs|: 4.346e-04  t[s]:    135.75
	FillingsUpdate:  mu: -0.103675949  nElectrons: 3.000000  magneticMoment: [ Abs: 0.42916  Tot: +0.42000 ]
SCF: Cycle: 23   F: -7.046203784019992   dF: -4.806e-06   |Residual|: 3.295e-04   |deigs|: 2.083e-04  t[s]:    141.09
	FillingsUpdate:  mu: -0.103684316  nElectrons: 3.000000  magneticMoment: [ Abs: 0.42698  Tot: +0.42000 ]
SCF: Cycle: 24   F: -7.046205745731386   dF: -1.962e-06   |Residual|: 2.412e-04   |deigs|: 1.561e-04  t[s]:    146.47
	FillingsUpdate:  mu: -0.103892496  nElectrons: 3.000000  magneticMoment: [ Abs: 0.42467  Tot: +0.42000 ]
SCF: Cycle: 25   F: -7.046206898300922   dF: -1.153e-06   |Residual|: 1.440e-04   |deigs|: 2.778e-04  t[s]:    151.84
	FillingsUpdate:  mu: -0.103962279  nElectrons: 3.000000  magneticMoment: [ Abs: 0.42340  Tot: +0.42000 ]
SCF: Cycle: 26   F: -7.046207210712390   dF: -3.124e-07   |Residual|: 1.110e-04   |deigs|: 1.296e-04  t[s]:    157.25
	FillingsUpdate:  mu: -0.104079224  nElectrons: 3.000000  magneticMoment: [ Abs: 0.42180  Tot: +0.42000 ]
SCF: Cycle: 27   F: -7.046207230036027   dF: -1.932e-08   |Residual|: 8.235e-05   |deigs|: 1.594e-04  t[s]:    162.66
	FillingsUpdate:  mu: -0.104162195  nElectrons: 3.000000  magneticMoment: [ Abs: 0.42076  Tot: +0.42000 ]
SCF: Cycle: 28   F: -7.046207282796924   dF: -5.276e-08   |Residual|: 5.742e-05   |deigs|: 1.268e-04  t[s]:    168.09
	FillingsUpdate:  mu: -0.104210577  nElectrons: 3.000000  magneticMoment: [ Abs: 0.42043  Tot: +0.42000 ]
SCF: Cycle: 29   F: -7.046207331238919   dF: -4.844e-08   |Residual|: 3.642e-05   |deigs|: 8.404e-05  t[s]:    173.59
	FillingsUpdate:  mu: -0.104248461  nElectrons: 3.000000  magneticMoment: [ Abs: 0.42023  Tot: +0.42000 ]
SCF: Cycle: 30   F: -7.046207330753804   dF: +4.851e-10   |Residual|: 2.692e-05   |deigs|: 6.484e-05  t[s]:    179.02
	FillingsUpdate:  mu: -0.104264235  nElectrons: 3.000000  magneticMoment: [ Abs: 0.42017  Tot: +0.42000 ]
SCF: Cycle: 31   F: -7.046207341734831   dF: -1.098e-08   |Residual|: 2.169e-05   |deigs|: 4.087e-05  t[s]:    184.45
	FillingsUpdate:  mu: -0.104273850  nElectrons: 3.000000  magneticMoment: [ Abs: 0.42013  Tot: +0.42000 ]
SCF: Cycle: 32   F: -7.046207369960453   dF: -2.823e-08   |Residual|: 1.797e-05   |deigs|: 3.257e-05  t[s]:    189.83
	FillingsUpdate:  mu: -0.104281459  nElectrons: 3.000000  magneticMoment: [ Abs: 0.42009  Tot: +0.42000 ]
SCF: Cycle: 33   F: -7.046207377911977   dF: -7.952e-09   |Residual|: 1.127e-05   |deigs|: 2.608e-05  t[s]:    195.26
	FillingsUpdate:  mu: -0.104285170  nElectrons: 3.000000  magneticMoment: [ Abs: 0.42007  Tot: +0.42000 ]
SCF: Cycle: 34   F: -7.046207389482627   dF: -1.157e-08   |Residual|: 8.587e-06   |deigs|: 2.384e-05  t[s]:    200.66
	FillingsUpdate:  mu: -0.104289564  nElectrons: 3.000000  magneticMoment: [ Abs: 0.42003  Tot: +0.42000 ]
SCF: Cycle: 35   F: -7.046207369728378   dF: +1.975e-08   |Residual|: 6.132e-06   |deigs|: 2.250e-05  t[s]:    206.04
	FillingsUpdate:  mu: -0.104293049  nElectrons: 3.000000  magneticMoment: [ Abs: 0.42003  Tot: +0.42000 ]
SCF: Cycle: 36   F: -7.046207392345818   dF: -2.262e-08   |Residual|: 3.693e-06   |deigs|: 2.046e-05  t[s]:    211.36
	FillingsUpdate:  mu: -0.104294967  nElectrons: 3.000000  magneticMoment: [ Abs: 0.42001  Tot: +0.42000 ]
SCF: Cycle: 37   F: -7.046207394875382   dF: -2.530e-09   |Residual|: 2.891e-06   |deigs|: 1.902e-05  t[s]:    216.77
	FillingsUpdate:  mu: -0.104296864  nElectrons: 3.000000  magneticMoment: [ Abs: 0.42000  Tot: +0.42000 ]
SCF: Cycle: 38   F: -7.046207396098294   dF: -1.223e-09   |Residual|: 2.286e-06   |deigs|: 1.805e-05  t[s]:    222.16
SCF: Converged (|Delta E|<1.000000e-08 for 2 iters).


# Ionic positions in lattice coordinates:
ion Li   0.000000000000000   0.000000000000000   0.000000000000000 0

# Forces in Lattice coordinates:
force Li  -0.000000000000000   0.000000000000000   0.000000000000000 0

# Energy components:
   Eewald =       -1.0026681166851483
       EH =        2.5496645449697128
     Eloc =       -8.2282550744593763
      Enl =       -3.6038364059991568
   Epulay =        0.0000051497655618
      Exc =       -1.5367142377873462
       KE =        4.7755985336153373
-------------------------------------
     Etot =       -7.0462056065804148
       TS =        0.0000017895178798
-------------------------------------
        F =       -7.0462073960982945

IonicMinimize: Iter:   0  F: -7.046207396098294  |grad|_K:  0.000e+00  t[s]:    222.39
IonicMinimize: Converged (|grad|_K<1.000000e-04).

#--- Lowdin population analysis ---
# oxidation-state Li +2.078
# magnetic-moments Li +0.389

End date and time: Sat Feb  5 23:12:29 2022  (Duration: 0-0:03:42.42)
Done!
