
*************** JDFTx 1.6.0 (git hash 42ebbcc2) ***************

Start date and time: Sat Feb  5 22:56:40 2022
Executable jdftx with command-line: -i Alkali.in
Running on hosts (process indices):  d-6-3-2 (0-18)
Divided in process groups (process indices):  0 (0)  1 (1)  2 (2)  3 (3)  4 (4)  5 (5)  6 (6)  7 (7)  8 (8)  9 (9)  10 (10)  11 (11)  12 (12)  13 (13)  14 (14)  15 (15)  16 (16)  17 (17)  18 (18)
Resource initialization completed at t[s]:      0.00
Run totals: 19 processes, 48 threads, 0 GPUs


Input parsed successfully to the following command list (including defaults):

basis kpoint-dependent
coords-type Lattice
core-overlap-check vector
coulomb-interaction Slab 001
davidson-band-ratio 1.1
dump End None
dump-name $INPUT.$VAR
elec-cutoff 20
elec-eigen-algo Davidson
elec-ex-corr gga-PBE
elec-initial-magnetization -0.120000 yes
elec-smearing Fermi 1e-05
electronic-minimize  \
	dirUpdateScheme      FletcherReeves \
	linminMethod         DirUpdateRecommended \
	nIterations          100 \
	history              15 \
	knormThreshold       0 \
	energyDiffThreshold  1e-08 \
	nEnergyDiff          2 \
	alphaTstart          1 \
	alphaTmin            1e-10 \
	updateTestStepSize   yes \
	alphaTreduceFactor   0.1 \
	alphaTincreaseFactor 3 \
	nAlphaAdjustMax      3 \
	wolfeEnergy          0.0001 \
	wolfeGradient        0.9 \
	fdTest               no
electronic-scf  \
	nIterations	10000 \
	energyDiffThreshold	1e-08 \
	residualThreshold	1e-07 \
	mixFraction	0.5 \
	qMetric	0.8 \
	history	10 \
	nEigSteps	2 \
	eigDiffThreshold	1e-08 \
	mixedVariable	Density \
	qKerker	0.8 \
	qKappa	-1 \
	verbose	no \
	mixFractionMag	1.5
exchange-regularization WignerSeitzTruncated
fluid None
fluid-ex-corr (null) lda-PZ
fluid-gummel-loop 10 1.000000e-05
fluid-minimize  \
	dirUpdateScheme      PolakRibiere \
	linminMethod         DirUpdateRecommended \
	nIterations          100 \
	history              15 \
	knormThreshold       0 \
	energyDiffThreshold  0 \
	nEnergyDiff          2 \
	alphaTstart          1 \
	alphaTmin            1e-10 \
	updateTestStepSize   yes \
	alphaTreduceFactor   0.1 \
	alphaTincreaseFactor 3 \
	nAlphaAdjustMax      3 \
	wolfeEnergy          0.0001 \
	wolfeGradient        0.9 \
	fdTest               no
fluid-solvent H2O 55.338 ScalarEOS \
	epsBulk 78.4 \
	pMol 0.92466 \
	epsInf 1.77 \
	Pvap 1.06736e-10 \
	sigmaBulk 4.62e-05 \
	Rvdw 2.61727 \
	Res 1.42 \
	tauNuc 343133 \
	poleEl 15 7 1
forces-output-coords Positions
ion Li   0.000000000000000   0.000000000000000   0.000000000000000 0
ion-species SG15/$ID_ONCV_PBE.upf
ion-width 0
ionic-minimize  \
	dirUpdateScheme      L-BFGS \
	linminMethod         DirUpdateRecommended \
	nIterations          0 \
	history              15 \
	knormThreshold       0.0001 \
	energyDiffThreshold  1e-06 \
	nEnergyDiff          2 \
	alphaTstart          1 \
	alphaTmin            1e-10 \
	updateTestStepSize   yes \
	alphaTreduceFactor   0.1 \
	alphaTincreaseFactor 3 \
	nAlphaAdjustMax      3 \
	wolfeEnergy          0.0001 \
	wolfeGradient        0.9 \
	fdTest               no
kpoint   0.000000000000   0.000000000000   0.000000000000  1.00000000000000
kpoint-folding 12 12 1 
latt-move-scale 1 1 1
latt-scale 4 4 1 
lattice  \
	   4.727486978767153   -2.363743489383575    0.000000000000000  \
	  -0.000000000000000    4.094123819672498    0.000000000000000  \
	   0.000000000000000    0.000000000000000   40.000000000000000 
lattice-minimize  \
	dirUpdateScheme      L-BFGS \
	linminMethod         DirUpdateRecommended \
	nIterations          0 \
	history              15 \
	knormThreshold       0 \
	energyDiffThreshold  1e-06 \
	nEnergyDiff          2 \
	alphaTstart          1 \
	alphaTmin            1e-10 \
	updateTestStepSize   yes \
	alphaTreduceFactor   0.1 \
	alphaTincreaseFactor 3 \
	nAlphaAdjustMax      3 \
	wolfeEnergy          0.0001 \
	wolfeGradient        0.9 \
	fdTest               no
lcao-params -1 1e-06 1e-05
pcm-variant GLSSA13
spintype z-spin
subspace-rotation-factor 1 yes
symmetries automatic
symmetry-threshold 0.0001



---------- Setting up symmetries ----------

Found 24 point-group symmetries of the bravais lattice
Found 24 space-group symmetries with basis
Applied RMS atom displacement 0 bohrs to make symmetries exact.

---------- Initializing the Grid ----------
R = 
[      18.9099     -9.45497            0  ]
[            0      16.3765            0  ]
[            0            0           40  ]
unit cell volume = 12387.1
G =
[   0.332269   0.191835         -0  ]
[          0   0.383671         -0  ]
[         -0         -0    0.15708  ]
Minimum fftbox size, Smin = [  80  80  164  ]
Chosen fftbox size, S = [  80  80  168  ]

---------- Exchange Correlation functional ----------
Initalized PBE GGA exchange.
Initalized PBE GGA correlation.

---------- Setting up pseudopotentials ----------
Width of ionic core gaussian charges (only for fluid interactions / plotting) set to 0

Reading pseudopotential file '/home/gridsan/aligho/DFT/build-Nov24/pseudopotentials/SG15/Li_ONCV_PBE.upf':
  'Li' pseudopotential, 'PBE' functional
  Generated using ONCVPSP code by D. R. Hamann
  Author: Martin Schlipf and Francois Gygi  Date: 150915.
  3 valence electrons, 2 orbitals, 4 projectors, 1328 radial grid points, with lMax = 1
  Transforming local potential to a uniform radial grid of dG=0.02 with 1489 points.
  Transforming nonlocal projectors to a uniform radial grid of dG=0.02 with 432 points.
    1S    l: 0   occupation:  2.0   eigenvalue: -1.905623
    2S    l: 0   occupation:  1.0   eigenvalue: -0.105624
  Transforming atomic orbitals to a uniform radial grid of dG=0.02 with 432 points.
  WARNING: large normalization error in atomic orbital 1s (integral: 0.000000).
  Core radius for overlap checks: 1.63 bohrs.
  Reading pulay file /home/gridsan/aligho/DFT/build-Nov24/pseudopotentials/SG15/Li_ONCV_PBE.pulay ... using dE_dnG = -1.230239e-02 computed for Ecut = 20.

Initialized 1 species with 1 total atoms.

Folded 1 k-points by 12x12x1 to 144 k-points.

---------- Setting up k-points, bands, fillings ----------
Reduced to 19 k-points under symmetry. 
Computing the number of bands and number of electrons
Calculating initial fillings.
nElectrons:   3.000000   nBands: 3   nStates: 38

----- Setting up reduced wavefunction bases (one per k-point) -----
average nbasis = 52924.021 , ideal nbasis = 52918.836

---------- Setting up coulomb interaction ----------
Initialized slab truncation along lattice direction 001

---------- Setting up 2D ewald sum ----------
Optimum gaussian width for ewald sums = 10.498040 bohr.
Real space sums over 289 unit cells with max indices [  8  8  0  ]
Reciprocal space sums over 81 terms with max indices [  4  4  0  ]

---------- Allocating electronic variables ----------
Initializing wave functions:  linear combination of atomic orbitals
Note: number of bands (3) exceeds available atomic orbitals (2)
Li pseudo-atom occupations:   s ( 2 1 )
	FillingsUpdate:  mu: +0.368061114  nElectrons: 3.000000  magneticMoment: [ Abs: 0.12243  Tot: -0.12000 ]
LCAOMinimize: Iter:   0  F: -1.3120847486939535  |grad|_K:  4.108e-05  alpha:  1.000e+00
	FillingsUpdate:  mu: +0.368060669  nElectrons: 3.000000  magneticMoment: [ Abs: 0.12243  Tot: -0.12000 ]
LCAOMinimize: Iter:   1  F: -1.3120850542239815  |grad|_K:  7.571e-08  alpha:  1.059e+00  linmin: -9.336e-03  cgtest:  3.054e-02  t[s]:     12.52
LCAOMinimize: Encountered beta<0, resetting CG.
LCAOMinimize: 	Step increased F by 8.437695e-13, reducing alpha to 4.399862e-02.
LCAOMinimize: 	Step increased F by 2.116085e-13, reducing alpha to 4.399862e-03.
	FillingsUpdate:  mu: +0.368060669  nElectrons: 3.000000  magneticMoment: [ Abs: 0.12243  Tot: -0.12000 ]
LCAOMinimize: Iter:   2  F: -1.3120850542243954  |grad|_K:  7.538e-08  alpha:  4.400e-03  linmin: -1.601e-02  cgtest:  1.000e+00  t[s]:     19.33
LCAOMinimize: Encountered beta<0, resetting CG.
LCAOMinimize: Converged (|Delta F|<1.000000e-06 for 2 iters).


---- Citations for features of the code used in this run ----

   Software package:
      R. Sundararaman, K. Letchworth-Weaver, K.A. Schwarz, D. Gunceler, Y. Ozhabes and T.A. Arias, 'JDFTx: software for joint density-functional theory', SoftwareX 6, 278 (2017)

   gga-PBE exchange-correlation functional:
      J.P. Perdew, K. Burke and M. Ernzerhof, Phys. Rev. Lett. 77, 3865 (1996)

   Pseudopotentials:
      M Schlipf and F Gygi, Comput. Phys. Commun. 196, 36 (2015)

   Truncated Coulomb potentials:
      R. Sundararaman and T.A. Arias, Phys. Rev. B 87, 165122 (2013)

This list may not be complete. Please suggest additional citations or
report any other bugs at https://github.com/shankar1729/jdftx/issues

Initialization completed successfully at t[s]:     19.47


-------- Electronic minimization -----------
Will mix electronic density at each iteration.
	FillingsUpdate:  mu: +0.368060669  nElectrons: 3.000000  magneticMoment: [ Abs: 0.12243  Tot: -0.12000 ]
	FillingsUpdate:  mu: -0.614581899  nElectrons: 3.000000  magneticMoment: [ Abs: 0.12243  Tot: -0.12000 ]
SCF: Cycle:  0   F: -6.868138167201550   dF: -5.556e+00   |Residual|: 1.229e+00   |deigs|: 4.155e+00  t[s]:     25.04
	FillingsUpdate:  mu: -0.496172694  nElectrons: 3.000000  magneticMoment: [ Abs: 0.20757  Tot: -0.12000 ]
SCF: Cycle:  1   F: -6.913974612688756   dF: -4.584e-02   |Residual|: 7.599e-01   |deigs|: 2.752e-01  t[s]:     29.43
	FillingsUpdate:  mu: -0.228870091  nElectrons: 3.000000  magneticMoment: [ Abs: 0.26510  Tot: -0.12000 ]
SCF: Cycle:  2   F: -7.037884181000342   dF: -1.239e-01   |Residual|: 3.164e-01   |deigs|: 7.143e-01  t[s]:     34.04
	FillingsUpdate:  mu: -0.266366176  nElectrons: 3.000000  magneticMoment: [ Abs: 0.28272  Tot: -0.12000 ]
SCF: Cycle:  3   F: -7.038325687227254   dF: -4.415e-04   |Residual|: 1.848e-01   |deigs|: 7.867e-02  t[s]:     38.74
	FillingsUpdate:  mu: -0.237920459  nElectrons: 3.000000  magneticMoment: [ Abs: 0.27228  Tot: -0.12000 ]
SCF: Cycle:  4   F: -7.034983868127458   dF: +3.342e-03   |Residual|: 1.043e-01   |deigs|: 2.720e-02  t[s]:     43.55
	FillingsUpdate:  mu: -0.225670630  nElectrons: 3.000000  magneticMoment: [ Abs: 0.28126  Tot: -0.12000 ]
SCF: Cycle:  5   F: -7.036582018959962   dF: -1.598e-03   |Residual|: 1.011e-01   |deigs|: 2.285e-02  t[s]:     48.35
	FillingsUpdate:  mu: -0.202065625  nElectrons: 3.000000  magneticMoment: [ Abs: 0.24080  Tot: -0.12000 ]
SCF: Cycle:  6   F: -7.040309009496703   dF: -3.727e-03   |Residual|: 3.639e-02   |deigs|: 6.917e-02  t[s]:     53.25
	FillingsUpdate:  mu: -0.178310987  nElectrons: 3.000000  magneticMoment: [ Abs: 0.19089  Tot: -0.12000 ]
SCF: Cycle:  7   F: -7.042398620159463   dF: -2.090e-03   |Residual|: 1.158e-01   |deigs|: 5.771e-02  t[s]:     58.31
	FillingsUpdate:  mu: -0.173766742  nElectrons: 3.000000  magneticMoment: [ Abs: 0.17606  Tot: -0.12000 ]
SCF: Cycle:  8   F: -7.043220489832564   dF: -8.219e-04   |Residual|: 6.735e-02   |deigs|: 1.231e-02  t[s]:     63.50
	FillingsUpdate:  mu: -0.186904713  nElectrons: 3.000000  magneticMoment: [ Abs: 0.17335  Tot: -0.12000 ]
SCF: Cycle:  9   F: -7.043124823742503   dF: +9.567e-05   |Residual|: 9.091e-02   |deigs|: 7.487e-02  t[s]:     68.83
	FillingsUpdate:  mu: -0.182811093  nElectrons: 3.000000  magneticMoment: [ Abs: 0.22489  Tot: -0.12000 ]
SCF: Cycle: 10   F: -7.042989489031549   dF: +1.353e-04   |Residual|: 1.318e-01   |deigs|: 1.864e-02  t[s]:     74.30
	FillingsUpdate:  mu: -0.155782247  nElectrons: 3.000000  magneticMoment: [ Abs: 0.26647  Tot: -0.12000 ]
SCF: Cycle: 11   F: -7.043833904728314   dF: -8.444e-04   |Residual|: 4.207e-02   |deigs|: 7.800e-02  t[s]:     79.70
	FillingsUpdate:  mu: -0.152517873  nElectrons: 3.000000  magneticMoment: [ Abs: 0.19903  Tot: -0.12000 ]
SCF: Cycle: 12   F: -7.044264928366038   dF: -4.310e-04   |Residual|: 1.031e-02   |deigs|: 1.124e-02  t[s]:     85.08
	FillingsUpdate:  mu: -0.132579779  nElectrons: 3.000000  magneticMoment: [ Abs: 0.24049  Tot: -0.12000 ]
SCF: Cycle: 13   F: -7.044482963805440   dF: -2.180e-04   |Residual|: 8.642e-03   |deigs|: 2.257e-02  t[s]:     90.47
	FillingsUpdate:  mu: -0.125650237  nElectrons: 3.000000  magneticMoment: [ Abs: 0.20911  Tot: -0.12000 ]
SCF: Cycle: 14   F: -7.044541720285046   dF: -5.876e-05   |Residual|: 6.471e-03   |deigs|: 7.875e-03  t[s]:     95.94
	FillingsUpdate:  mu: -0.117295491  nElectrons: 3.000000  magneticMoment: [ Abs: 0.17735  Tot: -0.12000 ]
SCF: Cycle: 15   F: -7.044581820330633   dF: -4.010e-05   |Residual|: 5.005e-03   |deigs|: 9.548e-03  t[s]:    101.39
	FillingsUpdate:  mu: -0.113333951  nElectrons: 3.000000  magneticMoment: [ Abs: 0.16272  Tot: -0.12000 ]
SCF: Cycle: 16   F: -7.044590898387683   dF: -9.078e-06   |Residual|: 3.915e-03   |deigs|: 3.802e-03  t[s]:    106.82
	FillingsUpdate:  mu: -0.110075419  nElectrons: 3.000000  magneticMoment: [ Abs: 0.15892  Tot: -0.12000 ]
SCF: Cycle: 17   F: -7.044596622480009   dF: -5.724e-06   |Residual|: 2.511e-03   |deigs|: 2.713e-03  t[s]:    112.28
	FillingsUpdate:  mu: -0.108455252  nElectrons: 3.000000  magneticMoment: [ Abs: 0.14892  Tot: -0.12000 ]
SCF: Cycle: 18   F: -7.044587814467337   dF: +8.808e-06   |Residual|: 1.999e-03   |deigs|: 1.466e-03  t[s]:    117.65
	FillingsUpdate:  mu: -0.106943356  nElectrons: 3.000000  magneticMoment: [ Abs: 0.14241  Tot: -0.12000 ]
SCF: Cycle: 19   F: -7.044596351964401   dF: -8.537e-06   |Residual|: 1.422e-03   |deigs|: 1.555e-03  t[s]:    123.12
	FillingsUpdate:  mu: -0.105769112  nElectrons: 3.000000  magneticMoment: [ Abs: 0.14137  Tot: -0.12000 ]
SCF: Cycle: 20   F: -7.044621381021105   dF: -2.503e-05   |Residual|: 9.274e-04   |deigs|: 1.465e-03  t[s]:    128.60
	FillingsUpdate:  mu: -0.105733809  nElectrons: 3.000000  magneticMoment: [ Abs: 0.13238  Tot: -0.12000 ]
SCF: Cycle: 21   F: -7.044633602206750   dF: -1.222e-05   |Residual|: 7.377e-04   |deigs|: 2.582e-04  t[s]:    134.06
	FillingsUpdate:  mu: -0.105644082  nElectrons: 3.000000  magneticMoment: [ Abs: 0.12840  Tot: -0.12000 ]
SCF: Cycle: 22   F: -7.044645139735186   dF: -1.154e-05   |Residual|: 4.949e-04   |deigs|: 2.352e-04  t[s]:    139.45
	FillingsUpdate:  mu: -0.105760682  nElectrons: 3.000000  magneticMoment: [ Abs: 0.12600  Tot: -0.12000 ]
SCF: Cycle: 23   F: -7.044651007324903   dF: -5.868e-06   |Residual|: 3.750e-04   |deigs|: 1.688e-04  t[s]:    144.92
	FillingsUpdate:  mu: -0.105635981  nElectrons: 3.000000  magneticMoment: [ Abs: 0.12338  Tot: -0.12000 ]
SCF: Cycle: 24   F: -7.044654697062919   dF: -3.690e-06   |Residual|: 2.590e-04   |deigs|: 1.246e-04  t[s]:    150.28
	FillingsUpdate:  mu: -0.105503231  nElectrons: 3.000000  magneticMoment: [ Abs: 0.12321  Tot: -0.12000 ]
SCF: Cycle: 25   F: -7.044656947829623   dF: -2.251e-06   |Residual|: 1.695e-04   |deigs|: 1.341e-04  t[s]:    155.70
	FillingsUpdate:  mu: -0.105431030  nElectrons: 3.000000  magneticMoment: [ Abs: 0.12216  Tot: -0.12000 ]
SCF: Cycle: 26   F: -7.044657656392604   dF: -7.086e-07   |Residual|: 1.071e-04   |deigs|: 7.881e-05  t[s]:    161.12
	FillingsUpdate:  mu: -0.105391627  nElectrons: 3.000000  magneticMoment: [ Abs: 0.12114  Tot: -0.12000 ]
SCF: Cycle: 27   F: -7.044657980332454   dF: -3.239e-07   |Residual|: 6.955e-05   |deigs|: 6.669e-05  t[s]:    166.50
	FillingsUpdate:  mu: -0.105421577  nElectrons: 3.000000  magneticMoment: [ Abs: 0.12083  Tot: -0.12000 ]
SCF: Cycle: 28   F: -7.044658071324161   dF: -9.099e-08   |Residual|: 4.657e-05   |deigs|: 8.076e-05  t[s]:    171.99
	FillingsUpdate:  mu: -0.105477258  nElectrons: 3.000000  magneticMoment: [ Abs: 0.12070  Tot: -0.12000 ]
SCF: Cycle: 29   F: -7.044658126547170   dF: -5.522e-08   |Residual|: 3.075e-05   |deigs|: 9.565e-05  t[s]:    177.41
	FillingsUpdate:  mu: -0.105500888  nElectrons: 3.000000  magneticMoment: [ Abs: 0.12059  Tot: -0.12000 ]
SCF: Cycle: 30   F: -7.044658148259312   dF: -2.171e-08   |Residual|: 2.538e-05   |deigs|: 5.745e-05  t[s]:    182.84
	FillingsUpdate:  mu: -0.105530659  nElectrons: 3.000000  magneticMoment: [ Abs: 0.12042  Tot: -0.12000 ]
SCF: Cycle: 31   F: -7.044658151183345   dF: -2.924e-09   |Residual|: 1.584e-05   |deigs|: 5.470e-05  t[s]:    188.24
	FillingsUpdate:  mu: -0.105544313  nElectrons: 3.000000  magneticMoment: [ Abs: 0.12024  Tot: -0.12000 ]
SCF: Cycle: 32   F: -7.044658146875435   dF: +4.308e-09   |Residual|: 9.830e-06   |deigs|: 3.919e-05  t[s]:    193.65
	FillingsUpdate:  mu: -0.105548740  nElectrons: 3.000000  magneticMoment: [ Abs: 0.12016  Tot: -0.12000 ]
SCF: Cycle: 33   F: -7.044658154600600   dF: -7.725e-09   |Residual|: 6.449e-06   |deigs|: 3.046e-05  t[s]:    199.12
	FillingsUpdate:  mu: -0.105550749  nElectrons: 3.000000  magneticMoment: [ Abs: 0.12014  Tot: -0.12000 ]
SCF: Cycle: 34   F: -7.044658162157602   dF: -7.557e-09   |Residual|: 4.711e-06   |deigs|: 2.564e-05  t[s]:    204.55
SCF: Converged (|Delta E|<1.000000e-08 for 2 iters).


# Ionic positions in lattice coordinates:
ion Li   0.000000000000000   0.000000000000000   0.000000000000000 0

# Forces in Lattice coordinates:
force Li  -0.000000000000000  -0.000000000000000   0.000000000000000 0

# Energy components:
   Eewald =       -1.0026681166851483
       EH =        2.5455950327165850
     Eloc =       -8.2231656899534560
      Enl =       -3.6032085491578867
   Epulay =        0.0000051497655618
      Exc =       -1.5341812221868039
       KE =        4.7729662275330185
-------------------------------------
     Etot =       -7.0446571679681291
       TS =        0.0000009941894733
-------------------------------------
        F =       -7.0446581621576021

IonicMinimize: Iter:   0  F: -7.044658162157602  |grad|_K:  0.000e+00  t[s]:    204.79
IonicMinimize: Converged (|grad|_K<1.000000e-04).

#--- Lowdin population analysis ---
# oxidation-state Li +2.082
# magnetic-moments Li -0.111

End date and time: Sat Feb  5 23:00:05 2022  (Duration: 0-0:03:24.82)
Done!
