
*************** JDFTx 1.6.0 (git hash 42ebbcc2) ***************

Start date and time: Sat Feb  5 22:56:08 2022
Executable jdftx with command-line: -i Alkali.in
Running on hosts (process indices):  d-6-10-3 (0-18)
Divided in process groups (process indices):  0 (0)  1 (1)  2 (2)  3 (3)  4 (4)  5 (5)  6 (6)  7 (7)  8 (8)  9 (9)  10 (10)  11 (11)  12 (12)  13 (13)  14 (14)  15 (15)  16 (16)  17 (17)  18 (18)
Resource initialization completed at t[s]:      0.00
Run totals: 19 processes, 48 threads, 0 GPUs


Input parsed successfully to the following command list (including defaults):

basis kpoint-dependent
coords-type Lattice
core-overlap-check vector
coulomb-interaction Slab 001
davidson-band-ratio 1.1
dump End None
dump-name $INPUT.$VAR
elec-cutoff 20
elec-eigen-algo Davidson
elec-ex-corr gga-PBE
elec-initial-magnetization -0.240000 yes
elec-smearing Fermi 1e-05
electronic-minimize  \
	dirUpdateScheme      FletcherReeves \
	linminMethod         DirUpdateRecommended \
	nIterations          100 \
	history              15 \
	knormThreshold       0 \
	energyDiffThreshold  1e-08 \
	nEnergyDiff          2 \
	alphaTstart          1 \
	alphaTmin            1e-10 \
	updateTestStepSize   yes \
	alphaTreduceFactor   0.1 \
	alphaTincreaseFactor 3 \
	nAlphaAdjustMax      3 \
	wolfeEnergy          0.0001 \
	wolfeGradient        0.9 \
	fdTest               no
electronic-scf  \
	nIterations	10000 \
	energyDiffThreshold	1e-08 \
	residualThreshold	1e-07 \
	mixFraction	0.5 \
	qMetric	0.8 \
	history	10 \
	nEigSteps	2 \
	eigDiffThreshold	1e-08 \
	mixedVariable	Density \
	qKerker	0.8 \
	qKappa	-1 \
	verbose	no \
	mixFractionMag	1.5
exchange-regularization WignerSeitzTruncated
fluid None
fluid-ex-corr (null) lda-PZ
fluid-gummel-loop 10 1.000000e-05
fluid-minimize  \
	dirUpdateScheme      PolakRibiere \
	linminMethod         DirUpdateRecommended \
	nIterations          100 \
	history              15 \
	knormThreshold       0 \
	energyDiffThreshold  0 \
	nEnergyDiff          2 \
	alphaTstart          1 \
	alphaTmin            1e-10 \
	updateTestStepSize   yes \
	alphaTreduceFactor   0.1 \
	alphaTincreaseFactor 3 \
	nAlphaAdjustMax      3 \
	wolfeEnergy          0.0001 \
	wolfeGradient        0.9 \
	fdTest               no
fluid-solvent H2O 55.338 ScalarEOS \
	epsBulk 78.4 \
	pMol 0.92466 \
	epsInf 1.77 \
	Pvap 1.06736e-10 \
	sigmaBulk 4.62e-05 \
	Rvdw 2.61727 \
	Res 1.42 \
	tauNuc 343133 \
	poleEl 15 7 1
forces-output-coords Positions
ion Li   0.000000000000000   0.000000000000000   0.000000000000000 0
ion-species SG15/$ID_ONCV_PBE.upf
ion-width 0
ionic-minimize  \
	dirUpdateScheme      L-BFGS \
	linminMethod         DirUpdateRecommended \
	nIterations          0 \
	history              15 \
	knormThreshold       0.0001 \
	energyDiffThreshold  1e-06 \
	nEnergyDiff          2 \
	alphaTstart          1 \
	alphaTmin            1e-10 \
	updateTestStepSize   yes \
	alphaTreduceFactor   0.1 \
	alphaTincreaseFactor 3 \
	nAlphaAdjustMax      3 \
	wolfeEnergy          0.0001 \
	wolfeGradient        0.9 \
	fdTest               no
kpoint   0.000000000000   0.000000000000   0.000000000000  1.00000000000000
kpoint-folding 12 12 1 
latt-move-scale 1 1 1
latt-scale 4 4 1 
lattice  \
	   4.727486978767153   -2.363743489383575    0.000000000000000  \
	  -0.000000000000000    4.094123819672498    0.000000000000000  \
	   0.000000000000000    0.000000000000000   40.000000000000000 
lattice-minimize  \
	dirUpdateScheme      L-BFGS \
	linminMethod         DirUpdateRecommended \
	nIterations          0 \
	history              15 \
	knormThreshold       0 \
	energyDiffThreshold  1e-06 \
	nEnergyDiff          2 \
	alphaTstart          1 \
	alphaTmin            1e-10 \
	updateTestStepSize   yes \
	alphaTreduceFactor   0.1 \
	alphaTincreaseFactor 3 \
	nAlphaAdjustMax      3 \
	wolfeEnergy          0.0001 \
	wolfeGradient        0.9 \
	fdTest               no
lcao-params -1 1e-06 1e-05
pcm-variant GLSSA13
spintype z-spin
subspace-rotation-factor 1 yes
symmetries automatic
symmetry-threshold 0.0001



---------- Setting up symmetries ----------

Found 24 point-group symmetries of the bravais lattice
Found 24 space-group symmetries with basis
Applied RMS atom displacement 0 bohrs to make symmetries exact.

---------- Initializing the Grid ----------
R = 
[      18.9099     -9.45497            0  ]
[            0      16.3765            0  ]
[            0            0           40  ]
unit cell volume = 12387.1
G =
[   0.332269   0.191835         -0  ]
[          0   0.383671         -0  ]
[         -0         -0    0.15708  ]
Minimum fftbox size, Smin = [  80  80  164  ]
Chosen fftbox size, S = [  80  80  168  ]

---------- Exchange Correlation functional ----------
Initalized PBE GGA exchange.
Initalized PBE GGA correlation.

---------- Setting up pseudopotentials ----------
Width of ionic core gaussian charges (only for fluid interactions / plotting) set to 0

Reading pseudopotential file '/home/gridsan/aligho/DFT/build-Nov24/pseudopotentials/SG15/Li_ONCV_PBE.upf':
  'Li' pseudopotential, 'PBE' functional
  Generated using ONCVPSP code by D. R. Hamann
  Author: Martin Schlipf and Francois Gygi  Date: 150915.
  3 valence electrons, 2 orbitals, 4 projectors, 1328 radial grid points, with lMax = 1
  Transforming local potential to a uniform radial grid of dG=0.02 with 1489 points.
  Transforming nonlocal projectors to a uniform radial grid of dG=0.02 with 432 points.
    1S    l: 0   occupation:  2.0   eigenvalue: -1.905623
    2S    l: 0   occupation:  1.0   eigenvalue: -0.105624
  Transforming atomic orbitals to a uniform radial grid of dG=0.02 with 432 points.
  WARNING: large normalization error in atomic orbital 1s (integral: 0.000000).
  Core radius for overlap checks: 1.63 bohrs.
  Reading pulay file /home/gridsan/aligho/DFT/build-Nov24/pseudopotentials/SG15/Li_ONCV_PBE.pulay ... using dE_dnG = -1.230239e-02 computed for Ecut = 20.

Initialized 1 species with 1 total atoms.

Folded 1 k-points by 12x12x1 to 144 k-points.

---------- Setting up k-points, bands, fillings ----------
Reduced to 19 k-points under symmetry. 
Computing the number of bands and number of electrons
Calculating initial fillings.
nElectrons:   3.000000   nBands: 3   nStates: 38

----- Setting up reduced wavefunction bases (one per k-point) -----
average nbasis = 52924.021 , ideal nbasis = 52918.836

---------- Setting up coulomb interaction ----------
Initialized slab truncation along lattice direction 001

---------- Setting up 2D ewald sum ----------
Optimum gaussian width for ewald sums = 10.498040 bohr.
Real space sums over 289 unit cells with max indices [  8  8  0  ]
Reciprocal space sums over 81 terms with max indices [  4  4  0  ]

---------- Allocating electronic variables ----------
Initializing wave functions:  linear combination of atomic orbitals
Note: number of bands (3) exceeds available atomic orbitals (2)
Li pseudo-atom occupations:   s ( 2 1 )
	FillingsUpdate:  mu: +0.367274313  nElectrons: 3.000000  magneticMoment: [ Abs: 0.24000  Tot: -0.24000 ]
LCAOMinimize: Iter:   0  F: -1.3117910274309861  |grad|_K:  4.113e-05  alpha:  1.000e+00
	FillingsUpdate:  mu: +0.367273957  nElectrons: 3.000000  magneticMoment: [ Abs: 0.24000  Tot: -0.24000 ]
LCAOMinimize: Iter:   1  F: -1.3117913336828571  |grad|_K:  5.554e-08  alpha:  1.059e+00  linmin: -1.551e-02  cgtest:  4.512e-02  t[s]:     12.66
LCAOMinimize: Encountered beta<0, resetting CG.
LCAOMinimize: 	Wrong curvature in test step, increasing alphaT to 3.175831e+00.
	FillingsUpdate:  mu: +0.367273957  nElectrons: 3.000000  magneticMoment: [ Abs: 0.24000  Tot: -0.24000 ]
LCAOMinimize: Iter:   2  F: -1.3117913336848976  |grad|_K:  3.153e-09  alpha: -6.397e-01  linmin:  1.232e-02  cgtest: -8.819e-01  t[s]:     15.89
LCAOMinimize: Converged (|Delta F|<1.000000e-06 for 2 iters).


---- Citations for features of the code used in this run ----

   Software package:
      R. Sundararaman, K. Letchworth-Weaver, K.A. Schwarz, D. Gunceler, Y. Ozhabes and T.A. Arias, 'JDFTx: software for joint density-functional theory', SoftwareX 6, 278 (2017)

   gga-PBE exchange-correlation functional:
      J.P. Perdew, K. Burke and M. Ernzerhof, Phys. Rev. Lett. 77, 3865 (1996)

   Pseudopotentials:
      M Schlipf and F Gygi, Comput. Phys. Commun. 196, 36 (2015)

   Truncated Coulomb potentials:
      R. Sundararaman and T.A. Arias, Phys. Rev. B 87, 165122 (2013)

This list may not be complete. Please suggest additional citations or
report any other bugs at https://github.com/shankar1729/jdftx/issues

Initialization completed successfully at t[s]:     16.03


-------- Electronic minimization -----------
Will mix electronic density at each iteration.
	FillingsUpdate:  mu: +0.367273957  nElectrons: 3.000000  magneticMoment: [ Abs: 0.24000  Tot: -0.24000 ]
	FillingsUpdate:  mu: -0.615187935  nElectrons: 3.000000  magneticMoment: [ Abs: 0.24000  Tot: -0.24000 ]
SCF: Cycle:  0   F: -6.869119290918584   dF: -5.557e+00   |Residual|: 1.229e+00   |deigs|: 4.155e+00  t[s]:     21.63
	FillingsUpdate:  mu: -0.493885249  nElectrons: 3.000000  magneticMoment: [ Abs: 0.41652  Tot: -0.24000 ]
SCF: Cycle:  1   F: -6.915201204319577   dF: -4.608e-02   |Residual|: 7.604e-01   |deigs|: 2.758e-01  t[s]:     26.12
	FillingsUpdate:  mu: -0.246369287  nElectrons: 3.000000  magneticMoment: [ Abs: 0.53459  Tot: -0.24000 ]
SCF: Cycle:  2   F: -7.036485028340208   dF: -1.213e-01   |Residual|: 3.188e-01   |deigs|: 7.095e-01  t[s]:     30.73
	FillingsUpdate:  mu: -0.262874107  nElectrons: 3.000000  magneticMoment: [ Abs: 0.51925  Tot: -0.24000 ]
SCF: Cycle:  3   F: -7.037412845204318   dF: -9.278e-04   |Residual|: 1.881e-01   |deigs|: 7.142e-02  t[s]:     35.47
	FillingsUpdate:  mu: -0.236466226  nElectrons: 3.000000  magneticMoment: [ Abs: 0.55243  Tot: -0.24000 ]
SCF: Cycle:  4   F: -7.035014843610609   dF: +2.398e-03   |Residual|: 6.357e-02   |deigs|: 2.447e-02  t[s]:     40.27
	FillingsUpdate:  mu: -0.227078875  nElectrons: 3.000000  magneticMoment: [ Abs: 0.52359  Tot: -0.24000 ]
SCF: Cycle:  5   F: -7.036399028363101   dF: -1.384e-03   |Residual|: 1.194e-01   |deigs|: 8.731e-03  t[s]:     45.16
	FillingsUpdate:  mu: -0.201596632  nElectrons: 3.000000  magneticMoment: [ Abs: 0.48374  Tot: -0.24000 ]
SCF: Cycle:  6   F: -7.040532923046658   dF: -4.134e-03   |Residual|: 5.838e-02   |deigs|: 5.724e-02  t[s]:     50.22
	FillingsUpdate:  mu: -0.176831045  nElectrons: 3.000000  magneticMoment: [ Abs: 0.36685  Tot: -0.24000 ]
SCF: Cycle:  7   F: -7.042882034219204   dF: -2.349e-03   |Residual|: 1.051e-01   |deigs|: 7.816e-02  t[s]:     55.33
	FillingsUpdate:  mu: -0.184596679  nElectrons: 3.000000  magneticMoment: [ Abs: 0.28138  Tot: -0.24000 ]
SCF: Cycle:  8   F: -7.042963125343221   dF: -8.109e-05   |Residual|: 6.782e-02   |deigs|: 2.188e-02  t[s]:     60.69
	FillingsUpdate:  mu: -0.187360683  nElectrons: 3.000000  magneticMoment: [ Abs: 0.34458  Tot: -0.24000 ]
SCF: Cycle:  9   F: -7.043460918325709   dF: -4.978e-04   |Residual|: 8.405e-02   |deigs|: 5.926e-02  t[s]:     66.09
	FillingsUpdate:  mu: -0.173989641  nElectrons: 3.000000  magneticMoment: [ Abs: 0.36458  Tot: -0.24000 ]
SCF: Cycle: 10   F: -7.043617825134357   dF: -1.569e-04   |Residual|: 1.300e-01   |deigs|: 1.559e-02  t[s]:     71.59
	FillingsUpdate:  mu: -0.156721036  nElectrons: 3.000000  magneticMoment: [ Abs: 0.36058  Tot: -0.24000 ]
SCF: Cycle: 11   F: -7.044608078590492   dF: -9.903e-04   |Residual|: 2.712e-02   |deigs|: 6.848e-02  t[s]:     77.09
	FillingsUpdate:  mu: -0.150131767  nElectrons: 3.000000  magneticMoment: [ Abs: 0.29585  Tot: -0.24000 ]
SCF: Cycle: 12   F: -7.044744641793643   dF: -1.366e-04   |Residual|: 1.151e-02   |deigs|: 1.036e-02  t[s]:     82.66
	FillingsUpdate:  mu: -0.133215776  nElectrons: 3.000000  magneticMoment: [ Abs: 0.33127  Tot: -0.24000 ]
SCF: Cycle: 13   F: -7.044913986061003   dF: -1.693e-04   |Residual|: 7.194e-03   |deigs|: 1.772e-02  t[s]:     88.21
	FillingsUpdate:  mu: -0.124246897  nElectrons: 3.000000  magneticMoment: [ Abs: 0.33440  Tot: -0.24000 ]
SCF: Cycle: 14   F: -7.044958481947933   dF: -4.450e-05   |Residual|: 6.163e-03   |deigs|: 9.874e-03  t[s]:     93.72
	FillingsUpdate:  mu: -0.117108334  nElectrons: 3.000000  magneticMoment: [ Abs: 0.31111  Tot: -0.24000 ]
SCF: Cycle: 15   F: -7.044991154949176   dF: -3.267e-05   |Residual|: 4.645e-03   |deigs|: 7.633e-03  t[s]:     99.20
	FillingsUpdate:  mu: -0.111524639  nElectrons: 3.000000  magneticMoment: [ Abs: 0.30606  Tot: -0.24000 ]
SCF: Cycle: 16   F: -7.045005414598314   dF: -1.426e-05   |Residual|: 3.370e-03   |deigs|: 5.549e-03  t[s]:    104.73
	FillingsUpdate:  mu: -0.110053002  nElectrons: 3.000000  magneticMoment: [ Abs: 0.29068  Tot: -0.24000 ]
SCF: Cycle: 17   F: -7.045000421372771   dF: +4.993e-06   |Residual|: 2.496e-03   |deigs|: 1.252e-03  t[s]:    110.29
	FillingsUpdate:  mu: -0.108081562  nElectrons: 3.000000  magneticMoment: [ Abs: 0.27887  Tot: -0.24000 ]
SCF: Cycle: 18   F: -7.044983742080383   dF: +1.668e-05   |Residual|: 1.911e-03   |deigs|: 2.071e-03  t[s]:    115.90
	FillingsUpdate:  mu: -0.106699124  nElectrons: 3.000000  magneticMoment: [ Abs: 0.26845  Tot: -0.24000 ]
SCF: Cycle: 19   F: -7.045005994508770   dF: -2.225e-05   |Residual|: 1.302e-03   |deigs|: 1.653e-03  t[s]:    121.42
	FillingsUpdate:  mu: -0.105472743  nElectrons: 3.000000  magneticMoment: [ Abs: 0.26275  Tot: -0.24000 ]
SCF: Cycle: 20   F: -7.045037329290952   dF: -3.133e-05   |Residual|: 8.989e-04   |deigs|: 1.255e-03  t[s]:    126.92
	FillingsUpdate:  mu: -0.104920742  nElectrons: 3.000000  magneticMoment: [ Abs: 0.25801  Tot: -0.24000 ]
SCF: Cycle: 21   F: -7.045049809915488   dF: -1.248e-05   |Residual|: 6.799e-04   |deigs|: 6.418e-04  t[s]:    132.42
	FillingsUpdate:  mu: -0.104728221  nElectrons: 3.000000  magneticMoment: [ Abs: 0.25375  Tot: -0.24000 ]
SCF: Cycle: 22   F: -7.045055923572456   dF: -6.114e-06   |Residual|: 5.599e-04   |deigs|: 2.994e-04  t[s]:    137.93
	FillingsUpdate:  mu: -0.104749993  nElectrons: 3.000000  magneticMoment: [ Abs: 0.24857  Tot: -0.24000 ]
SCF: Cycle: 23   F: -7.045064010183498   dF: -8.087e-06   |Residual|: 4.117e-04   |deigs|: 1.314e-04  t[s]:    143.42
	FillingsUpdate:  mu: -0.104984676  nElectrons: 3.000000  magneticMoment: [ Abs: 0.24486  Tot: -0.24000 ]
SCF: Cycle: 24   F: -7.045069032822963   dF: -5.023e-06   |Residual|: 2.589e-04   |deigs|: 2.822e-04  t[s]:    148.90
	FillingsUpdate:  mu: -0.105143927  nElectrons: 3.000000  magneticMoment: [ Abs: 0.24305  Tot: -0.24000 ]
SCF: Cycle: 25   F: -7.045069835242657   dF: -8.024e-07   |Residual|: 1.810e-04   |deigs|: 2.613e-04  t[s]:    154.38
	FillingsUpdate:  mu: -0.105204417  nElectrons: 3.000000  magneticMoment: [ Abs: 0.24167  Tot: -0.24000 ]
SCF: Cycle: 26   F: -7.045070280917990   dF: -4.457e-07   |Residual|: 9.851e-05   |deigs|: 1.764e-04  t[s]:    159.92
	FillingsUpdate:  mu: -0.105249733  nElectrons: 3.000000  magneticMoment: [ Abs: 0.24124  Tot: -0.24000 ]
SCF: Cycle: 27   F: -7.045070454529753   dF: -1.736e-07   |Residual|: 6.330e-05   |deigs|: 1.105e-04  t[s]:    165.48
	FillingsUpdate:  mu: -0.105264162  nElectrons: 3.000000  magneticMoment: [ Abs: 0.24095  Tot: -0.24000 ]
SCF: Cycle: 28   F: -7.045070492696705   dF: -3.817e-08   |Residual|: 4.620e-05   |deigs|: 6.700e-05  t[s]:    171.02
	FillingsUpdate:  mu: -0.105268572  nElectrons: 3.000000  magneticMoment: [ Abs: 0.24071  Tot: -0.24000 ]
SCF: Cycle: 29   F: -7.045070502626677   dF: -9.930e-09   |Residual|: 3.355e-05   |deigs|: 5.272e-05  t[s]:    176.53
	FillingsUpdate:  mu: -0.105263610  nElectrons: 3.000000  magneticMoment: [ Abs: 0.24050  Tot: -0.24000 ]
SCF: Cycle: 30   F: -7.045070507900824   dF: -5.274e-09   |Residual|: 2.548e-05   |deigs|: 4.348e-05  t[s]:    182.09
SCF: Converged (|Delta E|<1.000000e-08 for 2 iters).


# Ionic positions in lattice coordinates:
ion Li   0.000000000000000   0.000000000000000   0.000000000000000 0

# Forces in Lattice coordinates:
force Li  -0.000000000000000  -0.000000000000000   0.000000000000000 0

# Energy components:
   Eewald =       -1.0026681166851483
       EH =        2.5466426488649043
     Eloc =       -8.2244867299282696
      Enl =       -3.6033813727182675
   Epulay =        0.0000051497655618
      Exc =       -1.5348437520166771
       KE =        4.7736620173487658
-------------------------------------
     Etot =       -7.0450701553691299
       TS =        0.0000003525316949
-------------------------------------
        F =       -7.0450705079008245

IonicMinimize: Iter:   0  F: -7.045070507900824  |grad|_K:  0.000e+00  t[s]:    182.33
IonicMinimize: Converged (|grad|_K<1.000000e-04).

#--- Lowdin population analysis ---
# oxidation-state Li +2.081
# magnetic-moments Li -0.222

End date and time: Sat Feb  5 22:59:11 2022  (Duration: 0-0:03:02.36)
Done!
