
*************** JDFTx 1.6.0 (git hash 42ebbcc2) ***************

Start date and time: Sat Feb  5 22:56:22 2022
Executable jdftx with command-line: -i Alkali.in
Running on hosts (process indices):  d-4-5-2 (0-18)
Divided in process groups (process indices):  0 (0)  1 (1)  2 (2)  3 (3)  4 (4)  5 (5)  6 (6)  7 (7)  8 (8)  9 (9)  10 (10)  11 (11)  12 (12)  13 (13)  14 (14)  15 (15)  16 (16)  17 (17)  18 (18)
Resource initialization completed at t[s]:      0.00
Run totals: 19 processes, 48 threads, 0 GPUs


Input parsed successfully to the following command list (including defaults):

basis kpoint-dependent
coords-type Lattice
core-overlap-check vector
coulomb-interaction Slab 001
davidson-band-ratio 1.1
dump End None
dump-name $INPUT.$VAR
elec-cutoff 20
elec-eigen-algo Davidson
elec-ex-corr gga-PBE
elec-initial-magnetization -0.320000 yes
elec-smearing Fermi 1e-05
electronic-minimize  \
	dirUpdateScheme      FletcherReeves \
	linminMethod         DirUpdateRecommended \
	nIterations          100 \
	history              15 \
	knormThreshold       0 \
	energyDiffThreshold  1e-08 \
	nEnergyDiff          2 \
	alphaTstart          1 \
	alphaTmin            1e-10 \
	updateTestStepSize   yes \
	alphaTreduceFactor   0.1 \
	alphaTincreaseFactor 3 \
	nAlphaAdjustMax      3 \
	wolfeEnergy          0.0001 \
	wolfeGradient        0.9 \
	fdTest               no
electronic-scf  \
	nIterations	10000 \
	energyDiffThreshold	1e-08 \
	residualThreshold	1e-07 \
	mixFraction	0.5 \
	qMetric	0.8 \
	history	10 \
	nEigSteps	2 \
	eigDiffThreshold	1e-08 \
	mixedVariable	Density \
	qKerker	0.8 \
	qKappa	-1 \
	verbose	no \
	mixFractionMag	1.5
exchange-regularization WignerSeitzTruncated
fluid None
fluid-ex-corr (null) lda-PZ
fluid-gummel-loop 10 1.000000e-05
fluid-minimize  \
	dirUpdateScheme      PolakRibiere \
	linminMethod         DirUpdateRecommended \
	nIterations          100 \
	history              15 \
	knormThreshold       0 \
	energyDiffThreshold  0 \
	nEnergyDiff          2 \
	alphaTstart          1 \
	alphaTmin            1e-10 \
	updateTestStepSize   yes \
	alphaTreduceFactor   0.1 \
	alphaTincreaseFactor 3 \
	nAlphaAdjustMax      3 \
	wolfeEnergy          0.0001 \
	wolfeGradient        0.9 \
	fdTest               no
fluid-solvent H2O 55.338 ScalarEOS \
	epsBulk 78.4 \
	pMol 0.92466 \
	epsInf 1.77 \
	Pvap 1.06736e-10 \
	sigmaBulk 4.62e-05 \
	Rvdw 2.61727 \
	Res 1.42 \
	tauNuc 343133 \
	poleEl 15 7 1
forces-output-coords Positions
ion Li   0.000000000000000   0.000000000000000   0.000000000000000 0
ion-species SG15/$ID_ONCV_PBE.upf
ion-width 0
ionic-minimize  \
	dirUpdateScheme      L-BFGS \
	linminMethod         DirUpdateRecommended \
	nIterations          0 \
	history              15 \
	knormThreshold       0.0001 \
	energyDiffThreshold  1e-06 \
	nEnergyDiff          2 \
	alphaTstart          1 \
	alphaTmin            1e-10 \
	updateTestStepSize   yes \
	alphaTreduceFactor   0.1 \
	alphaTincreaseFactor 3 \
	nAlphaAdjustMax      3 \
	wolfeEnergy          0.0001 \
	wolfeGradient        0.9 \
	fdTest               no
kpoint   0.000000000000   0.000000000000   0.000000000000  1.00000000000000
kpoint-folding 12 12 1 
latt-move-scale 1 1 1
latt-scale 4 4 1 
lattice  \
	   4.727486978767153   -2.363743489383575    0.000000000000000  \
	  -0.000000000000000    4.094123819672498    0.000000000000000  \
	   0.000000000000000    0.000000000000000   40.000000000000000 
lattice-minimize  \
	dirUpdateScheme      L-BFGS \
	linminMethod         DirUpdateRecommended \
	nIterations          0 \
	history              15 \
	knormThreshold       0 \
	energyDiffThreshold  1e-06 \
	nEnergyDiff          2 \
	alphaTstart          1 \
	alphaTmin            1e-10 \
	updateTestStepSize   yes \
	alphaTreduceFactor   0.1 \
	alphaTincreaseFactor 3 \
	nAlphaAdjustMax      3 \
	wolfeEnergy          0.0001 \
	wolfeGradient        0.9 \
	fdTest               no
lcao-params -1 1e-06 1e-05
pcm-variant GLSSA13
spintype z-spin
subspace-rotation-factor 1 yes
symmetries automatic
symmetry-threshold 0.0001



---------- Setting up symmetries ----------

Found 24 point-group symmetries of the bravais lattice
Found 24 space-group symmetries with basis
Applied RMS atom displacement 0 bohrs to make symmetries exact.

---------- Initializing the Grid ----------
R = 
[      18.9099     -9.45497            0  ]
[            0      16.3765            0  ]
[            0            0           40  ]
unit cell volume = 12387.1
G =
[   0.332269   0.191835         -0  ]
[          0   0.383671         -0  ]
[         -0         -0    0.15708  ]
Minimum fftbox size, Smin = [  80  80  164  ]
Chosen fftbox size, S = [  80  80  168  ]

---------- Exchange Correlation functional ----------
Initalized PBE GGA exchange.
Initalized PBE GGA correlation.

---------- Setting up pseudopotentials ----------
Width of ionic core gaussian charges (only for fluid interactions / plotting) set to 0

Reading pseudopotential file '/home/gridsan/aligho/DFT/build-Nov24/pseudopotentials/SG15/Li_ONCV_PBE.upf':
  'Li' pseudopotential, 'PBE' functional
  Generated using ONCVPSP code by D. R. Hamann
  Author: Martin Schlipf and Francois Gygi  Date: 150915.
  3 valence electrons, 2 orbitals, 4 projectors, 1328 radial grid points, with lMax = 1
  Transforming local potential to a uniform radial grid of dG=0.02 with 1489 points.
  Transforming nonlocal projectors to a uniform radial grid of dG=0.02 with 432 points.
    1S    l: 0   occupation:  2.0   eigenvalue: -1.905623
    2S    l: 0   occupation:  1.0   eigenvalue: -0.105624
  Transforming atomic orbitals to a uniform radial grid of dG=0.02 with 432 points.
  WARNING: large normalization error in atomic orbital 1s (integral: 0.000000).
  Core radius for overlap checks: 1.63 bohrs.
  Reading pulay file /home/gridsan/aligho/DFT/build-Nov24/pseudopotentials/SG15/Li_ONCV_PBE.pulay ... using dE_dnG = -1.230239e-02 computed for Ecut = 20.

Initialized 1 species with 1 total atoms.

Folded 1 k-points by 12x12x1 to 144 k-points.

---------- Setting up k-points, bands, fillings ----------
Reduced to 19 k-points under symmetry. 
Computing the number of bands and number of electrons
Calculating initial fillings.
nElectrons:   3.000000   nBands: 3   nStates: 38

----- Setting up reduced wavefunction bases (one per k-point) -----
average nbasis = 52924.021 , ideal nbasis = 52918.836

---------- Setting up coulomb interaction ----------
Initialized slab truncation along lattice direction 001

---------- Setting up 2D ewald sum ----------
Optimum gaussian width for ewald sums = 10.498040 bohr.
Real space sums over 289 unit cells with max indices [  8  8  0  ]
Reciprocal space sums over 81 terms with max indices [  4  4  0  ]

---------- Allocating electronic variables ----------
Initializing wave functions:  linear combination of atomic orbitals
Note: number of bands (3) exceeds available atomic orbitals (2)
Li pseudo-atom occupations:   s ( 2 1 )
	FillingsUpdate:  mu: +0.365114689  nElectrons: 3.000000  magneticMoment: [ Abs: 0.32000  Tot: -0.32000 ]
LCAOMinimize: Iter:   0  F: -1.3114815021927413  |grad|_K:  3.669e-04  alpha:  1.000e+00
	FillingsUpdate:  mu: +0.365102107  nElectrons: 3.000000  magneticMoment: [ Abs: 0.32000  Tot: -0.32000 ]
LCAOMinimize: Iter:   1  F: -1.3114827355175971  |grad|_K:  2.092e-05  alpha:  5.147e-01  linmin: -6.287e-01  cgtest:  9.949e+00  t[s]:     12.53
LCAOMinimize: Encountered beta<0, resetting CG.
	FillingsUpdate:  mu: +0.365101850  nElectrons: 3.000000  magneticMoment: [ Abs: 0.32000  Tot: -0.32000 ]
LCAOMinimize: Iter:   2  F: -1.3114828147776558  |grad|_K:  3.247e-08  alpha:  1.059e+00  linmin: -1.289e-02  cgtest:  4.312e-02  t[s]:     15.79
LCAOMinimize: Encountered beta<0, resetting CG.
LCAOMinimize: 	Step increased F by 2.664535e-14, reducing alpha to 9.014260e-03.
	FillingsUpdate:  mu: +0.365101850  nElectrons: 3.000000  magneticMoment: [ Abs: 0.32000  Tot: -0.32000 ]
LCAOMinimize: Iter:   3  F: -1.3114828147776714  |grad|_K:  3.219e-08  alpha:  9.014e-03  linmin: -1.038e-02  cgtest:  1.000e+00  t[s]:     20.80
LCAOMinimize: Encountered beta<0, resetting CG.
LCAOMinimize: Converged (|Delta F|<1.000000e-06 for 2 iters).


---- Citations for features of the code used in this run ----

   Software package:
      R. Sundararaman, K. Letchworth-Weaver, K.A. Schwarz, D. Gunceler, Y. Ozhabes and T.A. Arias, 'JDFTx: software for joint density-functional theory', SoftwareX 6, 278 (2017)

   gga-PBE exchange-correlation functional:
      J.P. Perdew, K. Burke and M. Ernzerhof, Phys. Rev. Lett. 77, 3865 (1996)

   Pseudopotentials:
      M Schlipf and F Gygi, Comput. Phys. Commun. 196, 36 (2015)

   Truncated Coulomb potentials:
      R. Sundararaman and T.A. Arias, Phys. Rev. B 87, 165122 (2013)

This list may not be complete. Please suggest additional citations or
report any other bugs at https://github.com/shankar1729/jdftx/issues

Initialization completed successfully at t[s]:     20.95


-------- Electronic minimization -----------
Will mix electronic density at each iteration.
	FillingsUpdate:  mu: +0.365101850  nElectrons: 3.000000  magneticMoment: [ Abs: 0.32000  Tot: -0.32000 ]
	FillingsUpdate:  mu: -0.616080974  nElectrons: 3.000000  magneticMoment: [ Abs: 0.32000  Tot: -0.32000 ]
SCF: Cycle:  0   F: -6.870120099706669   dF: -5.559e+00   |Residual|: 1.229e+00   |deigs|: 4.155e+00  t[s]:     26.51
	FillingsUpdate:  mu: -0.492439266  nElectrons: 3.000000  magneticMoment: [ Abs: 0.55402  Tot: -0.32000 ]
SCF: Cycle:  1   F: -6.915710407188175   dF: -4.559e-02   |Residual|: 7.611e-01   |deigs|: 2.763e-01  t[s]:     31.01
	FillingsUpdate:  mu: -0.254378852  nElectrons: 3.000000  magneticMoment: [ Abs: 0.71338  Tot: -0.32000 ]
SCF: Cycle:  2   F: -7.036667026224869   dF: -1.210e-01   |Residual|: 3.203e-01   |deigs|: 7.082e-01  t[s]:     35.67
	FillingsUpdate:  mu: -0.267955884  nElectrons: 3.000000  magneticMoment: [ Abs: 0.67343  Tot: -0.32000 ]
SCF: Cycle:  3   F: -7.037281029286449   dF: -6.140e-04   |Residual|: 1.886e-01   |deigs|: 7.171e-02  t[s]:     40.47
	FillingsUpdate:  mu: -0.235797072  nElectrons: 3.000000  magneticMoment: [ Abs: 0.64926  Tot: -0.32000 ]
SCF: Cycle:  4   F: -7.035931485805149   dF: +1.350e-03   |Residual|: 6.370e-02   |deigs|: 2.832e-02  t[s]:     45.31
	FillingsUpdate:  mu: -0.223704259  nElectrons: 3.000000  magneticMoment: [ Abs: 0.63478  Tot: -0.32000 ]
SCF: Cycle:  5   F: -7.037364211310974   dF: -1.433e-03   |Residual|: 1.200e-01   |deigs|: 1.088e-02  t[s]:     50.22
	FillingsUpdate:  mu: -0.200281695  nElectrons: 3.000000  magneticMoment: [ Abs: 0.54315  Tot: -0.32000 ]
SCF: Cycle:  6   F: -7.041292493743085   dF: -3.928e-03   |Residual|: 2.942e-02   |deigs|: 6.377e-02  t[s]:     55.23
	FillingsUpdate:  mu: -0.179025482  nElectrons: 3.000000  magneticMoment: [ Abs: 0.42899  Tot: -0.32000 ]
SCF: Cycle:  7   F: -7.043245906311348   dF: -1.953e-03   |Residual|: 1.089e-01   |deigs|: 6.548e-02  t[s]:     60.44
	FillingsUpdate:  mu: -0.186282538  nElectrons: 3.000000  magneticMoment: [ Abs: 0.36162  Tot: -0.32000 ]
SCF: Cycle:  8   F: -7.043400615168732   dF: -1.547e-04   |Residual|: 5.751e-02   |deigs|: 2.461e-02  t[s]:     65.70
	FillingsUpdate:  mu: -0.189371460  nElectrons: 3.000000  magneticMoment: [ Abs: 0.42202  Tot: -0.32000 ]
SCF: Cycle:  9   F: -7.043858836071094   dF: -4.582e-04   |Residual|: 9.840e-02   |deigs|: 6.122e-02  t[s]:     71.10
	FillingsUpdate:  mu: -0.166451823  nElectrons: 3.000000  magneticMoment: [ Abs: 0.42092  Tot: -0.32000 ]
SCF: Cycle: 10   F: -7.044683808012295   dF: -8.250e-04   |Residual|: 7.178e-02   |deigs|: 2.852e-02  t[s]:     76.57
	FillingsUpdate:  mu: -0.153247323  nElectrons: 3.000000  magneticMoment: [ Abs: 0.43484  Tot: -0.32000 ]
SCF: Cycle: 11   F: -7.045023280475669   dF: -3.395e-04   |Residual|: 3.857e-02   |deigs|: 4.631e-02  t[s]:     82.08
	FillingsUpdate:  mu: -0.148381370  nElectrons: 3.000000  magneticMoment: [ Abs: 0.38014  Tot: -0.32000 ]
SCF: Cycle: 12   F: -7.045165828222458   dF: -1.425e-04   |Residual|: 1.336e-02   |deigs|: 1.551e-02  t[s]:     87.57
	FillingsUpdate:  mu: -0.130624301  nElectrons: 3.000000  magneticMoment: [ Abs: 0.43086  Tot: -0.32000 ]
SCF: Cycle: 13   F: -7.045338458354261   dF: -1.726e-04   |Residual|: 6.917e-03   |deigs|: 2.026e-02  t[s]:     93.04
	FillingsUpdate:  mu: -0.121950166  nElectrons: 3.000000  magneticMoment: [ Abs: 0.42574  Tot: -0.32000 ]
SCF: Cycle: 14   F: -7.045381472877438   dF: -4.301e-05   |Residual|: 5.705e-03   |deigs|: 9.874e-03  t[s]:     98.50
	FillingsUpdate:  mu: -0.114330166  nElectrons: 3.000000  magneticMoment: [ Abs: 0.40519  Tot: -0.32000 ]
SCF: Cycle: 15   F: -7.045347473462223   dF: +3.400e-05   |Residual|: 4.068e-03   |deigs|: 7.511e-03  t[s]:    103.98
	FillingsUpdate:  mu: -0.111272034  nElectrons: 3.000000  magneticMoment: [ Abs: 0.39922  Tot: -0.32000 ]
SCF: Cycle: 16   F: -7.045412653944375   dF: -6.518e-05   |Residual|: 3.134e-03   |deigs|: 2.996e-03  t[s]:    109.47
	FillingsUpdate:  mu: -0.109003925  nElectrons: 3.000000  magneticMoment: [ Abs: 0.37734  Tot: -0.32000 ]
SCF: Cycle: 17   F: -7.045382949027140   dF: +2.970e-05   |Residual|: 2.224e-03   |deigs|: 2.019e-03  t[s]:    114.94
	FillingsUpdate:  mu: -0.107225827  nElectrons: 3.000000  magneticMoment: [ Abs: 0.36746  Tot: -0.32000 ]
SCF: Cycle: 18   F: -7.045397961297376   dF: -1.501e-05   |Residual|: 1.718e-03   |deigs|: 1.783e-03  t[s]:    120.39
	FillingsUpdate:  mu: -0.106456787  nElectrons: 3.000000  magneticMoment: [ Abs: 0.35407  Tot: -0.32000 ]
SCF: Cycle: 19   F: -7.045427903937522   dF: -2.994e-05   |Residual|: 1.354e-03   |deigs|: 1.046e-03  t[s]:    125.90
	FillingsUpdate:  mu: -0.105927127  nElectrons: 3.000000  magneticMoment: [ Abs: 0.34229  Tot: -0.32000 ]
SCF: Cycle: 20   F: -7.045465874625644   dF: -3.797e-05   |Residual|: 9.068e-04   |deigs|: 7.373e-04  t[s]:    131.39
	FillingsUpdate:  mu: -0.105064525  nElectrons: 3.000000  magneticMoment: [ Abs: 0.33730  Tot: -0.32000 ]
SCF: Cycle: 21   F: -7.045479602187958   dF: -1.373e-05   |Residual|: 6.776e-04   |deigs|: 1.050e-03  t[s]:    136.87
	FillingsUpdate:  mu: -0.104601424  nElectrons: 3.000000  magneticMoment: [ Abs: 0.33342  Tot: -0.32000 ]
SCF: Cycle: 22   F: -7.045485143238150   dF: -5.541e-06   |Residual|: 5.302e-04   |deigs|: 5.265e-04  t[s]:    142.28
	FillingsUpdate:  mu: -0.104156537  nElectrons: 3.000000  magneticMoment: [ Abs: 0.32936  Tot: -0.32000 ]
SCF: Cycle: 23   F: -7.045491040882045   dF: -5.898e-06   |Residual|: 3.525e-04   |deigs|: 4.828e-04  t[s]:    147.69
	FillingsUpdate:  mu: -0.104185796  nElectrons: 3.000000  magneticMoment: [ Abs: 0.32741  Tot: -0.32000 ]
SCF: Cycle: 24   F: -7.045493020678894   dF: -1.980e-06   |Residual|: 2.504e-04   |deigs|: 1.577e-04  t[s]:    153.24
	FillingsUpdate:  mu: -0.104496812  nElectrons: 3.000000  magneticMoment: [ Abs: 0.32492  Tot: -0.32000 ]
SCF: Cycle: 25   F: -7.045495020703650   dF: -2.000e-06   |Residual|: 1.514e-04   |deigs|: 4.362e-04  t[s]:    158.68
	FillingsUpdate:  mu: -0.104619654  nElectrons: 3.000000  magneticMoment: [ Abs: 0.32355  Tot: -0.32000 ]
SCF: Cycle: 26   F: -7.045495356545157   dF: -3.358e-07   |Residual|: 1.099e-04   |deigs|: 1.728e-04  t[s]:    164.11
	FillingsUpdate:  mu: -0.104809928  nElectrons: 3.000000  magneticMoment: [ Abs: 0.32194  Tot: -0.32000 ]
SCF: Cycle: 27   F: -7.045495617470749   dF: -2.609e-07   |Residual|: 6.361e-05   |deigs|: 2.214e-04  t[s]:    169.60
	FillingsUpdate:  mu: -0.104871601  nElectrons: 3.000000  magneticMoment: [ Abs: 0.32118  Tot: -0.32000 ]
SCF: Cycle: 28   F: -7.045495683474778   dF: -6.600e-08   |Residual|: 4.417e-05   |deigs|: 8.545e-05  t[s]:    175.06
	FillingsUpdate:  mu: -0.104903215  nElectrons: 3.000000  magneticMoment: [ Abs: 0.32076  Tot: -0.32000 ]
SCF: Cycle: 29   F: -7.045495708404954   dF: -2.493e-08   |Residual|: 2.856e-05   |deigs|: 5.543e-05  t[s]:    180.59
	FillingsUpdate:  mu: -0.104913511  nElectrons: 3.000000  magneticMoment: [ Abs: 0.32057  Tot: -0.32000 ]
SCF: Cycle: 30   F: -7.045495719170912   dF: -1.077e-08   |Residual|: 2.116e-05   |deigs|: 4.199e-05  t[s]:    186.06
	FillingsUpdate:  mu: -0.104921770  nElectrons: 3.000000  magneticMoment: [ Abs: 0.32037  Tot: -0.32000 ]
SCF: Cycle: 31   F: -7.045495727614662   dF: -8.444e-09   |Residual|: 1.420e-05   |deigs|: 3.842e-05  t[s]:    191.47
	FillingsUpdate:  mu: -0.104922406  nElectrons: 3.000000  magneticMoment: [ Abs: 0.32029  Tot: -0.32000 ]
SCF: Cycle: 32   F: -7.045495730791340   dF: -3.177e-09   |Residual|: 1.181e-05   |deigs|: 3.156e-05  t[s]:    196.96
SCF: Converged (|Delta E|<1.000000e-08 for 2 iters).


# Ionic positions in lattice coordinates:
ion Li   0.000000000000000   0.000000000000000   0.000000000000000 0

# Forces in Lattice coordinates:
force Li  -0.000000000000000   0.000000000000000   0.000000000000000 0

# Energy components:
   Eewald =       -1.0026681166851483
       EH =        2.5478095127402125
     Eloc =       -8.2259391123880494
      Enl =       -3.6035512758751622
   Epulay =        0.0000051497655618
      Exc =       -1.5355522650786111
       KE =        4.7744018293058357
-------------------------------------
     Etot =       -7.0454942782153616
       TS =        0.0000014525759785
-------------------------------------
        F =       -7.0454957307913402

IonicMinimize: Iter:   0  F: -7.045495730791340  |grad|_K:  0.000e+00  t[s]:    197.20
IonicMinimize: Converged (|grad|_K<1.000000e-04).

#--- Lowdin population analysis ---
# oxidation-state Li +2.080
# magnetic-moments Li -0.296

End date and time: Sat Feb  5 22:59:39 2022  (Duration: 0-0:03:17.24)
Done!
