
*************** JDFTx 1.6.0 (git hash 42ebbcc2) ***************

Start date and time: Sat Feb  5 22:48:55 2022
Executable jdftx with command-line: -i Alkali.in
Running on hosts (process indices):  d-16-12-3 (0-18)
Divided in process groups (process indices):  0 (0)  1 (1)  2 (2)  3 (3)  4 (4)  5 (5)  6 (6)  7 (7)  8 (8)  9 (9)  10 (10)  11 (11)  12 (12)  13 (13)  14 (14)  15 (15)  16 (16)  17 (17)  18 (18)
Resource initialization completed at t[s]:      0.00
Run totals: 19 processes, 48 threads, 0 GPUs


Input parsed successfully to the following command list (including defaults):

basis kpoint-dependent
coords-type Lattice
core-overlap-check vector
coulomb-interaction Slab 001
davidson-band-ratio 1.1
dump End None
dump-name $INPUT.$VAR
elec-cutoff 20
elec-eigen-algo Davidson
elec-ex-corr gga-PBE
elec-initial-magnetization -0.580000 yes
elec-smearing Fermi 1e-05
electronic-minimize  \
	dirUpdateScheme      FletcherReeves \
	linminMethod         DirUpdateRecommended \
	nIterations          100 \
	history              15 \
	knormThreshold       0 \
	energyDiffThreshold  1e-08 \
	nEnergyDiff          2 \
	alphaTstart          1 \
	alphaTmin            1e-10 \
	updateTestStepSize   yes \
	alphaTreduceFactor   0.1 \
	alphaTincreaseFactor 3 \
	nAlphaAdjustMax      3 \
	wolfeEnergy          0.0001 \
	wolfeGradient        0.9 \
	fdTest               no
electronic-scf  \
	nIterations	10000 \
	energyDiffThreshold	1e-08 \
	residualThreshold	1e-07 \
	mixFraction	0.5 \
	qMetric	0.8 \
	history	10 \
	nEigSteps	2 \
	eigDiffThreshold	1e-08 \
	mixedVariable	Density \
	qKerker	0.8 \
	qKappa	-1 \
	verbose	no \
	mixFractionMag	1.5
exchange-regularization WignerSeitzTruncated
fluid None
fluid-ex-corr (null) lda-PZ
fluid-gummel-loop 10 1.000000e-05
fluid-minimize  \
	dirUpdateScheme      PolakRibiere \
	linminMethod         DirUpdateRecommended \
	nIterations          100 \
	history              15 \
	knormThreshold       0 \
	energyDiffThreshold  0 \
	nEnergyDiff          2 \
	alphaTstart          1 \
	alphaTmin            1e-10 \
	updateTestStepSize   yes \
	alphaTreduceFactor   0.1 \
	alphaTincreaseFactor 3 \
	nAlphaAdjustMax      3 \
	wolfeEnergy          0.0001 \
	wolfeGradient        0.9 \
	fdTest               no
fluid-solvent H2O 55.338 ScalarEOS \
	epsBulk 78.4 \
	pMol 0.92466 \
	epsInf 1.77 \
	Pvap 1.06736e-10 \
	sigmaBulk 4.62e-05 \
	Rvdw 2.61727 \
	Res 1.42 \
	tauNuc 343133 \
	poleEl 15 7 1
forces-output-coords Positions
ion Li   0.000000000000000   0.000000000000000   0.000000000000000 0
ion-species SG15/$ID_ONCV_PBE.upf
ion-width 0
ionic-minimize  \
	dirUpdateScheme      L-BFGS \
	linminMethod         DirUpdateRecommended \
	nIterations          0 \
	history              15 \
	knormThreshold       0.0001 \
	energyDiffThreshold  1e-06 \
	nEnergyDiff          2 \
	alphaTstart          1 \
	alphaTmin            1e-10 \
	updateTestStepSize   yes \
	alphaTreduceFactor   0.1 \
	alphaTincreaseFactor 3 \
	nAlphaAdjustMax      3 \
	wolfeEnergy          0.0001 \
	wolfeGradient        0.9 \
	fdTest               no
kpoint   0.000000000000   0.000000000000   0.000000000000  1.00000000000000
kpoint-folding 12 12 1 
latt-move-scale 1 1 1
latt-scale 4 4 1 
lattice  \
	   4.727486978767153   -2.363743489383575    0.000000000000000  \
	  -0.000000000000000    4.094123819672498    0.000000000000000  \
	   0.000000000000000    0.000000000000000   40.000000000000000 
lattice-minimize  \
	dirUpdateScheme      L-BFGS \
	linminMethod         DirUpdateRecommended \
	nIterations          0 \
	history              15 \
	knormThreshold       0 \
	energyDiffThreshold  1e-06 \
	nEnergyDiff          2 \
	alphaTstart          1 \
	alphaTmin            1e-10 \
	updateTestStepSize   yes \
	alphaTreduceFactor   0.1 \
	alphaTincreaseFactor 3 \
	nAlphaAdjustMax      3 \
	wolfeEnergy          0.0001 \
	wolfeGradient        0.9 \
	fdTest               no
lcao-params -1 1e-06 1e-05
pcm-variant GLSSA13
spintype z-spin
subspace-rotation-factor 1 yes
symmetries automatic
symmetry-threshold 0.0001



---------- Setting up symmetries ----------

Found 24 point-group symmetries of the bravais lattice
Found 24 space-group symmetries with basis
Applied RMS atom displacement 0 bohrs to make symmetries exact.

---------- Initializing the Grid ----------
R = 
[      18.9099     -9.45497            0  ]
[            0      16.3765            0  ]
[            0            0           40  ]
unit cell volume = 12387.1
G =
[   0.332269   0.191835         -0  ]
[          0   0.383671         -0  ]
[         -0         -0    0.15708  ]
Minimum fftbox size, Smin = [  80  80  164  ]
Chosen fftbox size, S = [  80  80  168  ]

---------- Exchange Correlation functional ----------
Initalized PBE GGA exchange.
Initalized PBE GGA correlation.

---------- Setting up pseudopotentials ----------
Width of ionic core gaussian charges (only for fluid interactions / plotting) set to 0

Reading pseudopotential file '/home/gridsan/aligho/DFT/build-Nov24/pseudopotentials/SG15/Li_ONCV_PBE.upf':
  'Li' pseudopotential, 'PBE' functional
  Generated using ONCVPSP code by D. R. Hamann
  Author: Martin Schlipf and Francois Gygi  Date: 150915.
  3 valence electrons, 2 orbitals, 4 projectors, 1328 radial grid points, with lMax = 1
  Transforming local potential to a uniform radial grid of dG=0.02 with 1489 points.
  Transforming nonlocal projectors to a uniform radial grid of dG=0.02 with 432 points.
    1S    l: 0   occupation:  2.0   eigenvalue: -1.905623
    2S    l: 0   occupation:  1.0   eigenvalue: -0.105624
  Transforming atomic orbitals to a uniform radial grid of dG=0.02 with 432 points.
  WARNING: large normalization error in atomic orbital 1s (integral: 0.000000).
  Core radius for overlap checks: 1.63 bohrs.
  Reading pulay file /home/gridsan/aligho/DFT/build-Nov24/pseudopotentials/SG15/Li_ONCV_PBE.pulay ... using dE_dnG = -1.230239e-02 computed for Ecut = 20.

Initialized 1 species with 1 total atoms.

Folded 1 k-points by 12x12x1 to 144 k-points.

---------- Setting up k-points, bands, fillings ----------
Reduced to 19 k-points under symmetry. 
Computing the number of bands and number of electrons
Calculating initial fillings.
nElectrons:   3.000000   nBands: 3   nStates: 38

----- Setting up reduced wavefunction bases (one per k-point) -----
average nbasis = 52924.021 , ideal nbasis = 52918.836

---------- Setting up coulomb interaction ----------
Initialized slab truncation along lattice direction 001

---------- Setting up 2D ewald sum ----------
Optimum gaussian width for ewald sums = 10.498040 bohr.
Real space sums over 289 unit cells with max indices [  8  8  0  ]
Reciprocal space sums over 81 terms with max indices [  4  4  0  ]

---------- Allocating electronic variables ----------
Initializing wave functions:  linear combination of atomic orbitals
Note: number of bands (3) exceeds available atomic orbitals (2)
Li pseudo-atom occupations:   s ( 2 1 )
	FillingsUpdate:  mu: +0.367247817  nElectrons: 3.000000  magneticMoment: [ Abs: 0.58000  Tot: -0.58000 ]
LCAOMinimize: Iter:   0  F: -1.3099945058876359  |grad|_K:  4.011e-05  alpha:  1.000e+00
	FillingsUpdate:  mu: +0.367247486  nElectrons: 3.000000  magneticMoment: [ Abs: 0.58000  Tot: -0.58000 ]
LCAOMinimize: Iter:   1  F: -1.3099947972169201  |grad|_K:  1.395e-07  alpha:  1.059e+00  linmin: -6.384e-04  cgtest:  1.852e-02  t[s]:     12.85
LCAOMinimize: Encountered beta<0, resetting CG.
	FillingsUpdate:  mu: +0.367247486  nElectrons: 3.000000  magneticMoment: [ Abs: 0.58000  Tot: -0.58000 ]
LCAOMinimize: Iter:   2  F: -1.3099947972187682  |grad|_K:  6.732e-08  alpha:  4.824e-01  linmin: -2.792e-02  cgtest:  1.099e+00  t[s]:     16.16
LCAOMinimize: Encountered beta<0, resetting CG.
LCAOMinimize: Converged (|Delta F|<1.000000e-06 for 2 iters).


---- Citations for features of the code used in this run ----

   Software package:
      R. Sundararaman, K. Letchworth-Weaver, K.A. Schwarz, D. Gunceler, Y. Ozhabes and T.A. Arias, 'JDFTx: software for joint density-functional theory', SoftwareX 6, 278 (2017)

   gga-PBE exchange-correlation functional:
      J.P. Perdew, K. Burke and M. Ernzerhof, Phys. Rev. Lett. 77, 3865 (1996)

   Pseudopotentials:
      M Schlipf and F Gygi, Comput. Phys. Commun. 196, 36 (2015)

   Truncated Coulomb potentials:
      R. Sundararaman and T.A. Arias, Phys. Rev. B 87, 165122 (2013)

This list may not be complete. Please suggest additional citations or
report any other bugs at https://github.com/shankar1729/jdftx/issues

Initialization completed successfully at t[s]:     16.30


-------- Electronic minimization -----------
Will mix electronic density at each iteration.
	FillingsUpdate:  mu: +0.367247486  nElectrons: 3.000000  magneticMoment: [ Abs: 0.58000  Tot: -0.58000 ]
	FillingsUpdate:  mu: -0.616346002  nElectrons: 3.000000  magneticMoment: [ Abs: 0.58000  Tot: -0.58000 ]
SCF: Cycle:  0   F: -6.876149590988214   dF: -5.566e+00   |Residual|: 1.229e+00   |deigs|: 4.155e+00  t[s]:     21.98
	FillingsUpdate:  mu: -0.486833424  nElectrons: 3.000000  magneticMoment: [ Abs: 1.00405  Tot: -0.58000 ]
SCF: Cycle:  1   F: -6.917106451648263   dF: -4.096e-02   |Residual|: 7.625e-01   |deigs|: 2.766e-01  t[s]:     26.62
	FillingsUpdate:  mu: -0.275925301  nElectrons: 3.000000  magneticMoment: [ Abs: 1.29595  Tot: -0.58000 ]
SCF: Cycle:  2   F: -7.036996812022142   dF: -1.199e-01   |Residual|: 3.212e-01   |deigs|: 7.043e-01  t[s]:     31.34
	FillingsUpdate:  mu: -0.283424685  nElectrons: 3.000000  magneticMoment: [ Abs: 1.16848  Tot: -0.58000 ]
SCF: Cycle:  3   F: -7.037267493856787   dF: -2.707e-04   |Residual|: 1.789e-01   |deigs|: 7.697e-02  t[s]:     36.25
	FillingsUpdate:  mu: -0.235302656  nElectrons: 3.000000  magneticMoment: [ Abs: 1.01736  Tot: -0.58000 ]
SCF: Cycle:  4   F: -7.039933296610703   dF: -2.666e-03   |Residual|: 5.024e-02   |deigs|: 4.061e-02  t[s]:     41.12
	FillingsUpdate:  mu: -0.222346685  nElectrons: 3.000000  magneticMoment: [ Abs: 1.00972  Tot: -0.58000 ]
SCF: Cycle:  5   F: -7.041070834999971   dF: -1.138e-03   |Residual|: 8.751e-02   |deigs|: 1.411e-02  t[s]:     46.22
	FillingsUpdate:  mu: -0.199296149  nElectrons: 3.000000  magneticMoment: [ Abs: 0.84681  Tot: -0.58000 ]
SCF: Cycle:  6   F: -7.043629680320615   dF: -2.559e-03   |Residual|: 2.327e-02   |deigs|: 5.444e-02  t[s]:     51.33
	FillingsUpdate:  mu: -0.184314778  nElectrons: 3.000000  magneticMoment: [ Abs: 0.74604  Tot: -0.58000 ]
SCF: Cycle:  7   F: -7.045444410525505   dF: -1.815e-03   |Residual|: 6.267e-02   |deigs|: 4.380e-02  t[s]:     56.54
	FillingsUpdate:  mu: -0.185081643  nElectrons: 3.000000  magneticMoment: [ Abs: 0.69932  Tot: -0.58000 ]
SCF: Cycle:  8   F: -7.045935903152030   dF: -4.915e-04   |Residual|: 3.972e-02   |deigs|: 7.980e-03  t[s]:     61.84
	FillingsUpdate:  mu: -0.182283307  nElectrons: 3.000000  magneticMoment: [ Abs: 0.66557  Tot: -0.58000 ]
SCF: Cycle:  9   F: -7.046745796571813   dF: -8.099e-04   |Residual|: 4.205e-02   |deigs|: 2.904e-02  t[s]:     67.35
	FillingsUpdate:  mu: -0.166864571  nElectrons: 3.000000  magneticMoment: [ Abs: 0.61905  Tot: -0.58000 ]
SCF: Cycle: 10   F: -7.047248061305830   dF: -5.023e-04   |Residual|: 1.634e-02   |deigs|: 2.144e-02  t[s]:     72.91
	FillingsUpdate:  mu: -0.156859404  nElectrons: 3.000000  magneticMoment: [ Abs: 0.65520  Tot: -0.58000 ]
SCF: Cycle: 11   F: -7.047342888153900   dF: -9.483e-05   |Residual|: 1.684e-02   |deigs|: 1.427e-02  t[s]:     78.49
	FillingsUpdate:  mu: -0.148608260  nElectrons: 3.000000  magneticMoment: [ Abs: 0.67877  Tot: -0.58000 ]
SCF: Cycle: 12   F: -7.047488499889102   dF: -1.456e-04   |Residual|: 1.277e-02   |deigs|: 8.196e-03  t[s]:     84.06
	FillingsUpdate:  mu: -0.127714950  nElectrons: 3.000000  magneticMoment: [ Abs: 0.73102  Tot: -0.58000 ]
SCF: Cycle: 13   F: -7.047595852914014   dF: -1.074e-04   |Residual|: 6.528e-03   |deigs|: 2.466e-02  t[s]:     89.69
	FillingsUpdate:  mu: -0.121676412  nElectrons: 3.000000  magneticMoment: [ Abs: 0.73047  Tot: -0.58000 ]
SCF: Cycle: 14   F: -7.047582334392125   dF: +1.352e-05   |Residual|: 5.743e-03   |deigs|: 6.483e-03  t[s]:     95.29
	FillingsUpdate:  mu: -0.115678783  nElectrons: 3.000000  magneticMoment: [ Abs: 0.70366  Tot: -0.58000 ]
SCF: Cycle: 15   F: -7.047634610795948   dF: -5.228e-05   |Residual|: 4.160e-03   |deigs|: 5.567e-03  t[s]:    100.90
	FillingsUpdate:  mu: -0.111740758  nElectrons: 3.000000  magneticMoment: [ Abs: 0.68388  Tot: -0.58000 ]
SCF: Cycle: 16   F: -7.047632298796446   dF: +2.312e-06   |Residual|: 3.395e-03   |deigs|: 3.645e-03  t[s]:    106.51
	FillingsUpdate:  mu: -0.108176106  nElectrons: 3.000000  magneticMoment: [ Abs: 0.65611  Tot: -0.58000 ]
SCF: Cycle: 17   F: -7.047614652353569   dF: +1.765e-05   |Residual|: 2.599e-03   |deigs|: 3.692e-03  t[s]:    112.14
	FillingsUpdate:  mu: -0.105030337  nElectrons: 3.000000  magneticMoment: [ Abs: 0.63766  Tot: -0.58000 ]
SCF: Cycle: 18   F: -7.047666664477901   dF: -5.201e-05   |Residual|: 1.836e-03   |deigs|: 3.992e-03  t[s]:    117.72
	FillingsUpdate:  mu: -0.103549152  nElectrons: 3.000000  magneticMoment: [ Abs: 0.62236  Tot: -0.58000 ]
SCF: Cycle: 19   F: -7.047709789900893   dF: -4.313e-05   |Residual|: 1.388e-03   |deigs|: 1.940e-03  t[s]:    123.30
	FillingsUpdate:  mu: -0.102446967  nElectrons: 3.000000  magneticMoment: [ Abs: 0.61287  Tot: -0.58000 ]
SCF: Cycle: 20   F: -7.047723964653459   dF: -1.417e-05   |Residual|: 1.007e-03   |deigs|: 1.424e-03  t[s]:    128.87
	FillingsUpdate:  mu: -0.102059030  nElectrons: 3.000000  magneticMoment: [ Abs: 0.60168  Tot: -0.58000 ]
SCF: Cycle: 21   F: -7.047745111895630   dF: -2.115e-05   |Residual|: 7.339e-04   |deigs|: 4.667e-04  t[s]:    134.39
	FillingsUpdate:  mu: -0.102683171  nElectrons: 3.000000  magneticMoment: [ Abs: 0.59287  Tot: -0.58000 ]
SCF: Cycle: 22   F: -7.047756358054319   dF: -1.125e-05   |Residual|: 4.938e-04   |deigs|: 8.174e-04  t[s]:    140.04
	FillingsUpdate:  mu: -0.103034630  nElectrons: 3.000000  magneticMoment: [ Abs: 0.58550  Tot: -0.58000 ]
SCF: Cycle: 23   F: -7.047762920564559   dF: -6.563e-06   |Residual|: 3.026e-04   |deigs|: 5.894e-04  t[s]:    145.56
	FillingsUpdate:  mu: -0.103230971  nElectrons: 3.000000  magneticMoment: [ Abs: 0.58270  Tot: -0.58000 ]
SCF: Cycle: 24   F: -7.047764130694445   dF: -1.210e-06   |Residual|: 2.148e-04   |deigs|: 2.890e-04  t[s]:    151.10
	FillingsUpdate:  mu: -0.103124250  nElectrons: 3.000000  magneticMoment: [ Abs: 0.58163  Tot: -0.58000 ]
SCF: Cycle: 25   F: -7.047764916883194   dF: -7.862e-07   |Residual|: 1.332e-04   |deigs|: 1.501e-04  t[s]:    156.66
	FillingsUpdate:  mu: -0.103103057  nElectrons: 3.000000  magneticMoment: [ Abs: 0.58133  Tot: -0.58000 ]
SCF: Cycle: 26   F: -7.047765107303259   dF: -1.904e-07   |Residual|: 9.012e-05   |deigs|: 8.309e-05  t[s]:    162.19
	FillingsUpdate:  mu: -0.103069799  nElectrons: 3.000000  magneticMoment: [ Abs: 0.58088  Tot: -0.58000 ]
SCF: Cycle: 27   F: -7.047765161150556   dF: -5.385e-08   |Residual|: 6.273e-05   |deigs|: 6.271e-05  t[s]:    167.79
	FillingsUpdate:  mu: -0.103078659  nElectrons: 3.000000  magneticMoment: [ Abs: 0.58075  Tot: -0.58000 ]
SCF: Cycle: 28   F: -7.047765211539310   dF: -5.039e-08   |Residual|: 4.048e-05   |deigs|: 5.134e-05  t[s]:    173.35
	FillingsUpdate:  mu: -0.103068229  nElectrons: 3.000000  magneticMoment: [ Abs: 0.58053  Tot: -0.58000 ]
SCF: Cycle: 29   F: -7.047765222565679   dF: -1.103e-08   |Residual|: 2.976e-05   |deigs|: 4.438e-05  t[s]:    178.98
	FillingsUpdate:  mu: -0.103062689  nElectrons: 3.000000  magneticMoment: [ Abs: 0.58039  Tot: -0.58000 ]
SCF: Cycle: 30   F: -7.047765231296737   dF: -8.731e-09   |Residual|: 2.135e-05   |deigs|: 3.982e-05  t[s]:    184.60
	FillingsUpdate:  mu: -0.103056842  nElectrons: 3.000000  magneticMoment: [ Abs: 0.58025  Tot: -0.58000 ]
SCF: Cycle: 31   F: -7.047765243359442   dF: -1.206e-08   |Residual|: 1.593e-05   |deigs|: 3.677e-05  t[s]:    190.25
	FillingsUpdate:  mu: -0.103059830  nElectrons: 3.000000  magneticMoment: [ Abs: 0.58013  Tot: -0.58000 ]
SCF: Cycle: 32   F: -7.047765242044078   dF: +1.315e-09   |Residual|: 1.336e-05   |deigs|: 3.533e-05  t[s]:    195.81
	FillingsUpdate:  mu: -0.103072944  nElectrons: 3.000000  magneticMoment: [ Abs: 0.58003  Tot: -0.58000 ]
SCF: Cycle: 33   F: -7.047765236405299   dF: +5.639e-09   |Residual|: 9.803e-06   |deigs|: 3.617e-05  t[s]:    201.40
	FillingsUpdate:  mu: -0.103079287  nElectrons: 3.000000  magneticMoment: [ Abs: 0.58001  Tot: -0.58000 ]
SCF: Cycle: 34   F: -7.047765245212035   dF: -8.807e-09   |Residual|: 7.634e-06   |deigs|: 3.100e-05  t[s]:    207.02
	FillingsUpdate:  mu: -0.103081601  nElectrons: 3.000000  magneticMoment: [ Abs: 0.58000  Tot: -0.58000 ]
SCF: Cycle: 35   F: -7.047765233255915   dF: +1.196e-08   |Residual|: 6.434e-06   |deigs|: 2.668e-05  t[s]:    212.56
	FillingsUpdate:  mu: -0.103081043  nElectrons: 3.000000  magneticMoment: [ Abs: 0.58001  Tot: -0.58000 ]
SCF: Cycle: 36   F: -7.047765246935709   dF: -1.368e-08   |Residual|: 4.446e-06   |deigs|: 2.235e-05  t[s]:    218.15
	FillingsUpdate:  mu: -0.103079076  nElectrons: 3.000000  magneticMoment: [ Abs: 0.58000  Tot: -0.58000 ]
SCF: Cycle: 37   F: -7.047765258575582   dF: -1.164e-08   |Residual|: 3.773e-06   |deigs|: 1.954e-05  t[s]:    223.81
	FillingsUpdate:  mu: -0.103077190  nElectrons: 3.000000  magneticMoment: [ Abs: 0.58000  Tot: -0.58000 ]
SCF: Cycle: 38   F: -7.047765255179024   dF: +3.397e-09   |Residual|: 3.049e-06   |deigs|: 1.707e-05  t[s]:    229.47
	FillingsUpdate:  mu: -0.103075450  nElectrons: 3.000000  magneticMoment: [ Abs: 0.58000  Tot: -0.58000 ]
SCF: Cycle: 39   F: -7.047765259135906   dF: -3.957e-09   |Residual|: 1.985e-06   |deigs|: 1.488e-05  t[s]:    235.00
	FillingsUpdate:  mu: -0.103074955  nElectrons: 3.000000  magneticMoment: [ Abs: 0.58000  Tot: -0.58000 ]
SCF: Cycle: 40   F: -7.047765259829048   dF: -6.931e-10   |Residual|: 1.403e-06   |deigs|: 1.361e-05  t[s]:    240.64
SCF: Converged (|Delta E|<1.000000e-08 for 2 iters).


# Ionic positions in lattice coordinates:
ion Li   0.000000000000000   0.000000000000000   0.000000000000000 0

# Forces in Lattice coordinates:
force Li   0.000000000000000   0.000000000000000   0.000000000000000 0

# Energy components:
   Eewald =       -1.0026681166851483
       EH =        2.5535458521302430
     Eloc =       -8.2330918933413333
      Enl =       -3.6044305466512023
   Epulay =        0.0000051497655618
      Exc =       -1.5392301761225926
       KE =        4.7781060906425044
-------------------------------------
     Etot =       -7.0477636402619677
       TS =        0.0000016195670800
-------------------------------------
        F =       -7.0477652598290481

IonicMinimize: Iter:   0  F: -7.047765259829048  |grad|_K:  0.000e+00  t[s]:    240.89
IonicMinimize: Converged (|grad|_K<1.000000e-04).

#--- Lowdin population analysis ---
# oxidation-state Li +2.074
# magnetic-moments Li -0.537

End date and time: Sat Feb  5 22:52:56 2022  (Duration: 0-0:04:00.92)
Done!
