
*************** JDFTx 1.6.0 (git hash 42ebbcc2) ***************

Start date and time: Sat Feb  5 23:02:40 2022
Executable jdftx with command-line: -i Alkali.in
Running on hosts (process indices):  d-4-7-2 (0-18)
Divided in process groups (process indices):  0 (0)  1 (1)  2 (2)  3 (3)  4 (4)  5 (5)  6 (6)  7 (7)  8 (8)  9 (9)  10 (10)  11 (11)  12 (12)  13 (13)  14 (14)  15 (15)  16 (16)  17 (17)  18 (18)
Resource initialization completed at t[s]:      0.00
Run totals: 19 processes, 48 threads, 0 GPUs


Input parsed successfully to the following command list (including defaults):

basis kpoint-dependent
coords-type Lattice
core-overlap-check vector
coulomb-interaction Slab 001
davidson-band-ratio 1.1
dump End None
dump-name $INPUT.$VAR
elec-cutoff 20
elec-eigen-algo Davidson
elec-ex-corr gga-PBE
elec-initial-magnetization 0.120000 yes
elec-smearing Fermi 1e-05
electronic-minimize  \
	dirUpdateScheme      FletcherReeves \
	linminMethod         DirUpdateRecommended \
	nIterations          100 \
	history              15 \
	knormThreshold       0 \
	energyDiffThreshold  1e-08 \
	nEnergyDiff          2 \
	alphaTstart          1 \
	alphaTmin            1e-10 \
	updateTestStepSize   yes \
	alphaTreduceFactor   0.1 \
	alphaTincreaseFactor 3 \
	nAlphaAdjustMax      3 \
	wolfeEnergy          0.0001 \
	wolfeGradient        0.9 \
	fdTest               no
electronic-scf  \
	nIterations	10000 \
	energyDiffThreshold	1e-08 \
	residualThreshold	1e-07 \
	mixFraction	0.5 \
	qMetric	0.8 \
	history	10 \
	nEigSteps	2 \
	eigDiffThreshold	1e-08 \
	mixedVariable	Density \
	qKerker	0.8 \
	qKappa	-1 \
	verbose	no \
	mixFractionMag	1.5
exchange-regularization WignerSeitzTruncated
fluid None
fluid-ex-corr (null) lda-PZ
fluid-gummel-loop 10 1.000000e-05
fluid-minimize  \
	dirUpdateScheme      PolakRibiere \
	linminMethod         DirUpdateRecommended \
	nIterations          100 \
	history              15 \
	knormThreshold       0 \
	energyDiffThreshold  0 \
	nEnergyDiff          2 \
	alphaTstart          1 \
	alphaTmin            1e-10 \
	updateTestStepSize   yes \
	alphaTreduceFactor   0.1 \
	alphaTincreaseFactor 3 \
	nAlphaAdjustMax      3 \
	wolfeEnergy          0.0001 \
	wolfeGradient        0.9 \
	fdTest               no
fluid-solvent H2O 55.338 ScalarEOS \
	epsBulk 78.4 \
	pMol 0.92466 \
	epsInf 1.77 \
	Pvap 1.06736e-10 \
	sigmaBulk 4.62e-05 \
	Rvdw 2.61727 \
	Res 1.42 \
	tauNuc 343133 \
	poleEl 15 7 1
forces-output-coords Positions
ion Li   0.000000000000000   0.000000000000000   0.000000000000000 0
ion-species SG15/$ID_ONCV_PBE.upf
ion-width 0
ionic-minimize  \
	dirUpdateScheme      L-BFGS \
	linminMethod         DirUpdateRecommended \
	nIterations          0 \
	history              15 \
	knormThreshold       0.0001 \
	energyDiffThreshold  1e-06 \
	nEnergyDiff          2 \
	alphaTstart          1 \
	alphaTmin            1e-10 \
	updateTestStepSize   yes \
	alphaTreduceFactor   0.1 \
	alphaTincreaseFactor 3 \
	nAlphaAdjustMax      3 \
	wolfeEnergy          0.0001 \
	wolfeGradient        0.9 \
	fdTest               no
kpoint   0.000000000000   0.000000000000   0.000000000000  1.00000000000000
kpoint-folding 12 12 1 
latt-move-scale 1 1 1
latt-scale 4 4 1 
lattice  \
	   4.727486978767153   -2.363743489383575    0.000000000000000  \
	  -0.000000000000000    4.094123819672498    0.000000000000000  \
	   0.000000000000000    0.000000000000000   40.000000000000000 
lattice-minimize  \
	dirUpdateScheme      L-BFGS \
	linminMethod         DirUpdateRecommended \
	nIterations          0 \
	history              15 \
	knormThreshold       0 \
	energyDiffThreshold  1e-06 \
	nEnergyDiff          2 \
	alphaTstart          1 \
	alphaTmin            1e-10 \
	updateTestStepSize   yes \
	alphaTreduceFactor   0.1 \
	alphaTincreaseFactor 3 \
	nAlphaAdjustMax      3 \
	wolfeEnergy          0.0001 \
	wolfeGradient        0.9 \
	fdTest               no
lcao-params -1 1e-06 1e-05
pcm-variant GLSSA13
spintype z-spin
subspace-rotation-factor 1 yes
symmetries automatic
symmetry-threshold 0.0001



---------- Setting up symmetries ----------

Found 24 point-group symmetries of the bravais lattice
Found 24 space-group symmetries with basis
Applied RMS atom displacement 0 bohrs to make symmetries exact.

---------- Initializing the Grid ----------
R = 
[      18.9099     -9.45497            0  ]
[            0      16.3765            0  ]
[            0            0           40  ]
unit cell volume = 12387.1
G =
[   0.332269   0.191835         -0  ]
[          0   0.383671         -0  ]
[         -0         -0    0.15708  ]
Minimum fftbox size, Smin = [  80  80  164  ]
Chosen fftbox size, S = [  80  80  168  ]

---------- Exchange Correlation functional ----------
Initalized PBE GGA exchange.
Initalized PBE GGA correlation.

---------- Setting up pseudopotentials ----------
Width of ionic core gaussian charges (only for fluid interactions / plotting) set to 0

Reading pseudopotential file '/home/gridsan/aligho/DFT/build-Nov24/pseudopotentials/SG15/Li_ONCV_PBE.upf':
  'Li' pseudopotential, 'PBE' functional
  Generated using ONCVPSP code by D. R. Hamann
  Author: Martin Schlipf and Francois Gygi  Date: 150915.
  3 valence electrons, 2 orbitals, 4 projectors, 1328 radial grid points, with lMax = 1
  Transforming local potential to a uniform radial grid of dG=0.02 with 1489 points.
  Transforming nonlocal projectors to a uniform radial grid of dG=0.02 with 432 points.
    1S    l: 0   occupation:  2.0   eigenvalue: -1.905623
    2S    l: 0   occupation:  1.0   eigenvalue: -0.105624
  Transforming atomic orbitals to a uniform radial grid of dG=0.02 with 432 points.
  WARNING: large normalization error in atomic orbital 1s (integral: 0.000000).
  Core radius for overlap checks: 1.63 bohrs.
  Reading pulay file /home/gridsan/aligho/DFT/build-Nov24/pseudopotentials/SG15/Li_ONCV_PBE.pulay ... using dE_dnG = -1.230239e-02 computed for Ecut = 20.

Initialized 1 species with 1 total atoms.

Folded 1 k-points by 12x12x1 to 144 k-points.

---------- Setting up k-points, bands, fillings ----------
Reduced to 19 k-points under symmetry. 
Computing the number of bands and number of electrons
Calculating initial fillings.
nElectrons:   3.000000   nBands: 3   nStates: 38

----- Setting up reduced wavefunction bases (one per k-point) -----
average nbasis = 52924.021 , ideal nbasis = 52918.836

---------- Setting up coulomb interaction ----------
Initialized slab truncation along lattice direction 001

---------- Setting up 2D ewald sum ----------
Optimum gaussian width for ewald sums = 10.498040 bohr.
Real space sums over 289 unit cells with max indices [  8  8  0  ]
Reciprocal space sums over 81 terms with max indices [  4  4  0  ]

---------- Allocating electronic variables ----------
Initializing wave functions:  linear combination of atomic orbitals
Note: number of bands (3) exceeds available atomic orbitals (2)
Li pseudo-atom occupations:   s ( 2 1 )
	FillingsUpdate:  mu: +0.361079283  nElectrons: 3.000000  magneticMoment: [ Abs: 0.12333  Tot: +0.12000 ]
LCAOMinimize: Iter:   0  F: -1.3115819156695079  |grad|_K:  4.100e-05  alpha:  1.000e+00
	FillingsUpdate:  mu: +0.361078787  nElectrons: 3.000000  magneticMoment: [ Abs: 0.12333  Tot: +0.12000 ]
LCAOMinimize: Iter:   1  F: -1.3115822199037228  |grad|_K:  9.733e-08  alpha:  1.059e+00  linmin: -5.643e-03  cgtest:  2.618e-02  t[s]:     12.65
LCAOMinimize: Encountered beta<0, resetting CG.
	FillingsUpdate:  mu: +0.361078788  nElectrons: 3.000000  magneticMoment: [ Abs: 0.12333  Tot: +0.12000 ]
LCAOMinimize: Iter:   2  F: -1.3115822199056912  |grad|_K:  1.036e-07  alpha:  2.119e+00  linmin:  1.073e-02  cgtest: -1.008e+00  t[s]:     15.88
LCAOMinimize: Converged (|Delta F|<1.000000e-06 for 2 iters).


---- Citations for features of the code used in this run ----

   Software package:
      R. Sundararaman, K. Letchworth-Weaver, K.A. Schwarz, D. Gunceler, Y. Ozhabes and T.A. Arias, 'JDFTx: software for joint density-functional theory', SoftwareX 6, 278 (2017)

   gga-PBE exchange-correlation functional:
      J.P. Perdew, K. Burke and M. Ernzerhof, Phys. Rev. Lett. 77, 3865 (1996)

   Pseudopotentials:
      M Schlipf and F Gygi, Comput. Phys. Commun. 196, 36 (2015)

   Truncated Coulomb potentials:
      R. Sundararaman and T.A. Arias, Phys. Rev. B 87, 165122 (2013)

This list may not be complete. Please suggest additional citations or
report any other bugs at https://github.com/shankar1729/jdftx/issues

Initialization completed successfully at t[s]:     16.02


-------- Electronic minimization -----------
Will mix electronic density at each iteration.
	FillingsUpdate:  mu: +0.361078788  nElectrons: 3.000000  magneticMoment: [ Abs: 0.12333  Tot: +0.12000 ]
	FillingsUpdate:  mu: -0.613209804  nElectrons: 3.000000  magneticMoment: [ Abs: 0.12333  Tot: +0.12000 ]
SCF: Cycle:  0   F: -6.868086858965873   dF: -5.557e+00   |Residual|: 1.229e+00   |deigs|: 4.155e+00  t[s]:     21.60
	FillingsUpdate:  mu: -0.495757665  nElectrons: 3.000000  magneticMoment: [ Abs: 0.20608  Tot: +0.12000 ]
SCF: Cycle:  1   F: -6.913996958418547   dF: -4.591e-02   |Residual|: 7.597e-01   |deigs|: 2.753e-01  t[s]:     26.13
	FillingsUpdate:  mu: -0.229630187  nElectrons: 3.000000  magneticMoment: [ Abs: 0.26477  Tot: +0.12000 ]
SCF: Cycle:  2   F: -7.037728402581802   dF: -1.237e-01   |Residual|: 3.161e-01   |deigs|: 7.137e-01  t[s]:     30.79
	FillingsUpdate:  mu: -0.266605604  nElectrons: 3.000000  magneticMoment: [ Abs: 0.28298  Tot: +0.12000 ]
SCF: Cycle:  3   F: -7.038317156928696   dF: -5.888e-04   |Residual|: 1.845e-01   |deigs|: 7.815e-02  t[s]:     35.57
	FillingsUpdate:  mu: -0.238257692  nElectrons: 3.000000  magneticMoment: [ Abs: 0.26506  Tot: +0.12000 ]
SCF: Cycle:  4   F: -7.034903485198338   dF: +3.414e-03   |Residual|: 9.957e-02   |deigs|: 2.655e-02  t[s]:     40.33
	FillingsUpdate:  mu: -0.225332766  nElectrons: 3.000000  magneticMoment: [ Abs: 0.27548  Tot: +0.12000 ]
SCF: Cycle:  5   F: -7.036522124649286   dF: -1.619e-03   |Residual|: 1.060e-01   |deigs|: 2.093e-02  t[s]:     45.33
	FillingsUpdate:  mu: -0.203771778  nElectrons: 3.000000  magneticMoment: [ Abs: 0.23466  Tot: +0.12000 ]
SCF: Cycle:  6   F: -7.040041925207609   dF: -3.520e-03   |Residual|: 3.026e-02   |deigs|: 6.550e-02  t[s]:     50.37
	FillingsUpdate:  mu: -0.178216785  nElectrons: 3.000000  magneticMoment: [ Abs: 0.17538  Tot: +0.12000 ]
SCF: Cycle:  7   F: -7.042356190089588   dF: -2.314e-03   |Residual|: 1.173e-01   |deigs|: 6.268e-02  t[s]:     55.52
	FillingsUpdate:  mu: -0.175103011  nElectrons: 3.000000  magneticMoment: [ Abs: 0.16950  Tot: +0.12000 ]
SCF: Cycle:  8   F: -7.043138745526198   dF: -7.826e-04   |Residual|: 6.883e-02   |deigs|: 1.294e-02  t[s]:     60.83
	FillingsUpdate:  mu: -0.185093570  nElectrons: 3.000000  magneticMoment: [ Abs: 0.15816  Tot: +0.12000 ]
SCF: Cycle:  9   F: -7.043206881546071   dF: -6.814e-05   |Residual|: 8.569e-02   |deigs|: 6.920e-02  t[s]:     66.29
	FillingsUpdate:  mu: -0.182148797  nElectrons: 3.000000  magneticMoment: [ Abs: 0.17336  Tot: +0.12000 ]
SCF: Cycle: 10   F: -7.043077000839085   dF: +1.299e-04   |Residual|: 1.271e-01   |deigs|: 1.870e-02  t[s]:     71.86
	FillingsUpdate:  mu: -0.154484994  nElectrons: 3.000000  magneticMoment: [ Abs: 0.32796  Tot: +0.12000 ]
SCF: Cycle: 11   F: -7.043700296182750   dF: -6.233e-04   |Residual|: 5.104e-02   |deigs|: 7.756e-02  t[s]:     77.42
	FillingsUpdate:  mu: -0.152869022  nElectrons: 3.000000  magneticMoment: [ Abs: 0.20778  Tot: +0.12000 ]
SCF: Cycle: 12   F: -7.044231443498277   dF: -5.311e-04   |Residual|: 1.151e-02   |deigs|: 1.844e-02  t[s]:     82.88
	FillingsUpdate:  mu: -0.135036851  nElectrons: 3.000000  magneticMoment: [ Abs: 0.24880  Tot: +0.12000 ]
SCF: Cycle: 13   F: -7.044479157973883   dF: -2.477e-04   |Residual|: 8.790e-03   |deigs|: 2.223e-02  t[s]:     88.51
	FillingsUpdate:  mu: -0.127141874  nElectrons: 3.000000  magneticMoment: [ Abs: 0.20296  Tot: +0.12000 ]
SCF: Cycle: 14   F: -7.044530021550542   dF: -5.086e-05   |Residual|: 6.388e-03   |deigs|: 9.377e-03  t[s]:     93.95
	FillingsUpdate:  mu: -0.116310850  nElectrons: 3.000000  magneticMoment: [ Abs: 0.18078  Tot: +0.12000 ]
SCF: Cycle: 15   F: -7.044572087269295   dF: -4.207e-05   |Residual|: 5.233e-03   |deigs|: 1.266e-02  t[s]:     99.51
	FillingsUpdate:  mu: -0.113913180  nElectrons: 3.000000  magneticMoment: [ Abs: 0.16278  Tot: +0.12000 ]
SCF: Cycle: 16   F: -7.044583717534964   dF: -1.163e-05   |Residual|: 3.814e-03   |deigs|: 2.005e-03  t[s]:    105.02
	FillingsUpdate:  mu: -0.110392250  nElectrons: 3.000000  magneticMoment: [ Abs: 0.15652  Tot: +0.12000 ]
SCF: Cycle: 17   F: -7.044601684018036   dF: -1.797e-05   |Residual|: 2.678e-03   |deigs|: 3.022e-03  t[s]:    110.51
	FillingsUpdate:  mu: -0.107696462  nElectrons: 3.000000  magneticMoment: [ Abs: 0.14762  Tot: +0.12000 ]
SCF: Cycle: 18   F: -7.044594936384090   dF: +6.748e-06   |Residual|: 1.969e-03   |deigs|: 2.895e-03  t[s]:    116.04
	FillingsUpdate:  mu: -0.105645761  nElectrons: 3.000000  magneticMoment: [ Abs: 0.14481  Tot: +0.12000 ]
SCF: Cycle: 19   F: -7.044595138272827   dF: -2.019e-07   |Residual|: 1.425e-03   |deigs|: 2.285e-03  t[s]:    121.59
	FillingsUpdate:  mu: -0.104884851  nElectrons: 3.000000  magneticMoment: [ Abs: 0.13648  Tot: +0.12000 ]
SCF: Cycle: 20   F: -7.044619651913545   dF: -2.451e-05   |Residual|: 1.016e-03   |deigs|: 9.375e-04  t[s]:    127.16
	FillingsUpdate:  mu: -0.105435700  nElectrons: 3.000000  magneticMoment: [ Abs: 0.13090  Tot: +0.12000 ]
SCF: Cycle: 21   F: -7.044632519732731   dF: -1.287e-05   |Residual|: 7.222e-04   |deigs|: 5.949e-04  t[s]:    132.65
	FillingsUpdate:  mu: -0.105566043  nElectrons: 3.000000  magneticMoment: [ Abs: 0.12858  Tot: +0.12000 ]
SCF: Cycle: 22   F: -7.044646652056778   dF: -1.413e-05   |Residual|: 5.218e-04   |deigs|: 2.990e-04  t[s]:    138.15
	FillingsUpdate:  mu: -0.105484680  nElectrons: 3.000000  magneticMoment: [ Abs: 0.12502  Tot: +0.12000 ]
SCF: Cycle: 23   F: -7.044653139928897   dF: -6.488e-06   |Residual|: 3.646e-04   |deigs|: 1.099e-04  t[s]:    143.63
	FillingsUpdate:  mu: -0.105516734  nElectrons: 3.000000  magneticMoment: [ Abs: 0.12372  Tot: +0.12000 ]
SCF: Cycle: 24   F: -7.044656028010521   dF: -2.888e-06   |Residual|: 2.494e-04   |deigs|: 1.185e-04  t[s]:    149.17
	FillingsUpdate:  mu: -0.105508143  nElectrons: 3.000000  magneticMoment: [ Abs: 0.12274  Tot: +0.12000 ]
SCF: Cycle: 25   F: -7.044656939599853   dF: -9.116e-07   |Residual|: 1.634e-04   |deigs|: 8.749e-05  t[s]:    154.64
	FillingsUpdate:  mu: -0.105529950  nElectrons: 3.000000  magneticMoment: [ Abs: 0.12169  Tot: +0.12000 ]
SCF: Cycle: 26   F: -7.044657777760113   dF: -8.382e-07   |Residual|: 1.058e-04   |deigs|: 8.925e-05  t[s]:    160.12
	FillingsUpdate:  mu: -0.105548498  nElectrons: 3.000000  magneticMoment: [ Abs: 0.12076  Tot: +0.12000 ]
SCF: Cycle: 27   F: -7.044658013403502   dF: -2.356e-07   |Residual|: 5.655e-05   |deigs|: 8.606e-05  t[s]:    165.59
	FillingsUpdate:  mu: -0.105554621  nElectrons: 3.000000  magneticMoment: [ Abs: 0.12075  Tot: +0.12000 ]
SCF: Cycle: 28   F: -7.044658119041993   dF: -1.056e-07   |Residual|: 3.840e-05   |deigs|: 7.242e-05  t[s]:    171.12
	FillingsUpdate:  mu: -0.105574723  nElectrons: 3.000000  magneticMoment: [ Abs: 0.12065  Tot: +0.12000 ]
SCF: Cycle: 29   F: -7.044658114666841   dF: +4.375e-09   |Residual|: 2.603e-05   |deigs|: 6.744e-05  t[s]:    176.62
	FillingsUpdate:  mu: -0.105583387  nElectrons: 3.000000  magneticMoment: [ Abs: 0.12053  Tot: +0.12000 ]
SCF: Cycle: 30   F: -7.044658148785463   dF: -3.412e-08   |Residual|: 1.807e-05   |deigs|: 5.325e-05  t[s]:    182.17
	FillingsUpdate:  mu: -0.105590431  nElectrons: 3.000000  magneticMoment: [ Abs: 0.12039  Tot: +0.12000 ]
SCF: Cycle: 31   F: -7.044658139171592   dF: +9.614e-09   |Residual|: 1.387e-05   |deigs|: 4.451e-05  t[s]:    187.75
	FillingsUpdate:  mu: -0.105590748  nElectrons: 3.000000  magneticMoment: [ Abs: 0.12026  Tot: +0.12000 ]
SCF: Cycle: 32   F: -7.044658160322519   dF: -2.115e-08   |Residual|: 8.849e-06   |deigs|: 3.579e-05  t[s]:    193.28
	FillingsUpdate:  mu: -0.105587417  nElectrons: 3.000000  magneticMoment: [ Abs: 0.12018  Tot: +0.12000 ]
SCF: Cycle: 33   F: -7.044658147805246   dF: +1.252e-08   |Residual|: 6.633e-06   |deigs|: 2.885e-05  t[s]:    198.83
	FillingsUpdate:  mu: -0.105583225  nElectrons: 3.000000  magneticMoment: [ Abs: 0.12014  Tot: +0.12000 ]
SCF: Cycle: 34   F: -7.044658160399186   dF: -1.259e-08   |Residual|: 4.882e-06   |deigs|: 2.378e-05  t[s]:    204.33
	FillingsUpdate:  mu: -0.105579716  nElectrons: 3.000000  magneticMoment: [ Abs: 0.12011  Tot: +0.12000 ]
SCF: Cycle: 35   F: -7.044658157835160   dF: +2.564e-09   |Residual|: 4.597e-06   |deigs|: 1.983e-05  t[s]:    209.93
	FillingsUpdate:  mu: -0.105574835  nElectrons: 3.000000  magneticMoment: [ Abs: 0.12008  Tot: +0.12000 ]
SCF: Cycle: 36   F: -7.044658163356575   dF: -5.521e-09   |Residual|: 3.752e-06   |deigs|: 1.675e-05  t[s]:    215.37
	FillingsUpdate:  mu: -0.105570241  nElectrons: 3.000000  magneticMoment: [ Abs: 0.12006  Tot: +0.12000 ]
SCF: Cycle: 37   F: -7.044658164337411   dF: -9.808e-10   |Residual|: 3.282e-06   |deigs|: 1.486e-05  t[s]:    220.90
SCF: Converged (|Delta E|<1.000000e-08 for 2 iters).


# Ionic positions in lattice coordinates:
ion Li   0.000000000000000   0.000000000000000   0.000000000000000 0

# Forces in Lattice coordinates:
force Li  -0.000000000000000  -0.000000000000000   0.000000000000000 0

# Energy components:
   Eewald =       -1.0026681166851483
       EH =        2.5456105462302259
     Eloc =       -8.2231854592067766
      Enl =       -3.6032110458223059
   Epulay =        0.0000051497655618
      Exc =       -1.5341842335155285
       KE =        4.7729759891118846
-------------------------------------
     Etot =       -7.0446571701220879
       TS =        0.0000009942153232
-------------------------------------
        F =       -7.0446581643374113

IonicMinimize: Iter:   0  F: -7.044658164337411  |grad|_K:  0.000e+00  t[s]:    221.14
IonicMinimize: Converged (|grad|_K<1.000000e-04).

#--- Lowdin population analysis ---
# oxidation-state Li +2.082
# magnetic-moments Li +0.111

End date and time: Sat Feb  5 23:06:22 2022  (Duration: 0-0:03:41.17)
Done!
