
*************** JDFTx 1.6.0 (git hash 42ebbcc2) ***************

Start date and time: Sat Feb  5 22:48:58 2022
Executable jdftx with command-line: -i Alkali.in
Running on hosts (process indices):  d-6-3-2 (0-18)
Divided in process groups (process indices):  0 (0)  1 (1)  2 (2)  3 (3)  4 (4)  5 (5)  6 (6)  7 (7)  8 (8)  9 (9)  10 (10)  11 (11)  12 (12)  13 (13)  14 (14)  15 (15)  16 (16)  17 (17)  18 (18)
Resource initialization completed at t[s]:      0.00
Run totals: 19 processes, 48 threads, 0 GPUs


Input parsed successfully to the following command list (including defaults):

basis kpoint-dependent
coords-type Lattice
core-overlap-check vector
coulomb-interaction Slab 001
davidson-band-ratio 1.1
dump End None
dump-name $INPUT.$VAR
elec-cutoff 20
elec-eigen-algo Davidson
elec-ex-corr gga-PBE
elec-initial-magnetization -0.800000 yes
elec-smearing Fermi 1e-05
electronic-minimize  \
	dirUpdateScheme      FletcherReeves \
	linminMethod         DirUpdateRecommended \
	nIterations          100 \
	history              15 \
	knormThreshold       0 \
	energyDiffThreshold  1e-08 \
	nEnergyDiff          2 \
	alphaTstart          1 \
	alphaTmin            1e-10 \
	updateTestStepSize   yes \
	alphaTreduceFactor   0.1 \
	alphaTincreaseFactor 3 \
	nAlphaAdjustMax      3 \
	wolfeEnergy          0.0001 \
	wolfeGradient        0.9 \
	fdTest               no
electronic-scf  \
	nIterations	10000 \
	energyDiffThreshold	1e-08 \
	residualThreshold	1e-07 \
	mixFraction	0.5 \
	qMetric	0.8 \
	history	10 \
	nEigSteps	2 \
	eigDiffThreshold	1e-08 \
	mixedVariable	Density \
	qKerker	0.8 \
	qKappa	-1 \
	verbose	no \
	mixFractionMag	1.5
exchange-regularization WignerSeitzTruncated
fluid None
fluid-ex-corr (null) lda-PZ
fluid-gummel-loop 10 1.000000e-05
fluid-minimize  \
	dirUpdateScheme      PolakRibiere \
	linminMethod         DirUpdateRecommended \
	nIterations          100 \
	history              15 \
	knormThreshold       0 \
	energyDiffThreshold  0 \
	nEnergyDiff          2 \
	alphaTstart          1 \
	alphaTmin            1e-10 \
	updateTestStepSize   yes \
	alphaTreduceFactor   0.1 \
	alphaTincreaseFactor 3 \
	nAlphaAdjustMax      3 \
	wolfeEnergy          0.0001 \
	wolfeGradient        0.9 \
	fdTest               no
fluid-solvent H2O 55.338 ScalarEOS \
	epsBulk 78.4 \
	pMol 0.92466 \
	epsInf 1.77 \
	Pvap 1.06736e-10 \
	sigmaBulk 4.62e-05 \
	Rvdw 2.61727 \
	Res 1.42 \
	tauNuc 343133 \
	poleEl 15 7 1
forces-output-coords Positions
ion Li   0.000000000000000   0.000000000000000   0.000000000000000 0
ion-species SG15/$ID_ONCV_PBE.upf
ion-width 0
ionic-minimize  \
	dirUpdateScheme      L-BFGS \
	linminMethod         DirUpdateRecommended \
	nIterations          0 \
	history              15 \
	knormThreshold       0.0001 \
	energyDiffThreshold  1e-06 \
	nEnergyDiff          2 \
	alphaTstart          1 \
	alphaTmin            1e-10 \
	updateTestStepSize   yes \
	alphaTreduceFactor   0.1 \
	alphaTincreaseFactor 3 \
	nAlphaAdjustMax      3 \
	wolfeEnergy          0.0001 \
	wolfeGradient        0.9 \
	fdTest               no
kpoint   0.000000000000   0.000000000000   0.000000000000  1.00000000000000
kpoint-folding 12 12 1 
latt-move-scale 1 1 1
latt-scale 4 4 1 
lattice  \
	   4.727486978767153   -2.363743489383575    0.000000000000000  \
	  -0.000000000000000    4.094123819672498    0.000000000000000  \
	   0.000000000000000    0.000000000000000   40.000000000000000 
lattice-minimize  \
	dirUpdateScheme      L-BFGS \
	linminMethod         DirUpdateRecommended \
	nIterations          0 \
	history              15 \
	knormThreshold       0 \
	energyDiffThreshold  1e-06 \
	nEnergyDiff          2 \
	alphaTstart          1 \
	alphaTmin            1e-10 \
	updateTestStepSize   yes \
	alphaTreduceFactor   0.1 \
	alphaTincreaseFactor 3 \
	nAlphaAdjustMax      3 \
	wolfeEnergy          0.0001 \
	wolfeGradient        0.9 \
	fdTest               no
lcao-params -1 1e-06 1e-05
pcm-variant GLSSA13
spintype z-spin
subspace-rotation-factor 1 yes
symmetries automatic
symmetry-threshold 0.0001



---------- Setting up symmetries ----------

Found 24 point-group symmetries of the bravais lattice
Found 24 space-group symmetries with basis
Applied RMS atom displacement 0 bohrs to make symmetries exact.

---------- Initializing the Grid ----------
R = 
[      18.9099     -9.45497            0  ]
[            0      16.3765            0  ]
[            0            0           40  ]
unit cell volume = 12387.1
G =
[   0.332269   0.191835         -0  ]
[          0   0.383671         -0  ]
[         -0         -0    0.15708  ]
Minimum fftbox size, Smin = [  80  80  164  ]
Chosen fftbox size, S = [  80  80  168  ]

---------- Exchange Correlation functional ----------
Initalized PBE GGA exchange.
Initalized PBE GGA correlation.

---------- Setting up pseudopotentials ----------
Width of ionic core gaussian charges (only for fluid interactions / plotting) set to 0

Reading pseudopotential file '/home/gridsan/aligho/DFT/build-Nov24/pseudopotentials/SG15/Li_ONCV_PBE.upf':
  'Li' pseudopotential, 'PBE' functional
  Generated using ONCVPSP code by D. R. Hamann
  Author: Martin Schlipf and Francois Gygi  Date: 150915.
  3 valence electrons, 2 orbitals, 4 projectors, 1328 radial grid points, with lMax = 1
  Transforming local potential to a uniform radial grid of dG=0.02 with 1489 points.
  Transforming nonlocal projectors to a uniform radial grid of dG=0.02 with 432 points.
    1S    l: 0   occupation:  2.0   eigenvalue: -1.905623
    2S    l: 0   occupation:  1.0   eigenvalue: -0.105624
  Transforming atomic orbitals to a uniform radial grid of dG=0.02 with 432 points.
  WARNING: large normalization error in atomic orbital 1s (integral: 0.000000).
  Core radius for overlap checks: 1.63 bohrs.
  Reading pulay file /home/gridsan/aligho/DFT/build-Nov24/pseudopotentials/SG15/Li_ONCV_PBE.pulay ... using dE_dnG = -1.230239e-02 computed for Ecut = 20.

Initialized 1 species with 1 total atoms.

Folded 1 k-points by 12x12x1 to 144 k-points.

---------- Setting up k-points, bands, fillings ----------
Reduced to 19 k-points under symmetry. 
Computing the number of bands and number of electrons
Calculating initial fillings.
nElectrons:   3.000000   nBands: 3   nStates: 38

----- Setting up reduced wavefunction bases (one per k-point) -----
average nbasis = 52924.021 , ideal nbasis = 52918.836

---------- Setting up coulomb interaction ----------
Initialized slab truncation along lattice direction 001

---------- Setting up 2D ewald sum ----------
Optimum gaussian width for ewald sums = 10.498040 bohr.
Real space sums over 289 unit cells with max indices [  8  8  0  ]
Reciprocal space sums over 81 terms with max indices [  4  4  0  ]

---------- Allocating electronic variables ----------
Initializing wave functions:  linear combination of atomic orbitals
Note: number of bands (3) exceeds available atomic orbitals (2)
Li pseudo-atom occupations:   s ( 2 1 )
	FillingsUpdate:  mu: +0.366734902  nElectrons: 3.000000  magneticMoment: [ Abs: 0.80000  Tot: -0.80000 ]
LCAOMinimize: Iter:   0  F: -1.3081342142086563  |grad|_K:  3.979e-05  alpha:  1.000e+00
	FillingsUpdate:  mu: +0.366734574  nElectrons: 3.000000  magneticMoment: [ Abs: 0.80000  Tot: -0.80000 ]
LCAOMinimize: Iter:   1  F: -1.3081345008694065  |grad|_K:  1.633e-07  alpha:  1.059e+00  linmin: -5.397e-03  cgtest:  1.711e-02  t[s]:     12.44
LCAOMinimize: Encountered beta<0, resetting CG.
	FillingsUpdate:  mu: +0.366734574  nElectrons: 3.000000  magneticMoment: [ Abs: 0.80000  Tot: -0.80000 ]
LCAOMinimize: Iter:   2  F: -1.3081345008715459  |grad|_K:  4.027e-08  alpha:  7.853e-01  linmin: -3.353e-02  cgtest:  9.902e-01  t[s]:     15.66
LCAOMinimize: Encountered beta<0, resetting CG.
LCAOMinimize: Converged (|Delta F|<1.000000e-06 for 2 iters).


---- Citations for features of the code used in this run ----

   Software package:
      R. Sundararaman, K. Letchworth-Weaver, K.A. Schwarz, D. Gunceler, Y. Ozhabes and T.A. Arias, 'JDFTx: software for joint density-functional theory', SoftwareX 6, 278 (2017)

   gga-PBE exchange-correlation functional:
      J.P. Perdew, K. Burke and M. Ernzerhof, Phys. Rev. Lett. 77, 3865 (1996)

   Pseudopotentials:
      M Schlipf and F Gygi, Comput. Phys. Commun. 196, 36 (2015)

   Truncated Coulomb potentials:
      R. Sundararaman and T.A. Arias, Phys. Rev. B 87, 165122 (2013)

This list may not be complete. Please suggest additional citations or
report any other bugs at https://github.com/shankar1729/jdftx/issues

Initialization completed successfully at t[s]:     15.80


-------- Electronic minimization -----------
Will mix electronic density at each iteration.
	FillingsUpdate:  mu: +0.366734574  nElectrons: 3.000000  magneticMoment: [ Abs: 0.80000  Tot: -0.80000 ]
	FillingsUpdate:  mu: -0.614466428  nElectrons: 3.000000  magneticMoment: [ Abs: 0.80000  Tot: -0.80000 ]
SCF: Cycle:  0   F: -6.883681924294719   dF: -5.576e+00   |Residual|: 1.229e+00   |deigs|: 4.155e+00  t[s]:     21.29
	FillingsUpdate:  mu: -0.486573786  nElectrons: 3.000000  magneticMoment: [ Abs: 1.38362  Tot: -0.80000 ]
SCF: Cycle:  1   F: -6.914927116503766   dF: -3.125e-02   |Residual|: 7.647e-01   |deigs|: 2.761e-01  t[s]:     25.70
	FillingsUpdate:  mu: -0.288005325  nElectrons: 3.000000  magneticMoment: [ Abs: 1.79139  Tot: -0.80000 ]
SCF: Cycle:  2   F: -7.038172704701180   dF: -1.232e-01   |Residual|: 3.235e-01   |deigs|: 7.038e-01  t[s]:     30.26
	FillingsUpdate:  mu: -0.293785908  nElectrons: 3.000000  magneticMoment: [ Abs: 1.56722  Tot: -0.80000 ]
SCF: Cycle:  3   F: -7.038437060020721   dF: -2.644e-04   |Residual|: 1.604e-01   |deigs|: 8.730e-02  t[s]:     34.95
	FillingsUpdate:  mu: -0.241013881  nElectrons: 3.000000  magneticMoment: [ Abs: 1.35585  Tot: -0.80000 ]
SCF: Cycle:  4   F: -7.043483774830929   dF: -5.047e-03   |Residual|: 3.914e-02   |deigs|: 4.901e-02  t[s]:     39.70
	FillingsUpdate:  mu: -0.223243818  nElectrons: 3.000000  magneticMoment: [ Abs: 1.32488  Tot: -0.80000 ]
SCF: Cycle:  5   F: -7.044962662486690   dF: -1.479e-03   |Residual|: 6.279e-02   |deigs|: 1.778e-02  t[s]:     44.57
	FillingsUpdate:  mu: -0.199788061  nElectrons: 3.000000  magneticMoment: [ Abs: 1.13537  Tot: -0.80000 ]
SCF: Cycle:  6   F: -7.046804262675916   dF: -1.842e-03   |Residual|: 2.889e-02   |deigs|: 4.476e-02  t[s]:     49.61
	FillingsUpdate:  mu: -0.184581909  nElectrons: 3.000000  magneticMoment: [ Abs: 1.04388  Tot: -0.80000 ]
SCF: Cycle:  7   F: -7.048569646416964   dF: -1.765e-03   |Residual|: 3.221e-02   |deigs|: 3.782e-02  t[s]:     54.80
	FillingsUpdate:  mu: -0.181222053  nElectrons: 3.000000  magneticMoment: [ Abs: 0.97308  Tot: -0.80000 ]
SCF: Cycle:  8   F: -7.049337279647193   dF: -7.676e-04   |Residual|: 3.246e-02   |deigs|: 4.544e-03  t[s]:     60.01
	FillingsUpdate:  mu: -0.178798418  nElectrons: 3.000000  magneticMoment: [ Abs: 0.91489  Tot: -0.80000 ]
SCF: Cycle:  9   F: -7.049937702167587   dF: -6.004e-04   |Residual|: 1.189e-02   |deigs|: 1.294e-02  t[s]:     65.31
	FillingsUpdate:  mu: -0.167648483  nElectrons: 3.000000  magneticMoment: [ Abs: 0.84880  Tot: -0.80000 ]
SCF: Cycle: 10   F: -7.050191615050044   dF: -2.539e-04   |Residual|: 3.734e-02   |deigs|: 1.139e-02  t[s]:     70.77
	FillingsUpdate:  mu: -0.158459429  nElectrons: 3.000000  magneticMoment: [ Abs: 0.87117  Tot: -0.80000 ]
SCF: Cycle: 11   F: -7.050277377160874   dF: -8.576e-05   |Residual|: 9.960e-03   |deigs|: 1.742e-02  t[s]:     76.22
	FillingsUpdate:  mu: -0.143588905  nElectrons: 3.000000  magneticMoment: [ Abs: 0.92566  Tot: -0.80000 ]
SCF: Cycle: 12   F: -7.050411247613239   dF: -1.339e-04   |Residual|: 1.029e-02   |deigs|: 1.249e-02  t[s]:     81.63
	FillingsUpdate:  mu: -0.125923823  nElectrons: 3.000000  magneticMoment: [ Abs: 0.97200  Tot: -0.80000 ]
SCF: Cycle: 13   F: -7.050556418852535   dF: -1.452e-04   |Residual|: 6.593e-03   |deigs|: 2.089e-02  t[s]:     87.06
	FillingsUpdate:  mu: -0.117174361  nElectrons: 3.000000  magneticMoment: [ Abs: 0.97410  Tot: -0.80000 ]
SCF: Cycle: 14   F: -7.050497638546991   dF: +5.878e-05   |Residual|: 5.744e-03   |deigs|: 9.810e-03  t[s]:     92.54
	FillingsUpdate:  mu: -0.113527965  nElectrons: 3.000000  magneticMoment: [ Abs: 0.96184  Tot: -0.80000 ]
SCF: Cycle: 15   F: -7.050567270812007   dF: -6.963e-05   |Residual|: 4.595e-03   |deigs|: 4.272e-03  t[s]:     97.98
	FillingsUpdate:  mu: -0.110583504  nElectrons: 3.000000  magneticMoment: [ Abs: 0.92610  Tot: -0.80000 ]
SCF: Cycle: 16   F: -7.050636714148551   dF: -6.944e-05   |Residual|: 3.754e-03   |deigs|: 3.817e-03  t[s]:    103.42
	FillingsUpdate:  mu: -0.107001786  nElectrons: 3.000000  magneticMoment: [ Abs: 0.88990  Tot: -0.80000 ]
SCF: Cycle: 17   F: -7.050616017153904   dF: +2.070e-05   |Residual|: 3.268e-03   |deigs|: 3.894e-03  t[s]:    108.86
	FillingsUpdate:  mu: -0.101473478  nElectrons: 3.000000  magneticMoment: [ Abs: 0.86503  Tot: -0.80000 ]
SCF: Cycle: 18   F: -7.050667213041418   dF: -5.120e-05   |Residual|: 2.373e-03   |deigs|: 6.541e-03  t[s]:    114.33
	FillingsUpdate:  mu: -0.101063984  nElectrons: 3.000000  magneticMoment: [ Abs: 0.84688  Tot: -0.80000 ]
SCF: Cycle: 19   F: -7.050706661987225   dF: -3.945e-05   |Residual|: 1.838e-03   |deigs|: 9.964e-04  t[s]:    119.77
	FillingsUpdate:  mu: -0.099092259  nElectrons: 3.000000  magneticMoment: [ Abs: 0.83889  Tot: -0.80000 ]
SCF: Cycle: 20   F: -7.050742909497401   dF: -3.625e-05   |Residual|: 1.258e-03   |deigs|: 2.119e-03  t[s]:    125.22
	FillingsUpdate:  mu: -0.099427410  nElectrons: 3.000000  magneticMoment: [ Abs: 0.82226  Tot: -0.80000 ]
SCF: Cycle: 21   F: -7.050764948672166   dF: -2.204e-05   |Residual|: 9.037e-04   |deigs|: 8.810e-04  t[s]:    130.71
	FillingsUpdate:  mu: -0.100016141  nElectrons: 3.000000  magneticMoment: [ Abs: 0.81254  Tot: -0.80000 ]
SCF: Cycle: 22   F: -7.050767473587923   dF: -2.525e-06   |Residual|: 7.082e-04   |deigs|: 6.138e-04  t[s]:    136.08
	FillingsUpdate:  mu: -0.100400348  nElectrons: 3.000000  magneticMoment: [ Abs: 0.80353  Tot: -0.80000 ]
SCF: Cycle: 23   F: -7.050775197752436   dF: -7.724e-06   |Residual|: 4.483e-04   |deigs|: 6.650e-04  t[s]:    141.42
	FillingsUpdate:  mu: -0.100576948  nElectrons: 3.000000  magneticMoment: [ Abs: 0.80152  Tot: -0.80000 ]
SCF: Cycle: 24   F: -7.050779635748704   dF: -4.438e-06   |Residual|: 3.108e-04   |deigs|: 3.684e-04  t[s]:    146.90
	FillingsUpdate:  mu: -0.100436701  nElectrons: 3.000000  magneticMoment: [ Abs: 0.80202  Tot: -0.80000 ]
SCF: Cycle: 25   F: -7.050781449696656   dF: -1.814e-06   |Residual|: 1.597e-04   |deigs|: 2.660e-04  t[s]:    152.25
	FillingsUpdate:  mu: -0.100264006  nElectrons: 3.000000  magneticMoment: [ Abs: 0.80172  Tot: -0.80000 ]
SCF: Cycle: 26   F: -7.050782113723239   dF: -6.640e-07   |Residual|: 9.990e-05   |deigs|: 1.590e-04  t[s]:    157.66
	FillingsUpdate:  mu: -0.100221918  nElectrons: 3.000000  magneticMoment: [ Abs: 0.80145  Tot: -0.80000 ]
SCF: Cycle: 27   F: -7.050782195776714   dF: -8.205e-08   |Residual|: 7.888e-05   |deigs|: 7.254e-05  t[s]:    163.09
	FillingsUpdate:  mu: -0.100178722  nElectrons: 3.000000  magneticMoment: [ Abs: 0.80082  Tot: -0.80000 ]
SCF: Cycle: 28   F: -7.050782234674722   dF: -3.890e-08   |Residual|: 5.797e-05   |deigs|: 8.155e-05  t[s]:    168.52
	FillingsUpdate:  mu: -0.100182433  nElectrons: 3.000000  magneticMoment: [ Abs: 0.80027  Tot: -0.80000 ]
SCF: Cycle: 29   F: -7.050782259779576   dF: -2.510e-08   |Residual|: 4.296e-05   |deigs|: 5.852e-05  t[s]:    173.92
	FillingsUpdate:  mu: -0.100226460  nElectrons: 3.000000  magneticMoment: [ Abs: 0.80007  Tot: -0.80000 ]
SCF: Cycle: 30   F: -7.050782269868138   dF: -1.009e-08   |Residual|: 3.486e-05   |deigs|: 7.013e-05  t[s]:    179.37
	FillingsUpdate:  mu: -0.100250381  nElectrons: 3.000000  magneticMoment: [ Abs: 0.80001  Tot: -0.80000 ]
SCF: Cycle: 31   F: -7.050782277359597   dF: -7.491e-09   |Residual|: 2.617e-05   |deigs|: 4.964e-05  t[s]:    184.80
	FillingsUpdate:  mu: -0.100269437  nElectrons: 3.000000  magneticMoment: [ Abs: 0.80001  Tot: -0.80000 ]
SCF: Cycle: 32   F: -7.050782308569331   dF: -3.121e-08   |Residual|: 2.049e-05   |deigs|: 4.587e-05  t[s]:    190.32
	FillingsUpdate:  mu: -0.100273684  nElectrons: 3.000000  magneticMoment: [ Abs: 0.80000  Tot: -0.80000 ]
SCF: Cycle: 33   F: -7.050782332293323   dF: -2.372e-08   |Residual|: 1.609e-05   |deigs|: 3.502e-05  t[s]:    195.75
	FillingsUpdate:  mu: -0.100275722  nElectrons: 3.000000  magneticMoment: [ Abs: 0.80000  Tot: -0.80000 ]
SCF: Cycle: 34   F: -7.050782323845306   dF: +8.448e-09   |Residual|: 1.248e-05   |deigs|: 3.255e-05  t[s]:    201.04
	FillingsUpdate:  mu: -0.100276545  nElectrons: 3.000000  magneticMoment: [ Abs: 0.80000  Tot: -0.80000 ]
SCF: Cycle: 35   F: -7.050782337841139   dF: -1.400e-08   |Residual|: 9.623e-06   |deigs|: 2.786e-05  t[s]:    206.40
	FillingsUpdate:  mu: -0.100275541  nElectrons: 3.000000  magneticMoment: [ Abs: 0.80000  Tot: -0.80000 ]
SCF: Cycle: 36   F: -7.050782325717846   dF: +1.212e-08   |Residual|: 7.403e-06   |deigs|: 2.456e-05  t[s]:    211.84
	FillingsUpdate:  mu: -0.100272906  nElectrons: 3.000000  magneticMoment: [ Abs: 0.80000  Tot: -0.80000 ]
SCF: Cycle: 37   F: -7.050782333386601   dF: -7.669e-09   |Residual|: 5.728e-06   |deigs|: 2.172e-05  t[s]:    217.24
	FillingsUpdate:  mu: -0.100271513  nElectrons: 3.000000  magneticMoment: [ Abs: 0.80000  Tot: -0.80000 ]
SCF: Cycle: 38   F: -7.050782330274370   dF: +3.112e-09   |Residual|: 4.144e-06   |deigs|: 1.924e-05  t[s]:    222.64
	FillingsUpdate:  mu: -0.100270463  nElectrons: 3.000000  magneticMoment: [ Abs: 0.80000  Tot: -0.80000 ]
SCF: Cycle: 39   F: -7.050782343599310   dF: -1.332e-08   |Residual|: 2.721e-06   |deigs|: 1.712e-05  t[s]:    228.10
	FillingsUpdate:  mu: -0.100270681  nElectrons: 3.000000  magneticMoment: [ Abs: 0.80000  Tot: -0.80000 ]
SCF: Cycle: 40   F: -7.050782351675899   dF: -8.077e-09   |Residual|: 2.145e-06   |deigs|: 1.467e-05  t[s]:    233.56
	FillingsUpdate:  mu: -0.100272377  nElectrons: 3.000000  magneticMoment: [ Abs: 0.80000  Tot: -0.80000 ]
SCF: Cycle: 41   F: -7.050782347713753   dF: +3.962e-09   |Residual|: 1.920e-06   |deigs|: 1.287e-05  t[s]:    238.96
	FillingsUpdate:  mu: -0.100274083  nElectrons: 3.000000  magneticMoment: [ Abs: 0.80000  Tot: -0.80000 ]
SCF: Cycle: 42   F: -7.050782349773877   dF: -2.060e-09   |Residual|: 1.791e-06   |deigs|: 1.151e-05  t[s]:    244.41
	FillingsUpdate:  mu: -0.100275522  nElectrons: 3.000000  magneticMoment: [ Abs: 0.80000  Tot: -0.80000 ]
SCF: Cycle: 43   F: -7.050782349047352   dF: +7.265e-10   |Residual|: 1.661e-06   |deigs|: 1.066e-05  t[s]:    249.92
	FillingsUpdate:  mu: -0.100276589  nElectrons: 3.000000  magneticMoment: [ Abs: 0.80000  Tot: -0.80000 ]
SCF: Cycle: 44   F: -7.050782350934713   dF: -1.887e-09   |Residual|: 1.456e-06   |deigs|: 9.835e-06  t[s]:    255.34
	FillingsUpdate:  mu: -0.100277252  nElectrons: 3.000000  magneticMoment: [ Abs: 0.80000  Tot: -0.80000 ]
SCF: Cycle: 45   F: -7.050782350716810   dF: +2.179e-10   |Residual|: 1.342e-06   |deigs|: 8.958e-06  t[s]:    260.77
	FillingsUpdate:  mu: -0.100277873  nElectrons: 3.000000  magneticMoment: [ Abs: 0.80000  Tot: -0.80000 ]
SCF: Cycle: 46   F: -7.050782352124090   dF: -1.407e-09   |Residual|: 1.112e-06   |deigs|: 8.462e-06  t[s]:    266.17
	FillingsUpdate:  mu: -0.100278577  nElectrons: 3.000000  magneticMoment: [ Abs: 0.80000  Tot: -0.80000 ]
SCF: Cycle: 47   F: -7.050782352335770   dF: -2.117e-10   |Residual|: 8.534e-07   |deigs|: 7.998e-06  t[s]:    271.56
SCF: Converged (|Delta E|<1.000000e-08 for 2 iters).


# Ionic positions in lattice coordinates:
ion Li   0.000000000000000   0.000000000000000   0.000000000000000 0

# Forces in Lattice coordinates:
force Li   0.000000000000000   0.000000000000000   0.000000000000000 0

# Energy components:
   Eewald =       -1.0026681166851483
       EH =        2.5605797151230836
     Eloc =       -8.2418332313605660
      Enl =       -3.6055325816964436
   Epulay =        0.0000051497655618
      Exc =       -1.5440334218031770
       KE =        4.7827007752882462
-------------------------------------
     Etot =       -7.0507817113684421
       TS =        0.0000006409673283
-------------------------------------
        F =       -7.0507823523357702

IonicMinimize: Iter:   0  F: -7.050782352335770  |grad|_K:  0.000e+00  t[s]:    271.80
IonicMinimize: Converged (|grad|_K<1.000000e-04).

#--- Lowdin population analysis ---
# oxidation-state Li +2.066
# magnetic-moments Li -0.742

End date and time: Sat Feb  5 22:53:30 2022  (Duration: 0-0:04:31.83)
Done!
