
*************** JDFTx 1.6.0 (git hash 42ebbcc2) ***************

Start date and time: Sat Feb  5 22:49:19 2022
Executable jdftx with command-line: -i Alkali.in
Running on hosts (process indices):  d-4-7-2 (0-18)
Divided in process groups (process indices):  0 (0)  1 (1)  2 (2)  3 (3)  4 (4)  5 (5)  6 (6)  7 (7)  8 (8)  9 (9)  10 (10)  11 (11)  12 (12)  13 (13)  14 (14)  15 (15)  16 (16)  17 (17)  18 (18)
Resource initialization completed at t[s]:      0.00
Run totals: 19 processes, 48 threads, 0 GPUs


Input parsed successfully to the following command list (including defaults):

basis kpoint-dependent
coords-type Lattice
core-overlap-check vector
coulomb-interaction Slab 001
davidson-band-ratio 1.1
dump End None
dump-name $INPUT.$VAR
elec-cutoff 20
elec-eigen-algo Davidson
elec-ex-corr gga-PBE
elec-initial-magnetization -0.880000 yes
elec-smearing Fermi 1e-05
electronic-minimize  \
	dirUpdateScheme      FletcherReeves \
	linminMethod         DirUpdateRecommended \
	nIterations          100 \
	history              15 \
	knormThreshold       0 \
	energyDiffThreshold  1e-08 \
	nEnergyDiff          2 \
	alphaTstart          1 \
	alphaTmin            1e-10 \
	updateTestStepSize   yes \
	alphaTreduceFactor   0.1 \
	alphaTincreaseFactor 3 \
	nAlphaAdjustMax      3 \
	wolfeEnergy          0.0001 \
	wolfeGradient        0.9 \
	fdTest               no
electronic-scf  \
	nIterations	10000 \
	energyDiffThreshold	1e-08 \
	residualThreshold	1e-07 \
	mixFraction	0.5 \
	qMetric	0.8 \
	history	10 \
	nEigSteps	2 \
	eigDiffThreshold	1e-08 \
	mixedVariable	Density \
	qKerker	0.8 \
	qKappa	-1 \
	verbose	no \
	mixFractionMag	1.5
exchange-regularization WignerSeitzTruncated
fluid None
fluid-ex-corr (null) lda-PZ
fluid-gummel-loop 10 1.000000e-05
fluid-minimize  \
	dirUpdateScheme      PolakRibiere \
	linminMethod         DirUpdateRecommended \
	nIterations          100 \
	history              15 \
	knormThreshold       0 \
	energyDiffThreshold  0 \
	nEnergyDiff          2 \
	alphaTstart          1 \
	alphaTmin            1e-10 \
	updateTestStepSize   yes \
	alphaTreduceFactor   0.1 \
	alphaTincreaseFactor 3 \
	nAlphaAdjustMax      3 \
	wolfeEnergy          0.0001 \
	wolfeGradient        0.9 \
	fdTest               no
fluid-solvent H2O 55.338 ScalarEOS \
	epsBulk 78.4 \
	pMol 0.92466 \
	epsInf 1.77 \
	Pvap 1.06736e-10 \
	sigmaBulk 4.62e-05 \
	Rvdw 2.61727 \
	Res 1.42 \
	tauNuc 343133 \
	poleEl 15 7 1
forces-output-coords Positions
ion Li   0.000000000000000   0.000000000000000   0.000000000000000 0
ion-species SG15/$ID_ONCV_PBE.upf
ion-width 0
ionic-minimize  \
	dirUpdateScheme      L-BFGS \
	linminMethod         DirUpdateRecommended \
	nIterations          0 \
	history              15 \
	knormThreshold       0.0001 \
	energyDiffThreshold  1e-06 \
	nEnergyDiff          2 \
	alphaTstart          1 \
	alphaTmin            1e-10 \
	updateTestStepSize   yes \
	alphaTreduceFactor   0.1 \
	alphaTincreaseFactor 3 \
	nAlphaAdjustMax      3 \
	wolfeEnergy          0.0001 \
	wolfeGradient        0.9 \
	fdTest               no
kpoint   0.000000000000   0.000000000000   0.000000000000  1.00000000000000
kpoint-folding 12 12 1 
latt-move-scale 1 1 1
latt-scale 4 4 1 
lattice  \
	   4.727486978767153   -2.363743489383575    0.000000000000000  \
	  -0.000000000000000    4.094123819672498    0.000000000000000  \
	   0.000000000000000    0.000000000000000   40.000000000000000 
lattice-minimize  \
	dirUpdateScheme      L-BFGS \
	linminMethod         DirUpdateRecommended \
	nIterations          0 \
	history              15 \
	knormThreshold       0 \
	energyDiffThreshold  1e-06 \
	nEnergyDiff          2 \
	alphaTstart          1 \
	alphaTmin            1e-10 \
	updateTestStepSize   yes \
	alphaTreduceFactor   0.1 \
	alphaTincreaseFactor 3 \
	nAlphaAdjustMax      3 \
	wolfeEnergy          0.0001 \
	wolfeGradient        0.9 \
	fdTest               no
lcao-params -1 1e-06 1e-05
pcm-variant GLSSA13
spintype z-spin
subspace-rotation-factor 1 yes
symmetries automatic
symmetry-threshold 0.0001



---------- Setting up symmetries ----------

Found 24 point-group symmetries of the bravais lattice
Found 24 space-group symmetries with basis
Applied RMS atom displacement 0 bohrs to make symmetries exact.

---------- Initializing the Grid ----------
R = 
[      18.9099     -9.45497            0  ]
[            0      16.3765            0  ]
[            0            0           40  ]
unit cell volume = 12387.1
G =
[   0.332269   0.191835         -0  ]
[          0   0.383671         -0  ]
[         -0         -0    0.15708  ]
Minimum fftbox size, Smin = [  80  80  164  ]
Chosen fftbox size, S = [  80  80  168  ]

---------- Exchange Correlation functional ----------
Initalized PBE GGA exchange.
Initalized PBE GGA correlation.

---------- Setting up pseudopotentials ----------
Width of ionic core gaussian charges (only for fluid interactions / plotting) set to 0

Reading pseudopotential file '/home/gridsan/aligho/DFT/build-Nov24/pseudopotentials/SG15/Li_ONCV_PBE.upf':
  'Li' pseudopotential, 'PBE' functional
  Generated using ONCVPSP code by D. R. Hamann
  Author: Martin Schlipf and Francois Gygi  Date: 150915.
  3 valence electrons, 2 orbitals, 4 projectors, 1328 radial grid points, with lMax = 1
  Transforming local potential to a uniform radial grid of dG=0.02 with 1489 points.
  Transforming nonlocal projectors to a uniform radial grid of dG=0.02 with 432 points.
    1S    l: 0   occupation:  2.0   eigenvalue: -1.905623
    2S    l: 0   occupation:  1.0   eigenvalue: -0.105624
  Transforming atomic orbitals to a uniform radial grid of dG=0.02 with 432 points.
  WARNING: large normalization error in atomic orbital 1s (integral: 0.000000).
  Core radius for overlap checks: 1.63 bohrs.
  Reading pulay file /home/gridsan/aligho/DFT/build-Nov24/pseudopotentials/SG15/Li_ONCV_PBE.pulay ... using dE_dnG = -1.230239e-02 computed for Ecut = 20.

Initialized 1 species with 1 total atoms.

Folded 1 k-points by 12x12x1 to 144 k-points.

---------- Setting up k-points, bands, fillings ----------
Reduced to 19 k-points under symmetry. 
Computing the number of bands and number of electrons
Calculating initial fillings.
nElectrons:   3.000000   nBands: 3   nStates: 38

----- Setting up reduced wavefunction bases (one per k-point) -----
average nbasis = 52924.021 , ideal nbasis = 52918.836

---------- Setting up coulomb interaction ----------
Initialized slab truncation along lattice direction 001

---------- Setting up 2D ewald sum ----------
Optimum gaussian width for ewald sums = 10.498040 bohr.
Real space sums over 289 unit cells with max indices [  8  8  0  ]
Reciprocal space sums over 81 terms with max indices [  4  4  0  ]

---------- Allocating electronic variables ----------
Initializing wave functions:  linear combination of atomic orbitals
Note: number of bands (3) exceeds available atomic orbitals (2)
Li pseudo-atom occupations:   s ( 2 1 )
	FillingsUpdate:  mu: +0.365581155  nElectrons: 3.000000  magneticMoment: [ Abs: 0.88000  Tot: -0.88000 ]
LCAOMinimize: Iter:   0  F: -1.3072065978470804  |grad|_K:  4.001e-05  alpha:  1.000e+00
	FillingsUpdate:  mu: +0.365580786  nElectrons: 3.000000  magneticMoment: [ Abs: 0.88000  Tot: -0.88000 ]
LCAOMinimize: Iter:   1  F: -1.3072068877861025  |grad|_K:  1.665e-07  alpha:  1.059e+00  linmin: -3.699e-03  cgtest:  1.700e-02  t[s]:     12.60
LCAOMinimize: Encountered beta<0, resetting CG.
	FillingsUpdate:  mu: +0.365580786  nElectrons: 3.000000  magneticMoment: [ Abs: 0.88000  Tot: -0.88000 ]
LCAOMinimize: Iter:   2  F: -1.3072068877925971  |grad|_K:  3.879e-08  alpha:  1.277e+00  linmin:  1.485e-02  cgtest: -9.702e-01  t[s]:     15.88
LCAOMinimize: Converged (|Delta F|<1.000000e-06 for 2 iters).


---- Citations for features of the code used in this run ----

   Software package:
      R. Sundararaman, K. Letchworth-Weaver, K.A. Schwarz, D. Gunceler, Y. Ozhabes and T.A. Arias, 'JDFTx: software for joint density-functional theory', SoftwareX 6, 278 (2017)

   gga-PBE exchange-correlation functional:
      J.P. Perdew, K. Burke and M. Ernzerhof, Phys. Rev. Lett. 77, 3865 (1996)

   Pseudopotentials:
      M Schlipf and F Gygi, Comput. Phys. Commun. 196, 36 (2015)

   Truncated Coulomb potentials:
      R. Sundararaman and T.A. Arias, Phys. Rev. B 87, 165122 (2013)

This list may not be complete. Please suggest additional citations or
report any other bugs at https://github.com/shankar1729/jdftx/issues

Initialization completed successfully at t[s]:     16.02


-------- Electronic minimization -----------
Will mix electronic density at each iteration.
	FillingsUpdate:  mu: +0.365580786  nElectrons: 3.000000  magneticMoment: [ Abs: 0.88000  Tot: -0.88000 ]
	FillingsUpdate:  mu: -0.614668890  nElectrons: 3.000000  magneticMoment: [ Abs: 0.88000  Tot: -0.88000 ]
SCF: Cycle:  0   F: -6.887059822148348   dF: -5.580e+00   |Residual|: 1.229e+00   |deigs|: 4.155e+00  t[s]:     21.59
	FillingsUpdate:  mu: -0.487339994  nElectrons: 3.000000  magneticMoment: [ Abs: 1.52241  Tot: -0.88000 ]
SCF: Cycle:  1   F: -6.914543740215007   dF: -2.748e-02   |Residual|: 7.657e-01   |deigs|: 2.760e-01  t[s]:     26.04
	FillingsUpdate:  mu: -0.291380410  nElectrons: 3.000000  magneticMoment: [ Abs: 1.96882  Tot: -0.88000 ]
SCF: Cycle:  2   F: -7.038987629558756   dF: -1.244e-01   |Residual|: 3.241e-01   |deigs|: 7.040e-01  t[s]:     30.72
	FillingsUpdate:  mu: -0.296728330  nElectrons: 3.000000  magneticMoment: [ Abs: 1.70710  Tot: -0.88000 ]
SCF: Cycle:  3   F: -7.039295608703609   dF: -3.080e-04   |Residual|: 1.534e-01   |deigs|: 9.123e-02  t[s]:     35.44
	FillingsUpdate:  mu: -0.244021801  nElectrons: 3.000000  magneticMoment: [ Abs: 1.48161  Tot: -0.88000 ]
SCF: Cycle:  4   F: -7.044858685038092   dF: -5.563e-03   |Residual|: 3.726e-02   |deigs|: 5.144e-02  t[s]:     40.28
	FillingsUpdate:  mu: -0.224936672  nElectrons: 3.000000  magneticMoment: [ Abs: 1.44215  Tot: -0.88000 ]
SCF: Cycle:  5   F: -7.046458710429584   dF: -1.600e-03   |Residual|: 5.706e-02   |deigs|: 1.893e-02  t[s]:     45.24
	FillingsUpdate:  mu: -0.197563453  nElectrons: 3.000000  magneticMoment: [ Abs: 1.24053  Tot: -0.88000 ]
SCF: Cycle:  6   F: -7.048332193535470   dF: -1.873e-03   |Residual|: 3.112e-02   |deigs|: 4.342e-02  t[s]:     50.34
	FillingsUpdate:  mu: -0.183775987  nElectrons: 3.000000  magneticMoment: [ Abs: 1.13976  Tot: -0.88000 ]
SCF: Cycle:  7   F: -7.049999366126867   dF: -1.667e-03   |Residual|: 2.784e-02   |deigs|: 3.687e-02  t[s]:     55.53
	FillingsUpdate:  mu: -0.179224655  nElectrons: 3.000000  magneticMoment: [ Abs: 1.06766  Tot: -0.88000 ]
SCF: Cycle:  8   F: -7.050794887128023   dF: -7.955e-04   |Residual|: 3.004e-02   |deigs|: 6.054e-03  t[s]:     60.85
	FillingsUpdate:  mu: -0.177421161  nElectrons: 3.000000  magneticMoment: [ Abs: 1.00721  Tot: -0.88000 ]
SCF: Cycle:  9   F: -7.051380043093929   dF: -5.852e-04   |Residual|: 1.221e-02   |deigs|: 1.089e-02  t[s]:     66.26
	FillingsUpdate:  mu: -0.167576981  nElectrons: 3.000000  magneticMoment: [ Abs: 0.93632  Tot: -0.88000 ]
SCF: Cycle: 10   F: -7.051622957963199   dF: -2.429e-04   |Residual|: 3.522e-02   |deigs|: 1.196e-02  t[s]:     71.72
	FillingsUpdate:  mu: -0.155992376  nElectrons: 3.000000  magneticMoment: [ Abs: 0.95230  Tot: -0.88000 ]
SCF: Cycle: 11   F: -7.051696306931905   dF: -7.335e-05   |Residual|: 1.012e-02   |deigs|: 1.817e-02  t[s]:     77.26
	FillingsUpdate:  mu: -0.142724671  nElectrons: 3.000000  magneticMoment: [ Abs: 1.01289  Tot: -0.88000 ]
SCF: Cycle: 12   F: -7.051857156570498   dF: -1.608e-04   |Residual|: 9.787e-03   |deigs|: 1.201e-02  t[s]:     82.79
	FillingsUpdate:  mu: -0.125606664  nElectrons: 3.000000  magneticMoment: [ Abs: 1.05412  Tot: -0.88000 ]
SCF: Cycle: 13   F: -7.051952605950103   dF: -9.545e-05   |Residual|: 6.652e-03   |deigs|: 1.938e-02  t[s]:     88.36
	FillingsUpdate:  mu: -0.116600627  nElectrons: 3.000000  magneticMoment: [ Abs: 1.06064  Tot: -0.88000 ]
SCF: Cycle: 14   F: -7.051920339863949   dF: +3.227e-05   |Residual|: 5.733e-03   |deigs|: 9.264e-03  t[s]:     93.83
	FillingsUpdate:  mu: -0.112615136  nElectrons: 3.000000  magneticMoment: [ Abs: 1.04474  Tot: -0.88000 ]
SCF: Cycle: 15   F: -7.051964981982386   dF: -4.464e-05   |Residual|: 4.645e-03   |deigs|: 4.143e-03  t[s]:     99.41
	FillingsUpdate:  mu: -0.109033622  nElectrons: 3.000000  magneticMoment: [ Abs: 1.00607  Tot: -0.88000 ]
SCF: Cycle: 16   F: -7.052011289968971   dF: -4.631e-05   |Residual|: 3.986e-03   |deigs|: 4.126e-03  t[s]:    104.91
	FillingsUpdate:  mu: -0.105225768  nElectrons: 3.000000  magneticMoment: [ Abs: 0.96802  Tot: -0.88000 ]
SCF: Cycle: 17   F: -7.052011695474549   dF: -4.055e-07   |Residual|: 3.373e-03   |deigs|: 4.398e-03  t[s]:    110.39
	FillingsUpdate:  mu: -0.099783249  nElectrons: 3.000000  magneticMoment: [ Abs: 0.94352  Tot: -0.88000 ]
SCF: Cycle: 18   F: -7.052078829483809   dF: -6.713e-05   |Residual|: 2.489e-03   |deigs|: 7.720e-03  t[s]:    115.97
	FillingsUpdate:  mu: -0.099276963  nElectrons: 3.000000  magneticMoment: [ Abs: 0.92862  Tot: -0.88000 ]
SCF: Cycle: 19   F: -7.052101230336539   dF: -2.240e-05   |Residual|: 1.900e-03   |deigs|: 1.270e-03  t[s]:    121.41
	FillingsUpdate:  mu: -0.097701215  nElectrons: 3.000000  magneticMoment: [ Abs: 0.92247  Tot: -0.88000 ]
SCF: Cycle: 20   F: -7.052126233879688   dF: -2.500e-05   |Residual|: 1.377e-03   |deigs|: 1.907e-03  t[s]:    126.93
	FillingsUpdate:  mu: -0.097492164  nElectrons: 3.000000  magneticMoment: [ Abs: 0.90090  Tot: -0.88000 ]
SCF: Cycle: 21   F: -7.052146975946859   dF: -2.074e-05   |Residual|: 8.964e-04   |deigs|: 6.553e-04  t[s]:    132.41
	FillingsUpdate:  mu: -0.098131029  nElectrons: 3.000000  magneticMoment: [ Abs: 0.89143  Tot: -0.88000 ]
SCF: Cycle: 22   F: -7.052154048616061   dF: -7.073e-06   |Residual|: 6.731e-04   |deigs|: 7.260e-04  t[s]:    137.93
	FillingsUpdate:  mu: -0.098501423  nElectrons: 3.000000  magneticMoment: [ Abs: 0.88287  Tot: -0.88000 ]
SCF: Cycle: 23   F: -7.052157417632444   dF: -3.369e-06   |Residual|: 4.112e-04   |deigs|: 5.919e-04  t[s]:    143.36
	FillingsUpdate:  mu: -0.098678769  nElectrons: 3.000000  magneticMoment: [ Abs: 0.88165  Tot: -0.88000 ]
SCF: Cycle: 24   F: -7.052160678086658   dF: -3.260e-06   |Residual|: 2.724e-04   |deigs|: 3.797e-04  t[s]:    148.85
	FillingsUpdate:  mu: -0.098529877  nElectrons: 3.000000  magneticMoment: [ Abs: 0.88200  Tot: -0.88000 ]
SCF: Cycle: 25   F: -7.052161674703512   dF: -9.966e-07   |Residual|: 1.644e-04   |deigs|: 2.443e-04  t[s]:    154.35
	FillingsUpdate:  mu: -0.098456535  nElectrons: 3.000000  magneticMoment: [ Abs: 0.88207  Tot: -0.88000 ]
SCF: Cycle: 26   F: -7.052162462281728   dF: -7.876e-07   |Residual|: 1.135e-04   |deigs|: 1.263e-04  t[s]:    159.92
	FillingsUpdate:  mu: -0.098480848  nElectrons: 3.000000  magneticMoment: [ Abs: 0.88145  Tot: -0.88000 ]
SCF: Cycle: 27   F: -7.052162690028054   dF: -2.277e-07   |Residual|: 7.511e-05   |deigs|: 1.185e-04  t[s]:    165.46
	FillingsUpdate:  mu: -0.098515739  nElectrons: 3.000000  magneticMoment: [ Abs: 0.88080  Tot: -0.88000 ]
SCF: Cycle: 28   F: -7.052162742051964   dF: -5.202e-08   |Residual|: 5.630e-05   |deigs|: 7.902e-05  t[s]:    170.95
	FillingsUpdate:  mu: -0.098531646  nElectrons: 3.000000  magneticMoment: [ Abs: 0.88031  Tot: -0.88000 ]
SCF: Cycle: 29   F: -7.052162744430297   dF: -2.378e-09   |Residual|: 4.691e-05   |deigs|: 5.817e-05  t[s]:    176.47
	FillingsUpdate:  mu: -0.098559969  nElectrons: 3.000000  magneticMoment: [ Abs: 0.88005  Tot: -0.88000 ]
SCF: Cycle: 30   F: -7.052162789261372   dF: -4.483e-08   |Residual|: 3.393e-05   |deigs|: 6.903e-05  t[s]:    181.98
	FillingsUpdate:  mu: -0.098567774  nElectrons: 3.000000  magneticMoment: [ Abs: 0.88001  Tot: -0.88000 ]
SCF: Cycle: 31   F: -7.052162837490499   dF: -4.823e-08   |Residual|: 2.332e-05   |deigs|: 4.832e-05  t[s]:    187.48
	FillingsUpdate:  mu: -0.098577537  nElectrons: 3.000000  magneticMoment: [ Abs: 0.88001  Tot: -0.88000 ]
SCF: Cycle: 32   F: -7.052162856893353   dF: -1.940e-08   |Residual|: 1.660e-05   |deigs|: 4.271e-05  t[s]:    192.92
	FillingsUpdate:  mu: -0.098585067  nElectrons: 3.000000  magneticMoment: [ Abs: 0.88001  Tot: -0.88000 ]
SCF: Cycle: 33   F: -7.052162865834458   dF: -8.941e-09   |Residual|: 1.072e-05   |deigs|: 3.486e-05  t[s]:    198.42
	FillingsUpdate:  mu: -0.098582131  nElectrons: 3.000000  magneticMoment: [ Abs: 0.88001  Tot: -0.88000 ]
SCF: Cycle: 34   F: -7.052162869345752   dF: -3.511e-09   |Residual|: 9.054e-06   |deigs|: 3.294e-05  t[s]:    203.84
SCF: Converged (|Delta E|<1.000000e-08 for 2 iters).


# Ionic positions in lattice coordinates:
ion Li   0.000000000000000   0.000000000000000   0.000000000000000 0

# Forces in Lattice coordinates:
force Li   0.000000000000000  -0.000000000000000   0.000000000000000 0

# Energy components:
   Eewald =       -1.0026681166851483
       EH =        2.5635943263226788
     Eloc =       -8.2456039019818288
      Enl =       -3.6060666308046603
   Epulay =        0.0000051497655618
      Exc =       -1.5461987548631555
       KE =        4.7847759326443065
-------------------------------------
     Etot =       -7.0521619956022459
       TS =        0.0000008737435063
-------------------------------------
        F =       -7.0521628693457519

IonicMinimize: Iter:   0  F: -7.052162869345752  |grad|_K:  0.000e+00  t[s]:    204.08
IonicMinimize: Converged (|grad|_K<1.000000e-04).

#--- Lowdin population analysis ---
# oxidation-state Li +2.063
# magnetic-moments Li -0.816

End date and time: Sat Feb  5 22:52:43 2022  (Duration: 0-0:03:24.12)
Done!
