
*************** JDFTx 1.6.0 (git hash 42ebbcc2) ***************

Start date and time: Sat Feb  5 23:10:27 2022
Executable jdftx with command-line: -i Alkali.in
Running on hosts (process indices):  d-4-8-2 (0-18)
Divided in process groups (process indices):  0 (0)  1 (1)  2 (2)  3 (3)  4 (4)  5 (5)  6 (6)  7 (7)  8 (8)  9 (9)  10 (10)  11 (11)  12 (12)  13 (13)  14 (14)  15 (15)  16 (16)  17 (17)  18 (18)
Resource initialization completed at t[s]:      0.00
Run totals: 19 processes, 48 threads, 0 GPUs


Input parsed successfully to the following command list (including defaults):

basis kpoint-dependent
coords-type Lattice
core-overlap-check vector
coulomb-interaction Slab 001
davidson-band-ratio 1.1
dump End None
dump-name $INPUT.$VAR
elec-cutoff 20
elec-eigen-algo Davidson
elec-ex-corr gga-PBE
elec-initial-magnetization 0.740000 yes
elec-smearing Fermi 1e-05
electronic-minimize  \
	dirUpdateScheme      FletcherReeves \
	linminMethod         DirUpdateRecommended \
	nIterations          100 \
	history              15 \
	knormThreshold       0 \
	energyDiffThreshold  1e-08 \
	nEnergyDiff          2 \
	alphaTstart          1 \
	alphaTmin            1e-10 \
	updateTestStepSize   yes \
	alphaTreduceFactor   0.1 \
	alphaTincreaseFactor 3 \
	nAlphaAdjustMax      3 \
	wolfeEnergy          0.0001 \
	wolfeGradient        0.9 \
	fdTest               no
electronic-scf  \
	nIterations	10000 \
	energyDiffThreshold	1e-08 \
	residualThreshold	1e-07 \
	mixFraction	0.5 \
	qMetric	0.8 \
	history	10 \
	nEigSteps	2 \
	eigDiffThreshold	1e-08 \
	mixedVariable	Density \
	qKerker	0.8 \
	qKappa	-1 \
	verbose	no \
	mixFractionMag	1.5
exchange-regularization WignerSeitzTruncated
fluid None
fluid-ex-corr (null) lda-PZ
fluid-gummel-loop 10 1.000000e-05
fluid-minimize  \
	dirUpdateScheme      PolakRibiere \
	linminMethod         DirUpdateRecommended \
	nIterations          100 \
	history              15 \
	knormThreshold       0 \
	energyDiffThreshold  0 \
	nEnergyDiff          2 \
	alphaTstart          1 \
	alphaTmin            1e-10 \
	updateTestStepSize   yes \
	alphaTreduceFactor   0.1 \
	alphaTincreaseFactor 3 \
	nAlphaAdjustMax      3 \
	wolfeEnergy          0.0001 \
	wolfeGradient        0.9 \
	fdTest               no
fluid-solvent H2O 55.338 ScalarEOS \
	epsBulk 78.4 \
	pMol 0.92466 \
	epsInf 1.77 \
	Pvap 1.06736e-10 \
	sigmaBulk 4.62e-05 \
	Rvdw 2.61727 \
	Res 1.42 \
	tauNuc 343133 \
	poleEl 15 7 1
forces-output-coords Positions
ion Li   0.000000000000000   0.000000000000000   0.000000000000000 0
ion-species SG15/$ID_ONCV_PBE.upf
ion-width 0
ionic-minimize  \
	dirUpdateScheme      L-BFGS \
	linminMethod         DirUpdateRecommended \
	nIterations          0 \
	history              15 \
	knormThreshold       0.0001 \
	energyDiffThreshold  1e-06 \
	nEnergyDiff          2 \
	alphaTstart          1 \
	alphaTmin            1e-10 \
	updateTestStepSize   yes \
	alphaTreduceFactor   0.1 \
	alphaTincreaseFactor 3 \
	nAlphaAdjustMax      3 \
	wolfeEnergy          0.0001 \
	wolfeGradient        0.9 \
	fdTest               no
kpoint   0.000000000000   0.000000000000   0.000000000000  1.00000000000000
kpoint-folding 12 12 1 
latt-move-scale 1 1 1
latt-scale 4 4 1 
lattice  \
	   4.727486978767153   -2.363743489383575    0.000000000000000  \
	  -0.000000000000000    4.094123819672498    0.000000000000000  \
	   0.000000000000000    0.000000000000000   40.000000000000000 
lattice-minimize  \
	dirUpdateScheme      L-BFGS \
	linminMethod         DirUpdateRecommended \
	nIterations          0 \
	history              15 \
	knormThreshold       0 \
	energyDiffThreshold  1e-06 \
	nEnergyDiff          2 \
	alphaTstart          1 \
	alphaTmin            1e-10 \
	updateTestStepSize   yes \
	alphaTreduceFactor   0.1 \
	alphaTincreaseFactor 3 \
	nAlphaAdjustMax      3 \
	wolfeEnergy          0.0001 \
	wolfeGradient        0.9 \
	fdTest               no
lcao-params -1 1e-06 1e-05
pcm-variant GLSSA13
spintype z-spin
subspace-rotation-factor 1 yes
symmetries automatic
symmetry-threshold 0.0001



---------- Setting up symmetries ----------

Found 24 point-group symmetries of the bravais lattice
Found 24 space-group symmetries with basis
Applied RMS atom displacement 0 bohrs to make symmetries exact.

---------- Initializing the Grid ----------
R = 
[      18.9099     -9.45497            0  ]
[            0      16.3765            0  ]
[            0            0           40  ]
unit cell volume = 12387.1
G =
[   0.332269   0.191835         -0  ]
[          0   0.383671         -0  ]
[         -0         -0    0.15708  ]
Minimum fftbox size, Smin = [  80  80  164  ]
Chosen fftbox size, S = [  80  80  168  ]

---------- Exchange Correlation functional ----------
Initalized PBE GGA exchange.
Initalized PBE GGA correlation.

---------- Setting up pseudopotentials ----------
Width of ionic core gaussian charges (only for fluid interactions / plotting) set to 0

Reading pseudopotential file '/home/gridsan/aligho/DFT/build-Nov24/pseudopotentials/SG15/Li_ONCV_PBE.upf':
  'Li' pseudopotential, 'PBE' functional
  Generated using ONCVPSP code by D. R. Hamann
  Author: Martin Schlipf and Francois Gygi  Date: 150915.
  3 valence electrons, 2 orbitals, 4 projectors, 1328 radial grid points, with lMax = 1
  Transforming local potential to a uniform radial grid of dG=0.02 with 1489 points.
  Transforming nonlocal projectors to a uniform radial grid of dG=0.02 with 432 points.
    1S    l: 0   occupation:  2.0   eigenvalue: -1.905623
    2S    l: 0   occupation:  1.0   eigenvalue: -0.105624
  Transforming atomic orbitals to a uniform radial grid of dG=0.02 with 432 points.
  WARNING: large normalization error in atomic orbital 1s (integral: 0.000000).
  Core radius for overlap checks: 1.63 bohrs.
  Reading pulay file /home/gridsan/aligho/DFT/build-Nov24/pseudopotentials/SG15/Li_ONCV_PBE.pulay ... using dE_dnG = -1.230239e-02 computed for Ecut = 20.

Initialized 1 species with 1 total atoms.

Folded 1 k-points by 12x12x1 to 144 k-points.

---------- Setting up k-points, bands, fillings ----------
Reduced to 19 k-points under symmetry. 
Computing the number of bands and number of electrons
Calculating initial fillings.
nElectrons:   3.000000   nBands: 3   nStates: 38

----- Setting up reduced wavefunction bases (one per k-point) -----
average nbasis = 52924.021 , ideal nbasis = 52918.836

---------- Setting up coulomb interaction ----------
Initialized slab truncation along lattice direction 001

---------- Setting up 2D ewald sum ----------
Optimum gaussian width for ewald sums = 10.498040 bohr.
Real space sums over 289 unit cells with max indices [  8  8  0  ]
Reciprocal space sums over 81 terms with max indices [  4  4  0  ]

---------- Allocating electronic variables ----------
Initializing wave functions:  linear combination of atomic orbitals
Note: number of bands (3) exceeds available atomic orbitals (2)
Li pseudo-atom occupations:   s ( 2 1 )
	FillingsUpdate:  mu: +0.359281775  nElectrons: 3.000000  magneticMoment: [ Abs: 0.74000  Tot: +0.74000 ]
LCAOMinimize: Iter:   0  F: -1.3069575233191073  |grad|_K:  3.985e-05  alpha:  1.000e+00
	FillingsUpdate:  mu: +0.359281265  nElectrons: 3.000000  magneticMoment: [ Abs: 0.74000  Tot: +0.74000 ]
LCAOMinimize: Iter:   1  F: -1.3069578108477562  |grad|_K:  1.696e-07  alpha:  1.059e+00  linmin: -5.660e-03  cgtest:  1.837e-02  t[s]:     12.46
LCAOMinimize: Encountered beta<0, resetting CG.
	FillingsUpdate:  mu: +0.359281265  nElectrons: 3.000000  magneticMoment: [ Abs: 0.74000  Tot: +0.74000 ]
LCAOMinimize: Iter:   2  F: -1.3069578108492210  |grad|_K:  8.398e-08  alpha:  1.576e+00  linmin:  2.451e-02  cgtest: -9.904e-01  t[s]:     15.71
LCAOMinimize: Converged (|Delta F|<1.000000e-06 for 2 iters).


---- Citations for features of the code used in this run ----

   Software package:
      R. Sundararaman, K. Letchworth-Weaver, K.A. Schwarz, D. Gunceler, Y. Ozhabes and T.A. Arias, 'JDFTx: software for joint density-functional theory', SoftwareX 6, 278 (2017)

   gga-PBE exchange-correlation functional:
      J.P. Perdew, K. Burke and M. Ernzerhof, Phys. Rev. Lett. 77, 3865 (1996)

   Pseudopotentials:
      M Schlipf and F Gygi, Comput. Phys. Commun. 196, 36 (2015)

   Truncated Coulomb potentials:
      R. Sundararaman and T.A. Arias, Phys. Rev. B 87, 165122 (2013)

This list may not be complete. Please suggest additional citations or
report any other bugs at https://github.com/shankar1729/jdftx/issues

Initialization completed successfully at t[s]:     15.85


-------- Electronic minimization -----------
Will mix electronic density at each iteration.
	FillingsUpdate:  mu: +0.359281265  nElectrons: 3.000000  magneticMoment: [ Abs: 0.74000  Tot: +0.74000 ]
	FillingsUpdate:  mu: -0.610597567  nElectrons: 3.000000  magneticMoment: [ Abs: 0.74000  Tot: +0.74000 ]
SCF: Cycle:  0   F: -6.882650642216289   dF: -5.576e+00   |Residual|: 1.230e+00   |deigs|: 4.155e+00  t[s]:     21.45
	FillingsUpdate:  mu: -0.484368188  nElectrons: 3.000000  magneticMoment: [ Abs: 1.26835  Tot: +0.74000 ]
SCF: Cycle:  1   F: -6.915887575210533   dF: -3.324e-02   |Residual|: 7.636e-01   |deigs|: 2.763e-01  t[s]:     25.91
	FillingsUpdate:  mu: -0.284001534  nElectrons: 3.000000  magneticMoment: [ Abs: 1.64096  Tot: +0.74000 ]
SCF: Cycle:  2   F: -7.037808562174170   dF: -1.219e-01   |Residual|: 3.211e-01   |deigs|: 7.023e-01  t[s]:     30.56
	FillingsUpdate:  mu: -0.290193808  nElectrons: 3.000000  magneticMoment: [ Abs: 1.44753  Tot: +0.74000 ]
SCF: Cycle:  3   F: -7.037994811695658   dF: -1.862e-04   |Residual|: 1.645e-01   |deigs|: 8.395e-02  t[s]:     35.33
	FillingsUpdate:  mu: -0.237475695  nElectrons: 3.000000  magneticMoment: [ Abs: 1.25391  Tot: +0.74000 ]
SCF: Cycle:  4   F: -7.042599266393730   dF: -4.604e-03   |Residual|: 4.077e-02   |deigs|: 4.801e-02  t[s]:     40.13
	FillingsUpdate:  mu: -0.221248607  nElectrons: 3.000000  magneticMoment: [ Abs: 1.23016  Tot: +0.74000 ]
SCF: Cycle:  5   F: -7.043942581254024   dF: -1.343e-03   |Residual|: 6.884e-02   |deigs|: 1.610e-02  t[s]:     45.11
	FillingsUpdate:  mu: -0.200575156  nElectrons: 3.000000  magneticMoment: [ Abs: 1.05644  Tot: +0.74000 ]
SCF: Cycle:  6   F: -7.045640617063870   dF: -1.698e-03   |Residual|: 2.760e-02   |deigs|: 4.453e-02  t[s]:     50.21
	FillingsUpdate:  mu: -0.183722186  nElectrons: 3.000000  magneticMoment: [ Abs: 0.96389  Tot: +0.74000 ]
SCF: Cycle:  7   F: -7.047628931687749   dF: -1.988e-03   |Residual|: 3.731e-02   |deigs|: 4.086e-02  t[s]:     55.39
	FillingsUpdate:  mu: -0.181954946  nElectrons: 3.000000  magneticMoment: [ Abs: 0.90035  Tot: +0.74000 ]
SCF: Cycle:  8   F: -7.048288816702682   dF: -6.599e-04   |Residual|: 3.410e-02   |deigs|: 2.649e-03  t[s]:     60.69
	FillingsUpdate:  mu: -0.179417090  nElectrons: 3.000000  magneticMoment: [ Abs: 0.84738  Tot: +0.74000 ]
SCF: Cycle:  9   F: -7.048970844420792   dF: -6.820e-04   |Residual|: 1.419e-02   |deigs|: 1.608e-02  t[s]:     66.03
	FillingsUpdate:  mu: -0.168263739  nElectrons: 3.000000  magneticMoment: [ Abs: 0.77886  Tot: +0.74000 ]
SCF: Cycle: 10   F: -7.049295019453143   dF: -3.242e-04   |Residual|: 3.560e-02   |deigs|: 9.072e-03  t[s]:     71.54
	FillingsUpdate:  mu: -0.158064189  nElectrons: 3.000000  magneticMoment: [ Abs: 0.80941  Tot: +0.74000 ]
SCF: Cycle: 11   F: -7.049311373425569   dF: -1.635e-05   |Residual|: 9.618e-03   |deigs|: 1.723e-02  t[s]:     77.12
	FillingsUpdate:  mu: -0.147276998  nElectrons: 3.000000  magneticMoment: [ Abs: 0.85568  Tot: +0.74000 ]
SCF: Cycle: 12   F: -7.049501504395177   dF: -1.901e-04   |Residual|: 1.100e-02   |deigs|: 8.693e-03  t[s]:     82.71
	FillingsUpdate:  mu: -0.128345215  nElectrons: 3.000000  magneticMoment: [ Abs: 0.90668  Tot: +0.74000 ]
SCF: Cycle: 13   F: -7.049681384938912   dF: -1.799e-04   |Residual|: 6.364e-03   |deigs|: 2.299e-02  t[s]:     88.20
	FillingsUpdate:  mu: -0.118396044  nElectrons: 3.000000  magneticMoment: [ Abs: 0.90596  Tot: +0.74000 ]
SCF: Cycle: 14   F: -7.049588162142253   dF: +9.322e-05   |Residual|: 5.621e-03   |deigs|: 1.030e-02  t[s]:     93.68
	FillingsUpdate:  mu: -0.113663419  nElectrons: 3.000000  magneticMoment: [ Abs: 0.89123  Tot: +0.74000 ]
SCF: Cycle: 15   F: -7.049662382170183   dF: -7.422e-05   |Residual|: 4.413e-03   |deigs|: 5.329e-03  t[s]:     99.17
	FillingsUpdate:  mu: -0.109929088  nElectrons: 3.000000  magneticMoment: [ Abs: 0.86032  Tot: +0.74000 ]
SCF: Cycle: 16   F: -7.049710321902243   dF: -4.794e-05   |Residual|: 3.466e-03   |deigs|: 4.174e-03  t[s]:    104.69
	FillingsUpdate:  mu: -0.106648575  nElectrons: 3.000000  magneticMoment: [ Abs: 0.82751  Tot: +0.74000 ]
SCF: Cycle: 17   F: -7.049703148902951   dF: +7.173e-06   |Residual|: 3.059e-03   |deigs|: 3.491e-03  t[s]:    110.22
	FillingsUpdate:  mu: -0.102620889  nElectrons: 3.000000  magneticMoment: [ Abs: 0.80706  Tot: +0.74000 ]
SCF: Cycle: 18   F: -7.049740795368113   dF: -3.765e-05   |Residual|: 2.183e-03   |deigs|: 4.603e-03  t[s]:    115.73
	FillingsUpdate:  mu: -0.102197753  nElectrons: 3.000000  magneticMoment: [ Abs: 0.78364  Tot: +0.74000 ]
SCF: Cycle: 19   F: -7.049787336475974   dF: -4.654e-05   |Residual|: 1.704e-03   |deigs|: 9.832e-04  t[s]:    121.27
	FillingsUpdate:  mu: -0.101065641  nElectrons: 3.000000  magneticMoment: [ Abs: 0.77392  Tot: +0.74000 ]
SCF: Cycle: 20   F: -7.049818575648238   dF: -3.124e-05   |Residual|: 1.172e-03   |deigs|: 1.378e-03  t[s]:    126.72
	FillingsUpdate:  mu: -0.100575461  nElectrons: 3.000000  magneticMoment: [ Abs: 0.76134  Tot: +0.74000 ]
SCF: Cycle: 21   F: -7.049839797576920   dF: -2.122e-05   |Residual|: 8.391e-04   |deigs|: 7.647e-04  t[s]:    132.26
	FillingsUpdate:  mu: -0.100878005  nElectrons: 3.000000  magneticMoment: [ Abs: 0.75288  Tot: +0.74000 ]
SCF: Cycle: 22   F: -7.049844004641519   dF: -4.207e-06   |Residual|: 6.470e-04   |deigs|: 3.417e-04  t[s]:    137.78
	FillingsUpdate:  mu: -0.101055751  nElectrons: 3.000000  magneticMoment: [ Abs: 0.74532  Tot: +0.74000 ]
SCF: Cycle: 23   F: -7.049850452320078   dF: -6.448e-06   |Residual|: 4.122e-04   |deigs|: 4.294e-04  t[s]:    143.31
	FillingsUpdate:  mu: -0.101398811  nElectrons: 3.000000  magneticMoment: [ Abs: 0.74259  Tot: +0.74000 ]
SCF: Cycle: 24   F: -7.049852805069525   dF: -2.353e-06   |Residual|: 2.883e-04   |deigs|: 4.785e-04  t[s]:    148.81
	FillingsUpdate:  mu: -0.101389297  nElectrons: 3.000000  magneticMoment: [ Abs: 0.74161  Tot: +0.74000 ]
SCF: Cycle: 25   F: -7.049854604662751   dF: -1.800e-06   |Residual|: 1.438e-04   |deigs|: 3.088e-04  t[s]:    154.31
	FillingsUpdate:  mu: -0.101340680  nElectrons: 3.000000  magneticMoment: [ Abs: 0.74112  Tot: +0.74000 ]
SCF: Cycle: 26   F: -7.049855254179072   dF: -6.495e-07   |Residual|: 9.789e-05   |deigs|: 7.848e-05  t[s]:    159.82
	FillingsUpdate:  mu: -0.101298138  nElectrons: 3.000000  magneticMoment: [ Abs: 0.74078  Tot: +0.74000 ]
SCF: Cycle: 27   F: -7.049855263833265   dF: -9.654e-09   |Residual|: 7.852e-05   |deigs|: 6.792e-05  t[s]:    165.26
	FillingsUpdate:  mu: -0.101208896  nElectrons: 3.000000  magneticMoment: [ Abs: 0.74071  Tot: +0.74000 ]
SCF: Cycle: 28   F: -7.049855336163083   dF: -7.233e-08   |Residual|: 5.284e-05   |deigs|: 8.987e-05  t[s]:    170.82
	FillingsUpdate:  mu: -0.101195711  nElectrons: 3.000000  magneticMoment: [ Abs: 0.74056  Tot: +0.74000 ]
SCF: Cycle: 29   F: -7.049855365046361   dF: -2.888e-08   |Residual|: 4.087e-05   |deigs|: 3.656e-05  t[s]:    176.34
	FillingsUpdate:  mu: -0.101202477  nElectrons: 3.000000  magneticMoment: [ Abs: 0.74047  Tot: +0.74000 ]
SCF: Cycle: 30   F: -7.049855374509238   dF: -9.463e-09   |Residual|: 2.489e-05   |deigs|: 3.207e-05  t[s]:    181.77
	FillingsUpdate:  mu: -0.101209968  nElectrons: 3.000000  magneticMoment: [ Abs: 0.74032  Tot: +0.74000 ]
SCF: Cycle: 31   F: -7.049855403205576   dF: -2.870e-08   |Residual|: 1.825e-05   |deigs|: 2.982e-05  t[s]:    187.26
	FillingsUpdate:  mu: -0.101219513  nElectrons: 3.000000  magneticMoment: [ Abs: 0.74016  Tot: +0.74000 ]
SCF: Cycle: 32   F: -7.049855402946480   dF: +2.591e-10   |Residual|: 1.434e-05   |deigs|: 3.091e-05  t[s]:    192.75
	FillingsUpdate:  mu: -0.101227731  nElectrons: 3.000000  magneticMoment: [ Abs: 0.74007  Tot: +0.74000 ]
SCF: Cycle: 33   F: -7.049855417430435   dF: -1.448e-08   |Residual|: 1.139e-05   |deigs|: 2.944e-05  t[s]:    198.19
	FillingsUpdate:  mu: -0.101230447  nElectrons: 3.000000  magneticMoment: [ Abs: 0.74002  Tot: +0.74000 ]
SCF: Cycle: 34   F: -7.049855391726299   dF: +2.570e-08   |Residual|: 9.322e-06   |deigs|: 2.696e-05  t[s]:    203.68
	FillingsUpdate:  mu: -0.101234587  nElectrons: 3.000000  magneticMoment: [ Abs: 0.74000  Tot: +0.74000 ]
SCF: Cycle: 35   F: -7.049855402365433   dF: -1.064e-08   |Residual|: 7.107e-06   |deigs|: 2.590e-05  t[s]:    209.14
	FillingsUpdate:  mu: -0.101234398  nElectrons: 3.000000  magneticMoment: [ Abs: 0.74000  Tot: +0.74000 ]
SCF: Cycle: 36   F: -7.049855431133013   dF: -2.877e-08   |Residual|: 4.344e-06   |deigs|: 2.210e-05  t[s]:    214.62
	FillingsUpdate:  mu: -0.101234550  nElectrons: 3.000000  magneticMoment: [ Abs: 0.74000  Tot: +0.74000 ]
SCF: Cycle: 37   F: -7.049855439507057   dF: -8.374e-09   |Residual|: 3.396e-06   |deigs|: 2.059e-05  t[s]:    220.11
	FillingsUpdate:  mu: -0.101233763  nElectrons: 3.000000  magneticMoment: [ Abs: 0.74000  Tot: +0.74000 ]
SCF: Cycle: 38   F: -7.049855433359383   dF: +6.148e-09   |Residual|: 2.379e-06   |deigs|: 1.790e-05  t[s]:    225.56
	FillingsUpdate:  mu: -0.101233378  nElectrons: 3.000000  magneticMoment: [ Abs: 0.74000  Tot: +0.74000 ]
SCF: Cycle: 39   F: -7.049855442757213   dF: -9.398e-09   |Residual|: 1.472e-06   |deigs|: 1.595e-05  t[s]:    231.06
	FillingsUpdate:  mu: -0.101233245  nElectrons: 3.000000  magneticMoment: [ Abs: 0.74000  Tot: +0.74000 ]
SCF: Cycle: 40   F: -7.049855440722808   dF: +2.034e-09   |Residual|: 1.140e-06   |deigs|: 1.385e-05  t[s]:    236.56
	FillingsUpdate:  mu: -0.101233224  nElectrons: 3.000000  magneticMoment: [ Abs: 0.74000  Tot: +0.74000 ]
SCF: Cycle: 41   F: -7.049855443081802   dF: -2.359e-09   |Residual|: 7.399e-07   |deigs|: 1.204e-05  t[s]:    242.15
	FillingsUpdate:  mu: -0.101233192  nElectrons: 3.000000  magneticMoment: [ Abs: 0.74000  Tot: +0.74000 ]
SCF: Cycle: 42   F: -7.049855443422449   dF: -3.406e-10   |Residual|: 5.527e-07   |deigs|: 1.051e-05  t[s]:    247.69
SCF: Converged (|Delta E|<1.000000e-08 for 2 iters).


# Ionic positions in lattice coordinates:
ion Li   0.000000000000000   0.000000000000000   0.000000000000000 0

# Forces in Lattice coordinates:
force Li  -0.000000000000000  -0.000000000000000   0.000000000000000 0

# Energy components:
   Eewald =       -1.0026681166851483
       EH =        2.5584606018245335
     Eloc =       -8.2391997405826896
      Enl =       -3.6051915860898971
   Epulay =        0.0000051497655618
      Exc =       -1.5425608973308305
       KE =        4.7812995447892330
-------------------------------------
     Etot =       -7.0498550443092363
       TS =        0.0000003991132124
-------------------------------------
        F =       -7.0498554434224490

IonicMinimize: Iter:   0  F: -7.049855443422449  |grad|_K:  0.000e+00  t[s]:    247.94
IonicMinimize: Converged (|grad|_K<1.000000e-04).

#--- Lowdin population analysis ---
# oxidation-state Li +2.068
# magnetic-moments Li +0.686

End date and time: Sat Feb  5 23:14:35 2022  (Duration: 0-0:04:07.97)
Done!
