
*************** JDFTx 1.6.0 (git hash 42ebbcc2) ***************

Start date and time: Sat Feb  5 23:02:43 2022
Executable jdftx with command-line: -i Alkali.in
Running on hosts (process indices):  d-17-1-1 (0-18)
Divided in process groups (process indices):  0 (0)  1 (1)  2 (2)  3 (3)  4 (4)  5 (5)  6 (6)  7 (7)  8 (8)  9 (9)  10 (10)  11 (11)  12 (12)  13 (13)  14 (14)  15 (15)  16 (16)  17 (17)  18 (18)
Resource initialization completed at t[s]:      0.00
Run totals: 19 processes, 48 threads, 0 GPUs


Input parsed successfully to the following command list (including defaults):

basis kpoint-dependent
coords-type Lattice
core-overlap-check vector
coulomb-interaction Slab 001
davidson-band-ratio 1.1
dump End None
dump-name $INPUT.$VAR
elec-cutoff 20
elec-eigen-algo Davidson
elec-ex-corr gga-PBE
elec-initial-magnetization 0.180000 yes
elec-smearing Fermi 1e-05
electronic-minimize  \
	dirUpdateScheme      FletcherReeves \
	linminMethod         DirUpdateRecommended \
	nIterations          100 \
	history              15 \
	knormThreshold       0 \
	energyDiffThreshold  1e-08 \
	nEnergyDiff          2 \
	alphaTstart          1 \
	alphaTmin            1e-10 \
	updateTestStepSize   yes \
	alphaTreduceFactor   0.1 \
	alphaTincreaseFactor 3 \
	nAlphaAdjustMax      3 \
	wolfeEnergy          0.0001 \
	wolfeGradient        0.9 \
	fdTest               no
electronic-scf  \
	nIterations	10000 \
	energyDiffThreshold	1e-08 \
	residualThreshold	1e-07 \
	mixFraction	0.5 \
	qMetric	0.8 \
	history	10 \
	nEigSteps	2 \
	eigDiffThreshold	1e-08 \
	mixedVariable	Density \
	qKerker	0.8 \
	qKappa	-1 \
	verbose	no \
	mixFractionMag	1.5
exchange-regularization WignerSeitzTruncated
fluid None
fluid-ex-corr (null) lda-PZ
fluid-gummel-loop 10 1.000000e-05
fluid-minimize  \
	dirUpdateScheme      PolakRibiere \
	linminMethod         DirUpdateRecommended \
	nIterations          100 \
	history              15 \
	knormThreshold       0 \
	energyDiffThreshold  0 \
	nEnergyDiff          2 \
	alphaTstart          1 \
	alphaTmin            1e-10 \
	updateTestStepSize   yes \
	alphaTreduceFactor   0.1 \
	alphaTincreaseFactor 3 \
	nAlphaAdjustMax      3 \
	wolfeEnergy          0.0001 \
	wolfeGradient        0.9 \
	fdTest               no
fluid-solvent H2O 55.338 ScalarEOS \
	epsBulk 78.4 \
	pMol 0.92466 \
	epsInf 1.77 \
	Pvap 1.06736e-10 \
	sigmaBulk 4.62e-05 \
	Rvdw 2.61727 \
	Res 1.42 \
	tauNuc 343133 \
	poleEl 15 7 1
forces-output-coords Positions
ion Li   0.000000000000000   0.000000000000000   0.000000000000000 0
ion-species SG15/$ID_ONCV_PBE.upf
ion-width 0
ionic-minimize  \
	dirUpdateScheme      L-BFGS \
	linminMethod         DirUpdateRecommended \
	nIterations          0 \
	history              15 \
	knormThreshold       0.0001 \
	energyDiffThreshold  1e-06 \
	nEnergyDiff          2 \
	alphaTstart          1 \
	alphaTmin            1e-10 \
	updateTestStepSize   yes \
	alphaTreduceFactor   0.1 \
	alphaTincreaseFactor 3 \
	nAlphaAdjustMax      3 \
	wolfeEnergy          0.0001 \
	wolfeGradient        0.9 \
	fdTest               no
kpoint   0.000000000000   0.000000000000   0.000000000000  1.00000000000000
kpoint-folding 12 12 1 
latt-move-scale 1 1 1
latt-scale 4 4 1 
lattice  \
	   4.727486978767153   -2.363743489383575    0.000000000000000  \
	  -0.000000000000000    4.094123819672498    0.000000000000000  \
	   0.000000000000000    0.000000000000000   40.000000000000000 
lattice-minimize  \
	dirUpdateScheme      L-BFGS \
	linminMethod         DirUpdateRecommended \
	nIterations          0 \
	history              15 \
	knormThreshold       0 \
	energyDiffThreshold  1e-06 \
	nEnergyDiff          2 \
	alphaTstart          1 \
	alphaTmin            1e-10 \
	updateTestStepSize   yes \
	alphaTreduceFactor   0.1 \
	alphaTincreaseFactor 3 \
	nAlphaAdjustMax      3 \
	wolfeEnergy          0.0001 \
	wolfeGradient        0.9 \
	fdTest               no
lcao-params -1 1e-06 1e-05
pcm-variant GLSSA13
spintype z-spin
subspace-rotation-factor 1 yes
symmetries automatic
symmetry-threshold 0.0001



---------- Setting up symmetries ----------

Found 24 point-group symmetries of the bravais lattice
Found 24 space-group symmetries with basis
Applied RMS atom displacement 0 bohrs to make symmetries exact.

---------- Initializing the Grid ----------
R = 
[      18.9099     -9.45497            0  ]
[            0      16.3765            0  ]
[            0            0           40  ]
unit cell volume = 12387.1
G =
[   0.332269   0.191835         -0  ]
[          0   0.383671         -0  ]
[         -0         -0    0.15708  ]
Minimum fftbox size, Smin = [  80  80  164  ]
Chosen fftbox size, S = [  80  80  168  ]

---------- Exchange Correlation functional ----------
Initalized PBE GGA exchange.
Initalized PBE GGA correlation.

---------- Setting up pseudopotentials ----------
Width of ionic core gaussian charges (only for fluid interactions / plotting) set to 0

Reading pseudopotential file '/home/gridsan/aligho/DFT/build-Nov24/pseudopotentials/SG15/Li_ONCV_PBE.upf':
  'Li' pseudopotential, 'PBE' functional
  Generated using ONCVPSP code by D. R. Hamann
  Author: Martin Schlipf and Francois Gygi  Date: 150915.
  3 valence electrons, 2 orbitals, 4 projectors, 1328 radial grid points, with lMax = 1
  Transforming local potential to a uniform radial grid of dG=0.02 with 1489 points.
  Transforming nonlocal projectors to a uniform radial grid of dG=0.02 with 432 points.
    1S    l: 0   occupation:  2.0   eigenvalue: -1.905623
    2S    l: 0   occupation:  1.0   eigenvalue: -0.105624
  Transforming atomic orbitals to a uniform radial grid of dG=0.02 with 432 points.
  WARNING: large normalization error in atomic orbital 1s (integral: 0.000000).
  Core radius for overlap checks: 1.63 bohrs.
  Reading pulay file /home/gridsan/aligho/DFT/build-Nov24/pseudopotentials/SG15/Li_ONCV_PBE.pulay ... using dE_dnG = -1.230239e-02 computed for Ecut = 20.

Initialized 1 species with 1 total atoms.

Folded 1 k-points by 12x12x1 to 144 k-points.

---------- Setting up k-points, bands, fillings ----------
Reduced to 19 k-points under symmetry. 
Computing the number of bands and number of electrons
Calculating initial fillings.
nElectrons:   3.000000   nBands: 3   nStates: 38

----- Setting up reduced wavefunction bases (one per k-point) -----
average nbasis = 52924.021 , ideal nbasis = 52918.836

---------- Setting up coulomb interaction ----------
Initialized slab truncation along lattice direction 001

---------- Setting up 2D ewald sum ----------
Optimum gaussian width for ewald sums = 10.498040 bohr.
Real space sums over 289 unit cells with max indices [  8  8  0  ]
Reciprocal space sums over 81 terms with max indices [  4  4  0  ]

---------- Allocating electronic variables ----------
Initializing wave functions:  linear combination of atomic orbitals
Note: number of bands (3) exceeds available atomic orbitals (2)
Li pseudo-atom occupations:   s ( 2 1 )
	FillingsUpdate:  mu: +0.361768925  nElectrons: 3.000000  magneticMoment: [ Abs: 0.18052  Tot: +0.18000 ]
LCAOMinimize: Iter:   0  F: -1.3113272419090836  |grad|_K:  4.118e-05  alpha:  1.000e+00
	FillingsUpdate:  mu: +0.361768546  nElectrons: 3.000000  magneticMoment: [ Abs: 0.18052  Tot: +0.18000 ]
LCAOMinimize: Iter:   1  F: -1.3113275489012848  |grad|_K:  1.033e-07  alpha:  1.059e+00  linmin: -8.534e-03  cgtest:  2.781e-02  t[s]:     12.35
LCAOMinimize: Encountered beta<0, resetting CG.
	FillingsUpdate:  mu: +0.361768546  nElectrons: 3.000000  magneticMoment: [ Abs: 0.18052  Tot: +0.18000 ]
LCAOMinimize: Iter:   2  F: -1.3113275489036151  |grad|_K:  2.130e-08  alpha:  8.180e-01  linmin: -2.191e-02  cgtest:  9.871e-01  t[s]:     15.55
LCAOMinimize: Encountered beta<0, resetting CG.
LCAOMinimize: Converged (|Delta F|<1.000000e-06 for 2 iters).


---- Citations for features of the code used in this run ----

   Software package:
      R. Sundararaman, K. Letchworth-Weaver, K.A. Schwarz, D. Gunceler, Y. Ozhabes and T.A. Arias, 'JDFTx: software for joint density-functional theory', SoftwareX 6, 278 (2017)

   gga-PBE exchange-correlation functional:
      J.P. Perdew, K. Burke and M. Ernzerhof, Phys. Rev. Lett. 77, 3865 (1996)

   Pseudopotentials:
      M Schlipf and F Gygi, Comput. Phys. Commun. 196, 36 (2015)

   Truncated Coulomb potentials:
      R. Sundararaman and T.A. Arias, Phys. Rev. B 87, 165122 (2013)

This list may not be complete. Please suggest additional citations or
report any other bugs at https://github.com/shankar1729/jdftx/issues

Initialization completed successfully at t[s]:     15.69


-------- Electronic minimization -----------
Will mix electronic density at each iteration.
	FillingsUpdate:  mu: +0.361768546  nElectrons: 3.000000  magneticMoment: [ Abs: 0.18052  Tot: +0.18000 ]
	FillingsUpdate:  mu: -0.613019721  nElectrons: 3.000000  magneticMoment: [ Abs: 0.18052  Tot: +0.18000 ]
SCF: Cycle:  0   F: -6.868596098008233   dF: -5.557e+00   |Residual|: 1.230e+00   |deigs|: 4.155e+00  t[s]:     21.13
	FillingsUpdate:  mu: -0.494137495  nElectrons: 3.000000  magneticMoment: [ Abs: 0.30895  Tot: +0.18000 ]
SCF: Cycle:  1   F: -6.914780976597865   dF: -4.618e-02   |Residual|: 7.598e-01   |deigs|: 2.755e-01  t[s]:     25.52
	FillingsUpdate:  mu: -0.238933046  nElectrons: 3.000000  magneticMoment: [ Abs: 0.39730  Tot: +0.18000 ]
SCF: Cycle:  2   F: -7.036571667954163   dF: -1.218e-01   |Residual|: 3.167e-01   |deigs|: 7.103e-01  t[s]:     30.08
	FillingsUpdate:  mu: -0.261441986  nElectrons: 3.000000  magneticMoment: [ Abs: 0.40034  Tot: +0.18000 ]
SCF: Cycle:  3   F: -7.037726867680938   dF: -1.155e-03   |Residual|: 1.864e-01   |deigs|: 7.246e-02  t[s]:     34.74
	FillingsUpdate:  mu: -0.240429617  nElectrons: 3.000000  magneticMoment: [ Abs: 0.43373  Tot: +0.18000 ]
SCF: Cycle:  4   F: -7.035043643912354   dF: +2.683e-03   |Residual|: 7.095e-02   |deigs|: 2.171e-02  t[s]:     39.38
	FillingsUpdate:  mu: -0.227090369  nElectrons: 3.000000  magneticMoment: [ Abs: 0.40800  Tot: +0.18000 ]
SCF: Cycle:  5   F: -7.036270076185200   dF: -1.226e-03   |Residual|: 1.248e-01   |deigs|: 1.171e-02  t[s]:     44.22
	FillingsUpdate:  mu: -0.200453180  nElectrons: 3.000000  magneticMoment: [ Abs: 0.36899  Tot: +0.18000 ]
SCF: Cycle:  6   F: -7.040222409911580   dF: -3.952e-03   |Residual|: 5.402e-02   |deigs|: 5.972e-02  t[s]:     49.19
	FillingsUpdate:  mu: -0.177430463  nElectrons: 3.000000  magneticMoment: [ Abs: 0.27786  Tot: +0.18000 ]
SCF: Cycle:  7   F: -7.042508611061466   dF: -2.286e-03   |Residual|: 1.095e-01   |deigs|: 7.603e-02  t[s]:     54.29
	FillingsUpdate:  mu: -0.183651472  nElectrons: 3.000000  magneticMoment: [ Abs: 0.21208  Tot: +0.18000 ]
SCF: Cycle:  8   F: -7.042850390253052   dF: -3.418e-04   |Residual|: 6.264e-02   |deigs|: 2.321e-02  t[s]:     59.39
	FillingsUpdate:  mu: -0.189849817  nElectrons: 3.000000  magneticMoment: [ Abs: 0.27937  Tot: +0.18000 ]
SCF: Cycle:  9   F: -7.043079916656037   dF: -2.295e-04   |Residual|: 9.601e-02   |deigs|: 6.552e-02  t[s]:     64.69
	FillingsUpdate:  mu: -0.179110914  nElectrons: 3.000000  magneticMoment: [ Abs: 0.30131  Tot: +0.18000 ]
SCF: Cycle: 10   F: -7.043073046083494   dF: +6.871e-06   |Residual|: 1.430e-01   |deigs|: 1.639e-02  t[s]:     70.10
	FillingsUpdate:  mu: -0.155231310  nElectrons: 3.000000  magneticMoment: [ Abs: 0.26401  Tot: +0.18000 ]
SCF: Cycle: 11   F: -7.044386723169163   dF: -1.314e-03   |Residual|: 3.015e-02   |deigs|: 8.134e-02  t[s]:     75.51
	FillingsUpdate:  mu: -0.151564771  nElectrons: 3.000000  magneticMoment: [ Abs: 0.24098  Tot: +0.18000 ]
SCF: Cycle: 12   F: -7.044491687977950   dF: -1.050e-04   |Residual|: 9.590e-03   |deigs|: 1.270e-02  t[s]:     80.89
	FillingsUpdate:  mu: -0.132149928  nElectrons: 3.000000  magneticMoment: [ Abs: 0.26147  Tot: +0.18000 ]
SCF: Cycle: 13   F: -7.044685238949378   dF: -1.936e-04   |Residual|: 7.647e-03   |deigs|: 1.999e-02  t[s]:     86.21
	FillingsUpdate:  mu: -0.124977210  nElectrons: 3.000000  magneticMoment: [ Abs: 0.24993  Tot: +0.18000 ]
SCF: Cycle: 14   F: -7.044730316256107   dF: -4.508e-05   |Residual|: 6.029e-03   |deigs|: 8.418e-03  t[s]:     91.61
	FillingsUpdate:  mu: -0.116377037  nElectrons: 3.000000  magneticMoment: [ Abs: 0.23976  Tot: +0.18000 ]
SCF: Cycle: 15   F: -7.044745932744076   dF: -1.562e-05   |Residual|: 4.577e-03   |deigs|: 9.174e-03  t[s]:     96.93
	FillingsUpdate:  mu: -0.112908041  nElectrons: 3.000000  magneticMoment: [ Abs: 0.22737  Tot: +0.18000 ]
SCF: Cycle: 16   F: -7.044762959324902   dF: -1.703e-05   |Residual|: 3.372e-03   |deigs|: 3.352e-03  t[s]:    102.36
	FillingsUpdate:  mu: -0.109301113  nElectrons: 3.000000  magneticMoment: [ Abs: 0.22543  Tot: +0.18000 ]
SCF: Cycle: 17   F: -7.044757164051211   dF: +5.795e-06   |Residual|: 2.447e-03   |deigs|: 3.397e-03  t[s]:    107.75
	FillingsUpdate:  mu: -0.106786408  nElectrons: 3.000000  magneticMoment: [ Abs: 0.21473  Tot: +0.18000 ]
SCF: Cycle: 18   F: -7.044745485960033   dF: +1.168e-05   |Residual|: 1.846e-03   |deigs|: 2.811e-03  t[s]:    113.15
	FillingsUpdate:  mu: -0.105210998  nElectrons: 3.000000  magneticMoment: [ Abs: 0.21205  Tot: +0.18000 ]
SCF: Cycle: 19   F: -7.044772233978998   dF: -2.675e-05   |Residual|: 1.233e-03   |deigs|: 1.764e-03  t[s]:    118.54
	FillingsUpdate:  mu: -0.104800581  nElectrons: 3.000000  magneticMoment: [ Abs: 0.20416  Tot: +0.18000 ]
SCF: Cycle: 20   F: -7.044794951776195   dF: -2.272e-05   |Residual|: 9.701e-04   |deigs|: 4.414e-04  t[s]:    123.95
	FillingsUpdate:  mu: -0.104939400  nElectrons: 3.000000  magneticMoment: [ Abs: 0.19553  Tot: +0.18000 ]
SCF: Cycle: 21   F: -7.044809397590179   dF: -1.445e-05   |Residual|: 6.931e-04   |deigs|: 1.623e-04  t[s]:    129.32
	FillingsUpdate:  mu: -0.104794744  nElectrons: 3.000000  magneticMoment: [ Abs: 0.19024  Tot: +0.18000 ]
SCF: Cycle: 22   F: -7.044820179083578   dF: -1.078e-05   |Residual|: 4.983e-04   |deigs|: 2.622e-04  t[s]:    134.66
	FillingsUpdate:  mu: -0.104899787  nElectrons: 3.000000  magneticMoment: [ Abs: 0.18698  Tot: +0.18000 ]
SCF: Cycle: 23   F: -7.044824985528996   dF: -4.806e-06   |Residual|: 3.744e-04   |deigs|: 1.956e-04  t[s]:    139.98
	FillingsUpdate:  mu: -0.104875086  nElectrons: 3.000000  magneticMoment: [ Abs: 0.18508  Tot: +0.18000 ]
SCF: Cycle: 24   F: -7.044827807329520   dF: -2.822e-06   |Residual|: 2.543e-04   |deigs|: 1.301e-04  t[s]:    145.36
	FillingsUpdate:  mu: -0.104999525  nElectrons: 3.000000  magneticMoment: [ Abs: 0.18327  Tot: +0.18000 ]
SCF: Cycle: 25   F: -7.044829482819029   dF: -1.675e-06   |Residual|: 1.653e-04   |deigs|: 1.997e-04  t[s]:    150.78
	FillingsUpdate:  mu: -0.105092349  nElectrons: 3.000000  magneticMoment: [ Abs: 0.18179  Tot: +0.18000 ]
SCF: Cycle: 26   F: -7.044829970106100   dF: -4.873e-07   |Residual|: 1.189e-04   |deigs|: 1.443e-04  t[s]:    156.17
	FillingsUpdate:  mu: -0.105220273  nElectrons: 3.000000  magneticMoment: [ Abs: 0.18115  Tot: +0.18000 ]
SCF: Cycle: 27   F: -7.044830470807686   dF: -5.007e-07   |Residual|: 7.796e-05   |deigs|: 1.700e-04  t[s]:    161.55
	FillingsUpdate:  mu: -0.105326763  nElectrons: 3.000000  magneticMoment: [ Abs: 0.18111  Tot: +0.18000 ]
SCF: Cycle: 28   F: -7.044830591903987   dF: -1.211e-07   |Residual|: 5.706e-05   |deigs|: 1.411e-04  t[s]:    166.89
	FillingsUpdate:  mu: -0.105392531  nElectrons: 3.000000  magneticMoment: [ Abs: 0.18079  Tot: +0.18000 ]
SCF: Cycle: 29   F: -7.044830625175976   dF: -3.327e-08   |Residual|: 4.303e-05   |deigs|: 9.888e-05  t[s]:    172.24
	FillingsUpdate:  mu: -0.105448718  nElectrons: 3.000000  magneticMoment: [ Abs: 0.18062  Tot: +0.18000 ]
SCF: Cycle: 30   F: -7.044830663762004   dF: -3.859e-08   |Residual|: 2.936e-05   |deigs|: 8.449e-05  t[s]:    177.68
	FillingsUpdate:  mu: -0.105460693  nElectrons: 3.000000  magneticMoment: [ Abs: 0.18043  Tot: +0.18000 ]
SCF: Cycle: 31   F: -7.044830675982550   dF: -1.222e-08   |Residual|: 2.190e-05   |deigs|: 4.433e-05  t[s]:    183.11
	FillingsUpdate:  mu: -0.105466242  nElectrons: 3.000000  magneticMoment: [ Abs: 0.18023  Tot: +0.18000 ]
SCF: Cycle: 32   F: -7.044830692168918   dF: -1.619e-08   |Residual|: 1.271e-05   |deigs|: 3.764e-05  t[s]:    188.46
	FillingsUpdate:  mu: -0.105463326  nElectrons: 3.000000  magneticMoment: [ Abs: 0.18015  Tot: +0.18000 ]
SCF: Cycle: 33   F: -7.044830695723639   dF: -3.555e-09   |Residual|: 8.666e-06   |deigs|: 2.737e-05  t[s]:    193.87
	FillingsUpdate:  mu: -0.105461311  nElectrons: 3.000000  magneticMoment: [ Abs: 0.18012  Tot: +0.18000 ]
SCF: Cycle: 34   F: -7.044830697062680   dF: -1.339e-09   |Residual|: 5.793e-06   |deigs|: 2.208e-05  t[s]:    199.24
SCF: Converged (|Delta E|<1.000000e-08 for 2 iters).


# Ionic positions in lattice coordinates:
ion Li   0.000000000000000   0.000000000000000   0.000000000000000 0

# Forces in Lattice coordinates:
force Li   0.000000000000000  -0.000000000000000   0.000000000000000 0

# Energy components:
   Eewald =       -1.0026681166851483
       EH =        2.5460295452618054
     Eloc =       -8.2237105779348081
      Enl =       -3.6032764944952822
   Epulay =        0.0000051497655618
      Exc =       -1.5344552759466084
       KE =        4.7732454619026861
-------------------------------------
     Etot =       -7.0448303081317949
       TS =        0.0000003889308851
-------------------------------------
        F =       -7.0448306970626797

IonicMinimize: Iter:   0  F: -7.044830697062680  |grad|_K:  0.000e+00  t[s]:    199.48
IonicMinimize: Converged (|grad|_K<1.000000e-04).

#--- Lowdin population analysis ---
# oxidation-state Li +2.082
# magnetic-moments Li +0.167

End date and time: Sat Feb  5 23:06:02 2022  (Duration: 0-0:03:19.52)
Done!
