
*************** JDFTx 1.6.0 (git hash 42ebbcc2) ***************

Start date and time: Sat Feb  5 22:56:24 2022
Executable jdftx with command-line: -i Alkali.in
Running on hosts (process indices):  d-16-12-1 (0-18)
Divided in process groups (process indices):  0 (0)  1 (1)  2 (2)  3 (3)  4 (4)  5 (5)  6 (6)  7 (7)  8 (8)  9 (9)  10 (10)  11 (11)  12 (12)  13 (13)  14 (14)  15 (15)  16 (16)  17 (17)  18 (18)
Resource initialization completed at t[s]:      0.00
Run totals: 19 processes, 48 threads, 0 GPUs


Input parsed successfully to the following command list (including defaults):

basis kpoint-dependent
coords-type Lattice
core-overlap-check vector
coulomb-interaction Slab 001
davidson-band-ratio 1.1
dump End None
dump-name $INPUT.$VAR
elec-cutoff 20
elec-eigen-algo Davidson
elec-ex-corr gga-PBE
elec-initial-magnetization -0.180000 yes
elec-smearing Fermi 1e-05
electronic-minimize  \
	dirUpdateScheme      FletcherReeves \
	linminMethod         DirUpdateRecommended \
	nIterations          100 \
	history              15 \
	knormThreshold       0 \
	energyDiffThreshold  1e-08 \
	nEnergyDiff          2 \
	alphaTstart          1 \
	alphaTmin            1e-10 \
	updateTestStepSize   yes \
	alphaTreduceFactor   0.1 \
	alphaTincreaseFactor 3 \
	nAlphaAdjustMax      3 \
	wolfeEnergy          0.0001 \
	wolfeGradient        0.9 \
	fdTest               no
electronic-scf  \
	nIterations	10000 \
	energyDiffThreshold	1e-08 \
	residualThreshold	1e-07 \
	mixFraction	0.5 \
	qMetric	0.8 \
	history	10 \
	nEigSteps	2 \
	eigDiffThreshold	1e-08 \
	mixedVariable	Density \
	qKerker	0.8 \
	qKappa	-1 \
	verbose	no \
	mixFractionMag	1.5
exchange-regularization WignerSeitzTruncated
fluid None
fluid-ex-corr (null) lda-PZ
fluid-gummel-loop 10 1.000000e-05
fluid-minimize  \
	dirUpdateScheme      PolakRibiere \
	linminMethod         DirUpdateRecommended \
	nIterations          100 \
	history              15 \
	knormThreshold       0 \
	energyDiffThreshold  0 \
	nEnergyDiff          2 \
	alphaTstart          1 \
	alphaTmin            1e-10 \
	updateTestStepSize   yes \
	alphaTreduceFactor   0.1 \
	alphaTincreaseFactor 3 \
	nAlphaAdjustMax      3 \
	wolfeEnergy          0.0001 \
	wolfeGradient        0.9 \
	fdTest               no
fluid-solvent H2O 55.338 ScalarEOS \
	epsBulk 78.4 \
	pMol 0.92466 \
	epsInf 1.77 \
	Pvap 1.06736e-10 \
	sigmaBulk 4.62e-05 \
	Rvdw 2.61727 \
	Res 1.42 \
	tauNuc 343133 \
	poleEl 15 7 1
forces-output-coords Positions
ion Li   0.000000000000000   0.000000000000000   0.000000000000000 0
ion-species SG15/$ID_ONCV_PBE.upf
ion-width 0
ionic-minimize  \
	dirUpdateScheme      L-BFGS \
	linminMethod         DirUpdateRecommended \
	nIterations          0 \
	history              15 \
	knormThreshold       0.0001 \
	energyDiffThreshold  1e-06 \
	nEnergyDiff          2 \
	alphaTstart          1 \
	alphaTmin            1e-10 \
	updateTestStepSize   yes \
	alphaTreduceFactor   0.1 \
	alphaTincreaseFactor 3 \
	nAlphaAdjustMax      3 \
	wolfeEnergy          0.0001 \
	wolfeGradient        0.9 \
	fdTest               no
kpoint   0.000000000000   0.000000000000   0.000000000000  1.00000000000000
kpoint-folding 12 12 1 
latt-move-scale 1 1 1
latt-scale 4 4 1 
lattice  \
	   4.727486978767153   -2.363743489383575    0.000000000000000  \
	  -0.000000000000000    4.094123819672498    0.000000000000000  \
	   0.000000000000000    0.000000000000000   40.000000000000000 
lattice-minimize  \
	dirUpdateScheme      L-BFGS \
	linminMethod         DirUpdateRecommended \
	nIterations          0 \
	history              15 \
	knormThreshold       0 \
	energyDiffThreshold  1e-06 \
	nEnergyDiff          2 \
	alphaTstart          1 \
	alphaTmin            1e-10 \
	updateTestStepSize   yes \
	alphaTreduceFactor   0.1 \
	alphaTincreaseFactor 3 \
	nAlphaAdjustMax      3 \
	wolfeEnergy          0.0001 \
	wolfeGradient        0.9 \
	fdTest               no
lcao-params -1 1e-06 1e-05
pcm-variant GLSSA13
spintype z-spin
subspace-rotation-factor 1 yes
symmetries automatic
symmetry-threshold 0.0001



---------- Setting up symmetries ----------

Found 24 point-group symmetries of the bravais lattice
Found 24 space-group symmetries with basis
Applied RMS atom displacement 0 bohrs to make symmetries exact.

---------- Initializing the Grid ----------
R = 
[      18.9099     -9.45497            0  ]
[            0      16.3765            0  ]
[            0            0           40  ]
unit cell volume = 12387.1
G =
[   0.332269   0.191835         -0  ]
[          0   0.383671         -0  ]
[         -0         -0    0.15708  ]
Minimum fftbox size, Smin = [  80  80  164  ]
Chosen fftbox size, S = [  80  80  168  ]

---------- Exchange Correlation functional ----------
Initalized PBE GGA exchange.
Initalized PBE GGA correlation.

---------- Setting up pseudopotentials ----------
Width of ionic core gaussian charges (only for fluid interactions / plotting) set to 0

Reading pseudopotential file '/home/gridsan/aligho/DFT/build-Nov24/pseudopotentials/SG15/Li_ONCV_PBE.upf':
  'Li' pseudopotential, 'PBE' functional
  Generated using ONCVPSP code by D. R. Hamann
  Author: Martin Schlipf and Francois Gygi  Date: 150915.
  3 valence electrons, 2 orbitals, 4 projectors, 1328 radial grid points, with lMax = 1
  Transforming local potential to a uniform radial grid of dG=0.02 with 1489 points.
  Transforming nonlocal projectors to a uniform radial grid of dG=0.02 with 432 points.
    1S    l: 0   occupation:  2.0   eigenvalue: -1.905623
    2S    l: 0   occupation:  1.0   eigenvalue: -0.105624
  Transforming atomic orbitals to a uniform radial grid of dG=0.02 with 432 points.
  WARNING: large normalization error in atomic orbital 1s (integral: 0.000000).
  Core radius for overlap checks: 1.63 bohrs.
  Reading pulay file /home/gridsan/aligho/DFT/build-Nov24/pseudopotentials/SG15/Li_ONCV_PBE.pulay ... using dE_dnG = -1.230239e-02 computed for Ecut = 20.

Initialized 1 species with 1 total atoms.

Folded 1 k-points by 12x12x1 to 144 k-points.

---------- Setting up k-points, bands, fillings ----------
Reduced to 19 k-points under symmetry. 
Computing the number of bands and number of electrons
Calculating initial fillings.
nElectrons:   3.000000   nBands: 3   nStates: 38

----- Setting up reduced wavefunction bases (one per k-point) -----
average nbasis = 52924.021 , ideal nbasis = 52918.836

---------- Setting up coulomb interaction ----------
Initialized slab truncation along lattice direction 001

---------- Setting up 2D ewald sum ----------
Optimum gaussian width for ewald sums = 10.498040 bohr.
Real space sums over 289 unit cells with max indices [  8  8  0  ]
Reciprocal space sums over 81 terms with max indices [  4  4  0  ]

---------- Allocating electronic variables ----------
Initializing wave functions:  linear combination of atomic orbitals
Note: number of bands (3) exceeds available atomic orbitals (2)
Li pseudo-atom occupations:   s ( 2 1 )
	FillingsUpdate:  mu: +0.366974797  nElectrons: 3.000000  magneticMoment: [ Abs: 0.18032  Tot: -0.18000 ]
LCAOMinimize: Iter:   0  F: -1.3119449512904700  |grad|_K:  4.096e-05  alpha:  1.000e+00
	FillingsUpdate:  mu: +0.366974454  nElectrons: 3.000000  magneticMoment: [ Abs: 0.18032  Tot: -0.18000 ]
LCAOMinimize: Iter:   1  F: -1.3119452549452892  |grad|_K:  6.212e-08  alpha:  1.059e+00  linmin: -1.183e-02  cgtest:  4.466e-02  t[s]:     12.79
LCAOMinimize: Encountered beta<0, resetting CG.
LCAOMinimize: 	Wrong curvature in test step, increasing alphaT to 3.175779e+00.
	FillingsUpdate:  mu: +0.366974455  nElectrons: 3.000000  magneticMoment: [ Abs: 0.18032  Tot: -0.18000 ]
LCAOMinimize: Iter:   2  F: -1.3119452549487827  |grad|_K:  3.562e-09  alpha: -3.527e-01  linmin:  8.374e-03  cgtest: -9.232e-01  t[s]:     16.08
LCAOMinimize: Converged (|Delta F|<1.000000e-06 for 2 iters).


---- Citations for features of the code used in this run ----

   Software package:
      R. Sundararaman, K. Letchworth-Weaver, K.A. Schwarz, D. Gunceler, Y. Ozhabes and T.A. Arias, 'JDFTx: software for joint density-functional theory', SoftwareX 6, 278 (2017)

   gga-PBE exchange-correlation functional:
      J.P. Perdew, K. Burke and M. Ernzerhof, Phys. Rev. Lett. 77, 3865 (1996)

   Pseudopotentials:
      M Schlipf and F Gygi, Comput. Phys. Commun. 196, 36 (2015)

   Truncated Coulomb potentials:
      R. Sundararaman and T.A. Arias, Phys. Rev. B 87, 165122 (2013)

This list may not be complete. Please suggest additional citations or
report any other bugs at https://github.com/shankar1729/jdftx/issues

Initialization completed successfully at t[s]:     16.22


-------- Electronic minimization -----------
Will mix electronic density at each iteration.
	FillingsUpdate:  mu: +0.366974455  nElectrons: 3.000000  magneticMoment: [ Abs: 0.18032  Tot: -0.18000 ]
	FillingsUpdate:  mu: -0.614964486  nElectrons: 3.000000  magneticMoment: [ Abs: 0.18032  Tot: -0.18000 ]
SCF: Cycle:  0   F: -6.868547305719573   dF: -5.557e+00   |Residual|: 1.229e+00   |deigs|: 4.155e+00  t[s]:     21.98
	FillingsUpdate:  mu: -0.495083112  nElectrons: 3.000000  magneticMoment: [ Abs: 0.31179  Tot: -0.18000 ]
SCF: Cycle:  1   F: -6.914759137272211   dF: -4.621e-02   |Residual|: 7.600e-01   |deigs|: 2.753e-01  t[s]:     26.59
	FillingsUpdate:  mu: -0.238678236  nElectrons: 3.000000  magneticMoment: [ Abs: 0.39937  Tot: -0.18000 ]
SCF: Cycle:  2   F: -7.036760079002615   dF: -1.220e-01   |Residual|: 3.172e-01   |deigs|: 7.113e-01  t[s]:     31.29
	FillingsUpdate:  mu: -0.261479613  nElectrons: 3.000000  magneticMoment: [ Abs: 0.40246  Tot: -0.18000 ]
SCF: Cycle:  3   F: -7.037633457551874   dF: -8.734e-04   |Residual|: 1.868e-01   |deigs|: 7.319e-02  t[s]:     36.12
	FillingsUpdate:  mu: -0.240345339  nElectrons: 3.000000  magneticMoment: [ Abs: 0.43785  Tot: -0.18000 ]
SCF: Cycle:  4   F: -7.035148198933477   dF: +2.485e-03   |Residual|: 7.688e-02   |deigs|: 2.231e-02  t[s]:     41.06
	FillingsUpdate:  mu: -0.226874523  nElectrons: 3.000000  magneticMoment: [ Abs: 0.41230  Tot: -0.18000 ]
SCF: Cycle:  5   F: -7.036326636785696   dF: -1.178e-03   |Residual|: 1.262e-01   |deigs|: 1.269e-02  t[s]:     46.11
	FillingsUpdate:  mu: -0.199119226  nElectrons: 3.000000  magneticMoment: [ Abs: 0.37786  Tot: -0.18000 ]
SCF: Cycle:  6   F: -7.040525528483258   dF: -4.199e-03   |Residual|: 3.980e-02   |deigs|: 6.585e-02  t[s]:     51.18
	FillingsUpdate:  mu: -0.178685533  nElectrons: 3.000000  magneticMoment: [ Abs: 0.28967  Tot: -0.18000 ]
SCF: Cycle:  7   F: -7.042481409997448   dF: -1.956e-03   |Residual|: 1.086e-01   |deigs|: 6.752e-02  t[s]:     56.40
	FillingsUpdate:  mu: -0.183683836  nElectrons: 3.000000  magneticMoment: [ Abs: 0.21693  Tot: -0.18000 ]
SCF: Cycle:  8   F: -7.042839976795669   dF: -3.586e-04   |Residual|: 6.038e-02   |deigs|: 2.188e-02  t[s]:     61.78
	FillingsUpdate:  mu: -0.188615822  nElectrons: 3.000000  magneticMoment: [ Abs: 0.27825  Tot: -0.18000 ]
SCF: Cycle:  9   F: -7.043221245931102   dF: -3.813e-04   |Residual|: 7.499e-02   |deigs|: 5.592e-02  t[s]:     67.30
	FillingsUpdate:  mu: -0.178374497  nElectrons: 3.000000  magneticMoment: [ Abs: 0.32966  Tot: -0.18000 ]
SCF: Cycle: 10   F: -7.043168758553668   dF: +5.249e-05   |Residual|: 1.352e-01   |deigs|: 2.229e-02  t[s]:     72.94
	FillingsUpdate:  mu: -0.156772678  nElectrons: 3.000000  magneticMoment: [ Abs: 0.27921  Tot: -0.18000 ]
SCF: Cycle: 11   F: -7.044390789747443   dF: -1.222e-03   |Residual|: 2.578e-02   |deigs|: 7.614e-02  t[s]:     78.53
	FillingsUpdate:  mu: -0.150326275  nElectrons: 3.000000  magneticMoment: [ Abs: 0.24400  Tot: -0.18000 ]
SCF: Cycle: 12   F: -7.044459801772732   dF: -6.901e-05   |Residual|: 9.335e-03   |deigs|: 1.043e-02  t[s]:     84.10
	FillingsUpdate:  mu: -0.131860965  nElectrons: 3.000000  magneticMoment: [ Abs: 0.26260  Tot: -0.18000 ]
SCF: Cycle: 13   F: -7.044665662634259   dF: -2.059e-04   |Residual|: 7.506e-03   |deigs|: 1.887e-02  t[s]:     89.68
	FillingsUpdate:  mu: -0.124536007  nElectrons: 3.000000  magneticMoment: [ Abs: 0.25846  Tot: -0.18000 ]
SCF: Cycle: 14   F: -7.044722900378901   dF: -5.724e-05   |Residual|: 6.150e-03   |deigs|: 8.613e-03  t[s]:     95.20
	FillingsUpdate:  mu: -0.114402980  nElectrons: 3.000000  magneticMoment: [ Abs: 0.23865  Tot: -0.18000 ]
SCF: Cycle: 15   F: -7.044740874525758   dF: -1.797e-05   |Residual|: 4.564e-03   |deigs|: 1.160e-02  t[s]:    100.84
	FillingsUpdate:  mu: -0.111549403  nElectrons: 3.000000  magneticMoment: [ Abs: 0.22847  Tot: -0.18000 ]
SCF: Cycle: 16   F: -7.044769779641525   dF: -2.891e-05   |Residual|: 3.190e-03   |deigs|: 2.485e-03  t[s]:    106.39
	FillingsUpdate:  mu: -0.109027419  nElectrons: 3.000000  magneticMoment: [ Abs: 0.22443  Tot: -0.18000 ]
SCF: Cycle: 17   F: -7.044753689766854   dF: +1.609e-05   |Residual|: 2.448e-03   |deigs|: 2.214e-03  t[s]:    112.04
	FillingsUpdate:  mu: -0.107107827  nElectrons: 3.000000  magneticMoment: [ Abs: 0.21616  Tot: -0.18000 ]
SCF: Cycle: 18   F: -7.044750475625480   dF: +3.214e-06   |Residual|: 1.763e-03   |deigs|: 2.078e-03  t[s]:    117.63
	FillingsUpdate:  mu: -0.105783515  nElectrons: 3.000000  magneticMoment: [ Abs: 0.20979  Tot: -0.18000 ]
SCF: Cycle: 19   F: -7.044775485742033   dF: -2.501e-05   |Residual|: 1.175e-03   |deigs|: 1.387e-03  t[s]:    123.19
	FillingsUpdate:  mu: -0.105501927  nElectrons: 3.000000  magneticMoment: [ Abs: 0.20114  Tot: -0.18000 ]
SCF: Cycle: 20   F: -7.044798468484682   dF: -2.298e-05   |Residual|: 8.884e-04   |deigs|: 3.389e-04  t[s]:    128.75
	FillingsUpdate:  mu: -0.105309391  nElectrons: 3.000000  magneticMoment: [ Abs: 0.19425  Tot: -0.18000 ]
SCF: Cycle: 21   F: -7.044811152855128   dF: -1.268e-05   |Residual|: 6.490e-04   |deigs|: 3.324e-04  t[s]:    134.36
	FillingsUpdate:  mu: -0.104966131  nElectrons: 3.000000  magneticMoment: [ Abs: 0.19045  Tot: -0.18000 ]
SCF: Cycle: 22   F: -7.044819999214734   dF: -8.846e-06   |Residual|: 5.034e-04   |deigs|: 4.220e-04  t[s]:    139.94
	FillingsUpdate:  mu: -0.104879651  nElectrons: 3.000000  magneticMoment: [ Abs: 0.18707  Tot: -0.18000 ]
SCF: Cycle: 23   F: -7.044825309151739   dF: -5.310e-06   |Residual|: 3.633e-04   |deigs|: 1.590e-04  t[s]:    145.56
	FillingsUpdate:  mu: -0.104786719  nElectrons: 3.000000  magneticMoment: [ Abs: 0.18533  Tot: -0.18000 ]
SCF: Cycle: 24   F: -7.044828144910317   dF: -2.836e-06   |Residual|: 2.302e-04   |deigs|: 1.495e-04  t[s]:    151.10
	FillingsUpdate:  mu: -0.105001964  nElectrons: 3.000000  magneticMoment: [ Abs: 0.18337  Tot: -0.18000 ]
SCF: Cycle: 25   F: -7.044829416849006   dF: -1.272e-06   |Residual|: 1.527e-04   |deigs|: 2.959e-04  t[s]:    156.60
	FillingsUpdate:  mu: -0.105099036  nElectrons: 3.000000  magneticMoment: [ Abs: 0.18214  Tot: -0.18000 ]
SCF: Cycle: 26   F: -7.044830184377092   dF: -7.675e-07   |Residual|: 1.146e-04   |deigs|: 1.658e-04  t[s]:    162.27
	FillingsUpdate:  mu: -0.105183391  nElectrons: 3.000000  magneticMoment: [ Abs: 0.18159  Tot: -0.18000 ]
SCF: Cycle: 27   F: -7.044830560889251   dF: -3.765e-07   |Residual|: 8.907e-05   |deigs|: 1.359e-04  t[s]:    167.88
	FillingsUpdate:  mu: -0.105291139  nElectrons: 3.000000  magneticMoment: [ Abs: 0.18100  Tot: -0.18000 ]
SCF: Cycle: 28   F: -7.044830644883372   dF: -8.399e-08   |Residual|: 6.277e-05   |deigs|: 1.525e-04  t[s]:    173.43
	FillingsUpdate:  mu: -0.105333229  nElectrons: 3.000000  magneticMoment: [ Abs: 0.18062  Tot: -0.18000 ]
SCF: Cycle: 29   F: -7.044830652354003   dF: -7.471e-09   |Residual|: 4.181e-05   |deigs|: 7.587e-05  t[s]:    179.01
	FillingsUpdate:  mu: -0.105375528  nElectrons: 3.000000  magneticMoment: [ Abs: 0.18051  Tot: -0.18000 ]
SCF: Cycle: 30   F: -7.044830673573856   dF: -2.122e-08   |Residual|: 2.325e-05   |deigs|: 6.761e-05  t[s]:    184.69
	FillingsUpdate:  mu: -0.105403126  nElectrons: 3.000000  magneticMoment: [ Abs: 0.18028  Tot: -0.18000 ]
SCF: Cycle: 31   F: -7.044830670203792   dF: +3.370e-09   |Residual|: 1.688e-05   |deigs|: 5.230e-05  t[s]:    190.26
	FillingsUpdate:  mu: -0.105427645  nElectrons: 3.000000  magneticMoment: [ Abs: 0.18018  Tot: -0.18000 ]
SCF: Cycle: 32   F: -7.044830670535571   dF: -3.318e-10   |Residual|: 1.054e-05   |deigs|: 4.564e-05  t[s]:    195.86
	FillingsUpdate:  mu: -0.105437542  nElectrons: 3.000000  magneticMoment: [ Abs: 0.18014  Tot: -0.18000 ]
SCF: Cycle: 33   F: -7.044830677083009   dF: -6.547e-09   |Residual|: 8.116e-06   |deigs|: 3.376e-05  t[s]:    201.45
SCF: Converged (|Delta E|<1.000000e-08 for 2 iters).


# Ionic positions in lattice coordinates:
ion Li   0.000000000000000   0.000000000000000   0.000000000000000 0

# Forces in Lattice coordinates:
force Li   0.000000000000000  -0.000000000000000   0.000000000000000 0

# Energy components:
   Eewald =       -1.0026681166851483
       EH =        2.5460074517509992
     Eloc =       -8.2236847844036305
      Enl =       -3.6032748705502948
   Epulay =        0.0000051497655618
      Exc =       -1.5344506872530035
       KE =        4.7732355689879693
-------------------------------------
     Etot =       -7.0448302883875460
       TS =        0.0000003886954633
-------------------------------------
        F =       -7.0448306770830094

IonicMinimize: Iter:   0  F: -7.044830677083009  |grad|_K:  0.000e+00  t[s]:    201.70
IonicMinimize: Converged (|grad|_K<1.000000e-04).

#--- Lowdin population analysis ---
# oxidation-state Li +2.082
# magnetic-moments Li -0.167

End date and time: Sat Feb  5 22:59:45 2022  (Duration: 0-0:03:21.74)
Done!
