
*************** JDFTx 1.6.0 (git hash 42ebbcc2) ***************

Start date and time: Sat Feb  5 23:08:55 2022
Executable jdftx with command-line: -i Alkali.in
Running on hosts (process indices):  d-16-5-2 (0-18)
Divided in process groups (process indices):  0 (0)  1 (1)  2 (2)  3 (3)  4 (4)  5 (5)  6 (6)  7 (7)  8 (8)  9 (9)  10 (10)  11 (11)  12 (12)  13 (13)  14 (14)  15 (15)  16 (16)  17 (17)  18 (18)
Resource initialization completed at t[s]:      0.00
Run totals: 19 processes, 48 threads, 0 GPUs


Input parsed successfully to the following command list (including defaults):

basis kpoint-dependent
coords-type Lattice
core-overlap-check vector
coulomb-interaction Slab 001
davidson-band-ratio 1.1
dump End None
dump-name $INPUT.$VAR
elec-cutoff 20
elec-eigen-algo Davidson
elec-ex-corr gga-PBE
elec-initial-magnetization 0.480000 yes
elec-smearing Fermi 1e-05
electronic-minimize  \
	dirUpdateScheme      FletcherReeves \
	linminMethod         DirUpdateRecommended \
	nIterations          100 \
	history              15 \
	knormThreshold       0 \
	energyDiffThreshold  1e-08 \
	nEnergyDiff          2 \
	alphaTstart          1 \
	alphaTmin            1e-10 \
	updateTestStepSize   yes \
	alphaTreduceFactor   0.1 \
	alphaTincreaseFactor 3 \
	nAlphaAdjustMax      3 \
	wolfeEnergy          0.0001 \
	wolfeGradient        0.9 \
	fdTest               no
electronic-scf  \
	nIterations	10000 \
	energyDiffThreshold	1e-08 \
	residualThreshold	1e-07 \
	mixFraction	0.5 \
	qMetric	0.8 \
	history	10 \
	nEigSteps	2 \
	eigDiffThreshold	1e-08 \
	mixedVariable	Density \
	qKerker	0.8 \
	qKappa	-1 \
	verbose	no \
	mixFractionMag	1.5
exchange-regularization WignerSeitzTruncated
fluid None
fluid-ex-corr (null) lda-PZ
fluid-gummel-loop 10 1.000000e-05
fluid-minimize  \
	dirUpdateScheme      PolakRibiere \
	linminMethod         DirUpdateRecommended \
	nIterations          100 \
	history              15 \
	knormThreshold       0 \
	energyDiffThreshold  0 \
	nEnergyDiff          2 \
	alphaTstart          1 \
	alphaTmin            1e-10 \
	updateTestStepSize   yes \
	alphaTreduceFactor   0.1 \
	alphaTincreaseFactor 3 \
	nAlphaAdjustMax      3 \
	wolfeEnergy          0.0001 \
	wolfeGradient        0.9 \
	fdTest               no
fluid-solvent H2O 55.338 ScalarEOS \
	epsBulk 78.4 \
	pMol 0.92466 \
	epsInf 1.77 \
	Pvap 1.06736e-10 \
	sigmaBulk 4.62e-05 \
	Rvdw 2.61727 \
	Res 1.42 \
	tauNuc 343133 \
	poleEl 15 7 1
forces-output-coords Positions
ion Li   0.000000000000000   0.000000000000000   0.000000000000000 0
ion-species SG15/$ID_ONCV_PBE.upf
ion-width 0
ionic-minimize  \
	dirUpdateScheme      L-BFGS \
	linminMethod         DirUpdateRecommended \
	nIterations          0 \
	history              15 \
	knormThreshold       0.0001 \
	energyDiffThreshold  1e-06 \
	nEnergyDiff          2 \
	alphaTstart          1 \
	alphaTmin            1e-10 \
	updateTestStepSize   yes \
	alphaTreduceFactor   0.1 \
	alphaTincreaseFactor 3 \
	nAlphaAdjustMax      3 \
	wolfeEnergy          0.0001 \
	wolfeGradient        0.9 \
	fdTest               no
kpoint   0.000000000000   0.000000000000   0.000000000000  1.00000000000000
kpoint-folding 12 12 1 
latt-move-scale 1 1 1
latt-scale 4 4 1 
lattice  \
	   4.727486978767153   -2.363743489383575    0.000000000000000  \
	  -0.000000000000000    4.094123819672498    0.000000000000000  \
	   0.000000000000000    0.000000000000000   40.000000000000000 
lattice-minimize  \
	dirUpdateScheme      L-BFGS \
	linminMethod         DirUpdateRecommended \
	nIterations          0 \
	history              15 \
	knormThreshold       0 \
	energyDiffThreshold  1e-06 \
	nEnergyDiff          2 \
	alphaTstart          1 \
	alphaTmin            1e-10 \
	updateTestStepSize   yes \
	alphaTreduceFactor   0.1 \
	alphaTincreaseFactor 3 \
	nAlphaAdjustMax      3 \
	wolfeEnergy          0.0001 \
	wolfeGradient        0.9 \
	fdTest               no
lcao-params -1 1e-06 1e-05
pcm-variant GLSSA13
spintype z-spin
subspace-rotation-factor 1 yes
symmetries automatic
symmetry-threshold 0.0001



---------- Setting up symmetries ----------

Found 24 point-group symmetries of the bravais lattice
Found 24 space-group symmetries with basis
Applied RMS atom displacement 0 bohrs to make symmetries exact.

---------- Initializing the Grid ----------
R = 
[      18.9099     -9.45497            0  ]
[            0      16.3765            0  ]
[            0            0           40  ]
unit cell volume = 12387.1
G =
[   0.332269   0.191835         -0  ]
[          0   0.383671         -0  ]
[         -0         -0    0.15708  ]
Minimum fftbox size, Smin = [  80  80  164  ]
Chosen fftbox size, S = [  80  80  168  ]

---------- Exchange Correlation functional ----------
Initalized PBE GGA exchange.
Initalized PBE GGA correlation.

---------- Setting up pseudopotentials ----------
Width of ionic core gaussian charges (only for fluid interactions / plotting) set to 0

Reading pseudopotential file '/home/gridsan/aligho/DFT/build-Nov24/pseudopotentials/SG15/Li_ONCV_PBE.upf':
  'Li' pseudopotential, 'PBE' functional
  Generated using ONCVPSP code by D. R. Hamann
  Author: Martin Schlipf and Francois Gygi  Date: 150915.
  3 valence electrons, 2 orbitals, 4 projectors, 1328 radial grid points, with lMax = 1
  Transforming local potential to a uniform radial grid of dG=0.02 with 1489 points.
  Transforming nonlocal projectors to a uniform radial grid of dG=0.02 with 432 points.
    1S    l: 0   occupation:  2.0   eigenvalue: -1.905623
    2S    l: 0   occupation:  1.0   eigenvalue: -0.105624
  Transforming atomic orbitals to a uniform radial grid of dG=0.02 with 432 points.
  WARNING: large normalization error in atomic orbital 1s (integral: 0.000000).
  Core radius for overlap checks: 1.63 bohrs.
  Reading pulay file /home/gridsan/aligho/DFT/build-Nov24/pseudopotentials/SG15/Li_ONCV_PBE.pulay ... using dE_dnG = -1.230239e-02 computed for Ecut = 20.

Initialized 1 species with 1 total atoms.

Folded 1 k-points by 12x12x1 to 144 k-points.

---------- Setting up k-points, bands, fillings ----------
Reduced to 19 k-points under symmetry. 
Computing the number of bands and number of electrons
Calculating initial fillings.
nElectrons:   3.000000   nBands: 3   nStates: 38

----- Setting up reduced wavefunction bases (one per k-point) -----
average nbasis = 52924.021 , ideal nbasis = 52918.836

---------- Setting up coulomb interaction ----------
Initialized slab truncation along lattice direction 001

---------- Setting up 2D ewald sum ----------
Optimum gaussian width for ewald sums = 10.498040 bohr.
Real space sums over 289 unit cells with max indices [  8  8  0  ]
Reciprocal space sums over 81 terms with max indices [  4  4  0  ]

---------- Allocating electronic variables ----------
Initializing wave functions:  linear combination of atomic orbitals
Note: number of bands (3) exceeds available atomic orbitals (2)
Li pseudo-atom occupations:   s ( 2 1 )
	FillingsUpdate:  mu: +0.358573630  nElectrons: 3.000000  magneticMoment: [ Abs: 0.48000  Tot: +0.48000 ]
LCAOMinimize: Iter:   0  F: -1.3094259001676349  |grad|_K:  3.999e-05  alpha:  1.000e+00
	FillingsUpdate:  mu: +0.358573149  nElectrons: 3.000000  magneticMoment: [ Abs: 0.48000  Tot: +0.48000 ]
LCAOMinimize: Iter:   1  F: -1.3094261896365584  |grad|_K:  9.893e-08  alpha:  1.059e+00  linmin: -1.061e-02  cgtest:  2.823e-02  t[s]:     12.74
LCAOMinimize: Encountered beta<0, resetting CG.
	FillingsUpdate:  mu: +0.358573149  nElectrons: 3.000000  magneticMoment: [ Abs: 0.48000  Tot: +0.48000 ]
LCAOMinimize: Iter:   2  F: -1.3094261896394970  |grad|_K:  8.518e-09  alpha:  9.609e-01  linmin: -3.401e-02  cgtest:  8.725e-01  t[s]:     16.03
LCAOMinimize: Encountered beta<0, resetting CG.
LCAOMinimize: Converged (|Delta F|<1.000000e-06 for 2 iters).


---- Citations for features of the code used in this run ----

   Software package:
      R. Sundararaman, K. Letchworth-Weaver, K.A. Schwarz, D. Gunceler, Y. Ozhabes and T.A. Arias, 'JDFTx: software for joint density-functional theory', SoftwareX 6, 278 (2017)

   gga-PBE exchange-correlation functional:
      J.P. Perdew, K. Burke and M. Ernzerhof, Phys. Rev. Lett. 77, 3865 (1996)

   Pseudopotentials:
      M Schlipf and F Gygi, Comput. Phys. Commun. 196, 36 (2015)

   Truncated Coulomb potentials:
      R. Sundararaman and T.A. Arias, Phys. Rev. B 87, 165122 (2013)

This list may not be complete. Please suggest additional citations or
report any other bugs at https://github.com/shankar1729/jdftx/issues

Initialization completed successfully at t[s]:     16.17


-------- Electronic minimization -----------
Will mix electronic density at each iteration.
	FillingsUpdate:  mu: +0.358573149  nElectrons: 3.000000  magneticMoment: [ Abs: 0.48000  Tot: +0.48000 ]
	FillingsUpdate:  mu: -0.612452414  nElectrons: 3.000000  magneticMoment: [ Abs: 0.48000  Tot: +0.48000 ]
SCF: Cycle:  0   F: -6.873704910469601   dF: -5.564e+00   |Residual|: 1.230e+00   |deigs|: 4.155e+00  t[s]:     21.85
	FillingsUpdate:  mu: -0.487547880  nElectrons: 3.000000  magneticMoment: [ Abs: 0.82463  Tot: +0.48000 ]
SCF: Cycle:  1   F: -6.916735082292527   dF: -4.303e-02   |Residual|: 7.616e-01   |deigs|: 2.767e-01  t[s]:     26.39
	FillingsUpdate:  mu: -0.267731756  nElectrons: 3.000000  magneticMoment: [ Abs: 1.06275  Tot: +0.48000 ]
SCF: Cycle:  2   F: -7.036872598255223   dF: -1.201e-01   |Residual|: 3.198e-01   |deigs|: 7.043e-01  t[s]:     31.07
	FillingsUpdate:  mu: -0.276850190  nElectrons: 3.000000  magneticMoment: [ Abs: 0.97063  Tot: +0.48000 ]
SCF: Cycle:  3   F: -7.037200490227536   dF: -3.279e-04   |Residual|: 1.839e-01   |deigs|: 7.335e-02  t[s]:     35.87
	FillingsUpdate:  mu: -0.231877774  nElectrons: 3.000000  magneticMoment: [ Abs: 0.86264  Tot: +0.48000 ]
SCF: Cycle:  4   F: -7.038568037700696   dF: -1.368e-03   |Residual|: 5.443e-02   |deigs|: 3.743e-02  t[s]:     40.71
	FillingsUpdate:  mu: -0.220362521  nElectrons: 3.000000  magneticMoment: [ Abs: 0.86159  Tot: +0.48000 ]
SCF: Cycle:  5   F: -7.039538018278855   dF: -9.700e-04   |Residual|: 1.012e-01   |deigs|: 1.215e-02  t[s]:     45.66
	FillingsUpdate:  mu: -0.197087076  nElectrons: 3.000000  magneticMoment: [ Abs: 0.71726  Tot: +0.48000 ]
SCF: Cycle:  6   F: -7.042728626327829   dF: -3.191e-03   |Residual|: 2.153e-02   |deigs|: 6.111e-02  t[s]:     50.78
	FillingsUpdate:  mu: -0.182503023  nElectrons: 3.000000  magneticMoment: [ Abs: 0.60393  Tot: +0.48000 ]
SCF: Cycle:  7   F: -7.044416093144113   dF: -1.687e-03   |Residual|: 8.399e-02   |deigs|: 4.814e-02  t[s]:     55.96
	FillingsUpdate:  mu: -0.184664790  nElectrons: 3.000000  magneticMoment: [ Abs: 0.56838  Tot: +0.48000 ]
SCF: Cycle:  8   F: -7.044768486094566   dF: -3.524e-04   |Residual|: 5.019e-02   |deigs|: 1.293e-02  t[s]:     61.28
	FillingsUpdate:  mu: -0.184539685  nElectrons: 3.000000  magneticMoment: [ Abs: 0.55197  Tot: +0.48000 ]
SCF: Cycle:  9   F: -7.045506106704914   dF: -7.376e-04   |Residual|: 7.817e-02   |deigs|: 4.737e-02  t[s]:     66.76
	FillingsUpdate:  mu: -0.166123491  nElectrons: 3.000000  magneticMoment: [ Abs: 0.51537  Tot: +0.48000 ]
SCF: Cycle: 10   F: -7.046187757150081   dF: -6.817e-04   |Residual|: 1.335e-02   |deigs|: 3.886e-02  t[s]:     72.30
	FillingsUpdate:  mu: -0.152666830  nElectrons: 3.000000  magneticMoment: [ Abs: 0.57204  Tot: +0.48000 ]
SCF: Cycle: 11   F: -7.046308024754404   dF: -1.203e-04   |Residual|: 3.825e-02   |deigs|: 2.134e-02  t[s]:     77.85
	FillingsUpdate:  mu: -0.150206089  nElectrons: 3.000000  magneticMoment: [ Abs: 0.55567  Tot: +0.48000 ]
SCF: Cycle: 12   F: -7.046433179062674   dF: -1.252e-04   |Residual|: 1.154e-02   |deigs|: 1.418e-02  t[s]:     83.42
	FillingsUpdate:  mu: -0.128761097  nElectrons: 3.000000  magneticMoment: [ Abs: 0.61449  Tot: +0.48000 ]
SCF: Cycle: 13   F: -7.046590484400374   dF: -1.573e-04   |Residual|: 6.709e-03   |deigs|: 2.375e-02  t[s]:     88.93
	FillingsUpdate:  mu: -0.122542094  nElectrons: 3.000000  magneticMoment: [ Abs: 0.61372  Tot: +0.48000 ]
SCF: Cycle: 14   F: -7.046605771666496   dF: -1.529e-05   |Residual|: 5.799e-03   |deigs|: 7.180e-03  t[s]:     94.42
	FillingsUpdate:  mu: -0.115317549  nElectrons: 3.000000  magneticMoment: [ Abs: 0.58733  Tot: +0.48000 ]
SCF: Cycle: 15   F: -7.046597592174468   dF: +8.179e-06   |Residual|: 4.101e-03   |deigs|: 6.391e-03  t[s]:    100.00
	FillingsUpdate:  mu: -0.111320859  nElectrons: 3.000000  magneticMoment: [ Abs: 0.57378  Tot: +0.48000 ]
SCF: Cycle: 16   F: -7.046621918591346   dF: -2.433e-05   |Residual|: 3.318e-03   |deigs|: 4.155e-03  t[s]:    105.57
	FillingsUpdate:  mu: -0.108258392  nElectrons: 3.000000  magneticMoment: [ Abs: 0.54201  Tot: +0.48000 ]
SCF: Cycle: 17   F: -7.046610684517124   dF: +1.123e-05   |Residual|: 2.355e-03   |deigs|: 2.882e-03  t[s]:    111.04
	FillingsUpdate:  mu: -0.106361480  nElectrons: 3.000000  magneticMoment: [ Abs: 0.53006  Tot: +0.48000 ]
SCF: Cycle: 18   F: -7.046641414392210   dF: -3.073e-05   |Residual|: 1.747e-03   |deigs|: 2.269e-03  t[s]:    116.56
	FillingsUpdate:  mu: -0.105098099  nElectrons: 3.000000  magneticMoment: [ Abs: 0.51751  Tot: +0.48000 ]
SCF: Cycle: 19   F: -7.046669002219785   dF: -2.759e-05   |Residual|: 1.357e-03   |deigs|: 1.767e-03  t[s]:    122.13
	FillingsUpdate:  mu: -0.103778307  nElectrons: 3.000000  magneticMoment: [ Abs: 0.50888  Tot: +0.48000 ]
SCF: Cycle: 20   F: -7.046698372806051   dF: -2.937e-05   |Residual|: 9.480e-04   |deigs|: 1.747e-03  t[s]:    127.64
	FillingsUpdate:  mu: -0.103029182  nElectrons: 3.000000  magneticMoment: [ Abs: 0.50207  Tot: +0.48000 ]
SCF: Cycle: 21   F: -7.046711960199755   dF: -1.359e-05   |Residual|: 7.039e-04   |deigs|: 8.882e-04  t[s]:    133.11
	FillingsUpdate:  mu: -0.102944182  nElectrons: 3.000000  magneticMoment: [ Abs: 0.49627  Tot: +0.48000 ]
SCF: Cycle: 22   F: -7.046721981537837   dF: -1.002e-05   |Residual|: 5.018e-04   |deigs|: 2.713e-04  t[s]:    138.56
	FillingsUpdate:  mu: -0.103240381  nElectrons: 3.000000  magneticMoment: [ Abs: 0.49016  Tot: +0.48000 ]
SCF: Cycle: 23   F: -7.046728685331765   dF: -6.704e-06   |Residual|: 3.422e-04   |deigs|: 5.541e-04  t[s]:    144.08
	FillingsUpdate:  mu: -0.103547453  nElectrons: 3.000000  magneticMoment: [ Abs: 0.48537  Tot: +0.48000 ]
SCF: Cycle: 24   F: -7.046730317038508   dF: -1.632e-06   |Residual|: 2.541e-04   |deigs|: 4.112e-04  t[s]:    149.62
	FillingsUpdate:  mu: -0.103734052  nElectrons: 3.000000  magneticMoment: [ Abs: 0.48295  Tot: +0.48000 ]
SCF: Cycle: 25   F: -7.046731709681048   dF: -1.393e-06   |Residual|: 1.391e-04   |deigs|: 2.517e-04  t[s]:    155.17
	FillingsUpdate:  mu: -0.103781551  nElectrons: 3.000000  magneticMoment: [ Abs: 0.48212  Tot: +0.48000 ]
SCF: Cycle: 26   F: -7.046732021417260   dF: -3.117e-07   |Residual|: 9.254e-05   |deigs|: 1.146e-04  t[s]:    160.72
	FillingsUpdate:  mu: -0.103816382  nElectrons: 3.000000  magneticMoment: [ Abs: 0.48108  Tot: +0.48000 ]
SCF: Cycle: 27   F: -7.046732095366183   dF: -7.395e-08   |Residual|: 5.896e-05   |deigs|: 9.893e-05  t[s]:    166.29
	FillingsUpdate:  mu: -0.103818310  nElectrons: 3.000000  magneticMoment: [ Abs: 0.48068  Tot: +0.48000 ]
SCF: Cycle: 28   F: -7.046732126025145   dF: -3.066e-08   |Residual|: 4.222e-05   |deigs|: 6.821e-05  t[s]:    171.78
	FillingsUpdate:  mu: -0.103815851  nElectrons: 3.000000  magneticMoment: [ Abs: 0.48043  Tot: +0.48000 ]
SCF: Cycle: 29   F: -7.046732135660076   dF: -9.635e-09   |Residual|: 3.416e-05   |deigs|: 5.338e-05  t[s]:    177.32
	FillingsUpdate:  mu: -0.103815953  nElectrons: 3.000000  magneticMoment: [ Abs: 0.48022  Tot: +0.48000 ]
SCF: Cycle: 30   F: -7.046732153779445   dF: -1.812e-08   |Residual|: 2.574e-05   |deigs|: 4.200e-05  t[s]:    182.83
	FillingsUpdate:  mu: -0.103810932  nElectrons: 3.000000  magneticMoment: [ Abs: 0.48009  Tot: +0.48000 ]
SCF: Cycle: 31   F: -7.046732156824137   dF: -3.045e-09   |Residual|: 2.037e-05   |deigs|: 3.374e-05  t[s]:    188.38
	FillingsUpdate:  mu: -0.103814362  nElectrons: 3.000000  magneticMoment: [ Abs: 0.48003  Tot: +0.48000 ]
SCF: Cycle: 32   F: -7.046732180651571   dF: -2.383e-08   |Residual|: 1.479e-05   |deigs|: 2.887e-05  t[s]:    193.88
	FillingsUpdate:  mu: -0.103820535  nElectrons: 3.000000  magneticMoment: [ Abs: 0.48001  Tot: +0.48000 ]
SCF: Cycle: 33   F: -7.046732171631963   dF: +9.020e-09   |Residual|: 1.126e-05   |deigs|: 2.571e-05  t[s]:    199.43
	FillingsUpdate:  mu: -0.103827661  nElectrons: 3.000000  magneticMoment: [ Abs: 0.48002  Tot: +0.48000 ]
SCF: Cycle: 34   F: -7.046732182124935   dF: -1.049e-08   |Residual|: 9.168e-06   |deigs|: 2.408e-05  t[s]:    204.88
	FillingsUpdate:  mu: -0.103832690  nElectrons: 3.000000  magneticMoment: [ Abs: 0.48002  Tot: +0.48000 ]
SCF: Cycle: 35   F: -7.046732181373179   dF: +7.518e-10   |Residual|: 7.806e-06   |deigs|: 2.171e-05  t[s]:    210.34
	FillingsUpdate:  mu: -0.103837301  nElectrons: 3.000000  magneticMoment: [ Abs: 0.48001  Tot: +0.48000 ]
SCF: Cycle: 36   F: -7.046732176996381   dF: +4.377e-09   |Residual|: 6.767e-06   |deigs|: 2.009e-05  t[s]:    215.84
	FillingsUpdate:  mu: -0.103841537  nElectrons: 3.000000  magneticMoment: [ Abs: 0.48000  Tot: +0.48000 ]
SCF: Cycle: 37   F: -7.046732167202023   dF: +9.794e-09   |Residual|: 5.806e-06   |deigs|: 1.899e-05  t[s]:    221.33
	FillingsUpdate:  mu: -0.103844727  nElectrons: 3.000000  magneticMoment: [ Abs: 0.48001  Tot: +0.48000 ]
SCF: Cycle: 38   F: -7.046732191083873   dF: -2.388e-08   |Residual|: 3.849e-06   |deigs|: 1.768e-05  t[s]:    226.92
	FillingsUpdate:  mu: -0.103846445  nElectrons: 3.000000  magneticMoment: [ Abs: 0.48001  Tot: +0.48000 ]
SCF: Cycle: 39   F: -7.046732192555587   dF: -1.472e-09   |Residual|: 3.047e-06   |deigs|: 1.710e-05  t[s]:    232.48
	FillingsUpdate:  mu: -0.103847906  nElectrons: 3.000000  magneticMoment: [ Abs: 0.48000  Tot: +0.48000 ]
SCF: Cycle: 40   F: -7.046732195804617   dF: -3.249e-09   |Residual|: 2.372e-06   |deigs|: 1.643e-05  t[s]:    237.95
SCF: Converged (|Delta E|<1.000000e-08 for 2 iters).


# Ionic positions in lattice coordinates:
ion Li   0.000000000000000   0.000000000000000   0.000000000000000 0

# Forces in Lattice coordinates:
force Li  -0.000000000000000   0.000000000000000   0.000000000000000 0

# Energy components:
   Eewald =       -1.0026681166851483
       EH =        2.5509710895729132
     Eloc =       -8.2298853952570550
      Enl =       -3.6040374264442741
   Epulay =        0.0000051497655618
      Exc =       -1.5375577568425935
       KE =        4.7764419545258212
-------------------------------------
     Etot =       -7.0467305013647747
       TS =        0.0000016944398425
-------------------------------------
        F =       -7.0467321958046174

IonicMinimize: Iter:   0  F: -7.046732195804617  |grad|_K:  0.000e+00  t[s]:    238.20
IonicMinimize: Converged (|grad|_K<1.000000e-04).

#--- Lowdin population analysis ---
# oxidation-state Li +2.076
# magnetic-moments Li +0.445

End date and time: Sat Feb  5 23:12:53 2022  (Duration: 0-0:03:58.23)
Done!
