
*************** JDFTx 1.6.0 (git hash 42ebbcc2) ***************

Start date and time: Sat Feb  5 22:48:48 2022
Executable jdftx with command-line: -i Alkali.in
Running on hosts (process indices):  d-3-7-1 (0-18)
Divided in process groups (process indices):  0 (0)  1 (1)  2 (2)  3 (3)  4 (4)  5 (5)  6 (6)  7 (7)  8 (8)  9 (9)  10 (10)  11 (11)  12 (12)  13 (13)  14 (14)  15 (15)  16 (16)  17 (17)  18 (18)
Resource initialization completed at t[s]:      0.00
Run totals: 19 processes, 48 threads, 0 GPUs


Input parsed successfully to the following command list (including defaults):

basis kpoint-dependent
coords-type Lattice
core-overlap-check vector
coulomb-interaction Slab 001
davidson-band-ratio 1.1
dump End None
dump-name $INPUT.$VAR
elec-cutoff 20
elec-eigen-algo Davidson
elec-ex-corr gga-PBE
elec-initial-magnetization -1.000000 yes
elec-smearing Fermi 1e-05
electronic-minimize  \
	dirUpdateScheme      FletcherReeves \
	linminMethod         DirUpdateRecommended \
	nIterations          100 \
	history              15 \
	knormThreshold       0 \
	energyDiffThreshold  1e-08 \
	nEnergyDiff          2 \
	alphaTstart          1 \
	alphaTmin            1e-10 \
	updateTestStepSize   yes \
	alphaTreduceFactor   0.1 \
	alphaTincreaseFactor 3 \
	nAlphaAdjustMax      3 \
	wolfeEnergy          0.0001 \
	wolfeGradient        0.9 \
	fdTest               no
electronic-scf  \
	nIterations	10000 \
	energyDiffThreshold	1e-08 \
	residualThreshold	1e-07 \
	mixFraction	0.5 \
	qMetric	0.8 \
	history	10 \
	nEigSteps	2 \
	eigDiffThreshold	1e-08 \
	mixedVariable	Density \
	qKerker	0.8 \
	qKappa	-1 \
	verbose	no \
	mixFractionMag	1.5
exchange-regularization WignerSeitzTruncated
fluid None
fluid-ex-corr (null) lda-PZ
fluid-gummel-loop 10 1.000000e-05
fluid-minimize  \
	dirUpdateScheme      PolakRibiere \
	linminMethod         DirUpdateRecommended \
	nIterations          100 \
	history              15 \
	knormThreshold       0 \
	energyDiffThreshold  0 \
	nEnergyDiff          2 \
	alphaTstart          1 \
	alphaTmin            1e-10 \
	updateTestStepSize   yes \
	alphaTreduceFactor   0.1 \
	alphaTincreaseFactor 3 \
	nAlphaAdjustMax      3 \
	wolfeEnergy          0.0001 \
	wolfeGradient        0.9 \
	fdTest               no
fluid-solvent H2O 55.338 ScalarEOS \
	epsBulk 78.4 \
	pMol 0.92466 \
	epsInf 1.77 \
	Pvap 1.06736e-10 \
	sigmaBulk 4.62e-05 \
	Rvdw 2.61727 \
	Res 1.42 \
	tauNuc 343133 \
	poleEl 15 7 1
forces-output-coords Positions
ion Li   0.000000000000000   0.000000000000000   0.000000000000000 0
ion-species SG15/$ID_ONCV_PBE.upf
ion-width 0
ionic-minimize  \
	dirUpdateScheme      L-BFGS \
	linminMethod         DirUpdateRecommended \
	nIterations          0 \
	history              15 \
	knormThreshold       0.0001 \
	energyDiffThreshold  1e-06 \
	nEnergyDiff          2 \
	alphaTstart          1 \
	alphaTmin            1e-10 \
	updateTestStepSize   yes \
	alphaTreduceFactor   0.1 \
	alphaTincreaseFactor 3 \
	nAlphaAdjustMax      3 \
	wolfeEnergy          0.0001 \
	wolfeGradient        0.9 \
	fdTest               no
kpoint   0.000000000000   0.000000000000   0.000000000000  1.00000000000000
kpoint-folding 12 12 1 
latt-move-scale 1 1 1
latt-scale 4 4 1 
lattice  \
	   4.727486978767153   -2.363743489383575    0.000000000000000  \
	  -0.000000000000000    4.094123819672498    0.000000000000000  \
	   0.000000000000000    0.000000000000000   40.000000000000000 
lattice-minimize  \
	dirUpdateScheme      L-BFGS \
	linminMethod         DirUpdateRecommended \
	nIterations          0 \
	history              15 \
	knormThreshold       0 \
	energyDiffThreshold  1e-06 \
	nEnergyDiff          2 \
	alphaTstart          1 \
	alphaTmin            1e-10 \
	updateTestStepSize   yes \
	alphaTreduceFactor   0.1 \
	alphaTincreaseFactor 3 \
	nAlphaAdjustMax      3 \
	wolfeEnergy          0.0001 \
	wolfeGradient        0.9 \
	fdTest               no
lcao-params -1 1e-06 1e-05
pcm-variant GLSSA13
spintype z-spin
subspace-rotation-factor 1 yes
symmetries automatic
symmetry-threshold 0.0001



---------- Setting up symmetries ----------

Found 24 point-group symmetries of the bravais lattice
Found 24 space-group symmetries with basis
Applied RMS atom displacement 0 bohrs to make symmetries exact.

---------- Initializing the Grid ----------
R = 
[      18.9099     -9.45497            0  ]
[            0      16.3765            0  ]
[            0            0           40  ]
unit cell volume = 12387.1
G =
[   0.332269   0.191835         -0  ]
[          0   0.383671         -0  ]
[         -0         -0    0.15708  ]
Minimum fftbox size, Smin = [  80  80  164  ]
Chosen fftbox size, S = [  80  80  168  ]

---------- Exchange Correlation functional ----------
Initalized PBE GGA exchange.
Initalized PBE GGA correlation.

---------- Setting up pseudopotentials ----------
Width of ionic core gaussian charges (only for fluid interactions / plotting) set to 0

Reading pseudopotential file '/home/gridsan/aligho/DFT/build-Nov24/pseudopotentials/SG15/Li_ONCV_PBE.upf':
  'Li' pseudopotential, 'PBE' functional
  Generated using ONCVPSP code by D. R. Hamann
  Author: Martin Schlipf and Francois Gygi  Date: 150915.
  3 valence electrons, 2 orbitals, 4 projectors, 1328 radial grid points, with lMax = 1
  Transforming local potential to a uniform radial grid of dG=0.02 with 1489 points.
  Transforming nonlocal projectors to a uniform radial grid of dG=0.02 with 432 points.
    1S    l: 0   occupation:  2.0   eigenvalue: -1.905623
    2S    l: 0   occupation:  1.0   eigenvalue: -0.105624
  Transforming atomic orbitals to a uniform radial grid of dG=0.02 with 432 points.
  WARNING: large normalization error in atomic orbital 1s (integral: 0.000000).
  Core radius for overlap checks: 1.63 bohrs.
  Reading pulay file /home/gridsan/aligho/DFT/build-Nov24/pseudopotentials/SG15/Li_ONCV_PBE.pulay ... using dE_dnG = -1.230239e-02 computed for Ecut = 20.

Initialized 1 species with 1 total atoms.

Folded 1 k-points by 12x12x1 to 144 k-points.

---------- Setting up k-points, bands, fillings ----------
Reduced to 19 k-points under symmetry. 
Computing the number of bands and number of electrons
Calculating initial fillings.
nElectrons:   3.000000   nBands: 3   nStates: 38

----- Setting up reduced wavefunction bases (one per k-point) -----
average nbasis = 52924.021 , ideal nbasis = 52918.836

---------- Setting up coulomb interaction ----------
Initialized slab truncation along lattice direction 001

---------- Setting up 2D ewald sum ----------
Optimum gaussian width for ewald sums = 10.498040 bohr.
Real space sums over 289 unit cells with max indices [  8  8  0  ]
Reciprocal space sums over 81 terms with max indices [  4  4  0  ]

---------- Allocating electronic variables ----------
Initializing wave functions:  linear combination of atomic orbitals
Note: number of bands (3) exceeds available atomic orbitals (2)
Li pseudo-atom occupations:   s ( 2 1 )
	FillingsUpdate:  mu: -0.090717888  nElectrons: 3.000000  magneticMoment: [ Abs: 1.00000  Tot: -1.00000 ]
LCAOMinimize: Iter:   0  F: -1.3055085722222246  |grad|_K:  3.983e-05  alpha:  1.000e+00
	FillingsUpdate:  mu: -0.090721471  nElectrons: 3.000000  magneticMoment: [ Abs: 1.00000  Tot: -1.00000 ]
LCAOMinimize: Iter:   1  F: -1.3055088595653022  |grad|_K:  1.218e-07  alpha:  1.059e+00  linmin: -1.842e-02  cgtest:  2.151e-02  t[s]:     12.69
LCAOMinimize: Encountered beta<0, resetting CG.
	FillingsUpdate:  mu: -0.090721468  nElectrons: 3.000000  magneticMoment: [ Abs: 1.00000  Tot: -1.00000 ]
LCAOMinimize: Iter:   2  F: -1.3055088595680813  |grad|_K:  1.538e-09  alpha:  1.084e+00  linmin: -3.346e-01  cgtest:  9.368e-01  t[s]:     15.91
LCAOMinimize: Encountered beta<0, resetting CG.
LCAOMinimize: Converged (|Delta F|<1.000000e-06 for 2 iters).


---- Citations for features of the code used in this run ----

   Software package:
      R. Sundararaman, K. Letchworth-Weaver, K.A. Schwarz, D. Gunceler, Y. Ozhabes and T.A. Arias, 'JDFTx: software for joint density-functional theory', SoftwareX 6, 278 (2017)

   gga-PBE exchange-correlation functional:
      J.P. Perdew, K. Burke and M. Ernzerhof, Phys. Rev. Lett. 77, 3865 (1996)

   Pseudopotentials:
      M Schlipf and F Gygi, Comput. Phys. Commun. 196, 36 (2015)

   Truncated Coulomb potentials:
      R. Sundararaman and T.A. Arias, Phys. Rev. B 87, 165122 (2013)

This list may not be complete. Please suggest additional citations or
report any other bugs at https://github.com/shankar1729/jdftx/issues

Initialization completed successfully at t[s]:     16.05


-------- Electronic minimization -----------
Will mix electronic density at each iteration.
	FillingsUpdate:  mu: -0.090721468  nElectrons: 3.000000  magneticMoment: [ Abs: 1.00000  Tot: -1.00000 ]
	FillingsUpdate:  mu: -0.800000000  nElectrons: 3.000000  magneticMoment: [ Abs: 1.00000  Tot: -1.00000 ]
SCF: Cycle:  0   F: -6.893164126445527   dF: -5.588e+00   |Residual|: 1.229e+00   |deigs|: 4.154e+00  t[s]:     21.71
	FillingsUpdate:  mu: -0.800000000  nElectrons: 3.000000  magneticMoment: [ Abs: 1.72713  Tot: -1.00000 ]
SCF: Cycle:  1   F: -6.914068194589618   dF: -2.090e-02   |Residual|: 7.673e-01   |deigs|: 2.756e-01  t[s]:     26.26
	FillingsUpdate:  mu: -0.400000000  nElectrons: 3.000000  magneticMoment: [ Abs: 2.23479  Tot: -1.00000 ]
SCF: Cycle:  2   F: -7.040780242123224   dF: -1.267e-01   |Residual|: 3.253e-01   |deigs|: 7.042e-01  t[s]:     30.97
	FillingsUpdate:  mu: -0.400000000  nElectrons: 3.000000  magneticMoment: [ Abs: 1.91391  Tot: -1.00000 ]
SCF: Cycle:  3   F: -7.041226971399969   dF: -4.467e-04   |Residual|: 1.434e-01   |deigs|: 9.653e-02  t[s]:     35.80
	FillingsUpdate:  mu: -0.385649522  nElectrons: 3.000000  magneticMoment: [ Abs: 1.67401  Tot: -1.00000 ]
SCF: Cycle:  4   F: -7.047570660617908   dF: -6.344e-03   |Residual|: 3.629e-02   |deigs|: 5.480e-02  t[s]:     40.76
	FillingsUpdate:  mu: -0.200000000  nElectrons: 3.000000  magneticMoment: [ Abs: 1.61899  Tot: -1.00000 ]
SCF: Cycle:  5   F: -7.049345830190403   dF: -1.775e-03   |Residual|: 4.992e-02   |deigs|: 2.118e-02  t[s]:     45.82
	FillingsUpdate:  mu: -0.197141471  nElectrons: 3.000000  magneticMoment: [ Abs: 1.38849  Tot: -1.00000 ]
SCF: Cycle:  6   F: -7.051334073376857   dF: -1.988e-03   |Residual|: 3.406e-02   |deigs|: 4.275e-02  t[s]:     50.95
	FillingsUpdate:  mu: -0.179636475  nElectrons: 3.000000  magneticMoment: [ Abs: 1.27556  Tot: -1.00000 ]
SCF: Cycle:  7   F: -7.052871726717084   dF: -1.538e-03   |Residual|: 2.359e-02   |deigs|: 3.558e-02  t[s]:     56.20
	FillingsUpdate:  mu: -0.200000000  nElectrons: 3.000000  magneticMoment: [ Abs: 1.19444  Tot: -1.00000 ]
SCF: Cycle:  8   F: -7.053621689181760   dF: -7.500e-04   |Residual|: 3.044e-02   |deigs|: 8.379e-03  t[s]:     61.58
	FillingsUpdate:  mu: -0.175786449  nElectrons: 3.000000  magneticMoment: [ Abs: 1.13497  Tot: -1.00000 ]
SCF: Cycle:  9   F: -7.054150144969665   dF: -5.285e-04   |Residual|: 1.261e-02   |deigs|: 1.130e-02  t[s]:     67.04
	FillingsUpdate:  mu: -0.162434896  nElectrons: 3.000000  magneticMoment: [ Abs: 1.06875  Tot: -1.00000 ]
SCF: Cycle: 10   F: -7.054419813207379   dF: -2.697e-04   |Residual|: 3.567e-02   |deigs|: 1.434e-02  t[s]:     72.67
	FillingsUpdate:  mu: -0.152632455  nElectrons: 3.000000  magneticMoment: [ Abs: 1.07112  Tot: -1.00000 ]
SCF: Cycle: 11   F: -7.054554742023349   dF: -1.349e-04   |Residual|: 9.713e-03   |deigs|: 1.915e-02  t[s]:     78.20
	FillingsUpdate:  mu: -0.200000000  nElectrons: 3.000000  magneticMoment: [ Abs: 1.13419  Tot: -1.00000 ]
SCF: Cycle: 12   F: -7.054678816116904   dF: -1.241e-04   |Residual|: 8.922e-03   |deigs|: 1.170e-02  t[s]:     83.74
	FillingsUpdate:  mu: -0.100000000  nElectrons: 3.000000  magneticMoment: [ Abs: 1.18029  Tot: -1.00000 ]
SCF: Cycle: 13   F: -7.054726218940487   dF: -4.740e-05   |Residual|: 6.680e-03   |deigs|: 1.533e-02  t[s]:     89.36
	FillingsUpdate:  mu: -0.100000000  nElectrons: 3.000000  magneticMoment: [ Abs: 1.18620  Tot: -1.00000 ]
SCF: Cycle: 14   F: -7.054710565480216   dF: +1.565e-05   |Residual|: 5.809e-03   |deigs|: 9.773e-03  t[s]:     94.92
	FillingsUpdate:  mu: -0.100000000  nElectrons: 3.000000  magneticMoment: [ Abs: 1.17234  Tot: -1.00000 ]
SCF: Cycle: 15   F: -7.054769980174727   dF: -5.941e-05   |Residual|: 5.120e-03   |deigs|: 5.752e-03  t[s]:    100.48
	FillingsUpdate:  mu: -0.099867088  nElectrons: 3.000000  magneticMoment: [ Abs: 1.12750  Tot: -1.00000 ]
SCF: Cycle: 16   F: -7.054773777974081   dF: -3.798e-06   |Residual|: 4.173e-03   |deigs|: 8.010e-03  t[s]:    105.99
	FillingsUpdate:  mu: -0.100000000  nElectrons: 3.000000  magneticMoment: [ Abs: 1.09042  Tot: -1.00000 ]
SCF: Cycle: 17   F: -7.054761465819957   dF: +1.231e-05   |Residual|: 3.833e-03   |deigs|: 5.413e-03  t[s]:    111.61
	FillingsUpdate:  mu: -0.090784720  nElectrons: 3.000000  magneticMoment: [ Abs: 1.05819  Tot: -1.00000 ]
SCF: Cycle: 18   F: -7.054806480497986   dF: -4.501e-05   |Residual|: 2.648e-03   |deigs|: 6.049e-03  t[s]:    117.18
	FillingsUpdate:  mu: -0.087133482  nElectrons: 3.000000  magneticMoment: [ Abs: 1.03828  Tot: -1.00000 ]
SCF: Cycle: 19   F: -7.054852449428517   dF: -4.597e-05   |Residual|: 1.877e-03   |deigs|: 3.971e-03  t[s]:    122.70
	FillingsUpdate:  mu: -0.087169748  nElectrons: 3.000000  magneticMoment: [ Abs: 1.03381  Tot: -1.00000 ]
SCF: Cycle: 20   F: -7.054868557292687   dF: -1.611e-05   |Residual|: 1.296e-03   |deigs|: 2.028e-03  t[s]:    128.28
	FillingsUpdate:  mu: -0.085115215  nElectrons: 3.000000  magneticMoment: [ Abs: 1.02539  Tot: -1.00000 ]
SCF: Cycle: 21   F: -7.054876019802586   dF: -7.463e-06   |Residual|: 8.938e-04   |deigs|: 1.860e-03  t[s]:    133.85
	FillingsUpdate:  mu: -0.082593568  nElectrons: 3.000000  magneticMoment: [ Abs: 1.01764  Tot: -1.00000 ]
SCF: Cycle: 22   F: -7.054877871322205   dF: -1.852e-06   |Residual|: 6.752e-04   |deigs|: 2.527e-03  t[s]:    139.45
	FillingsUpdate:  mu: -0.083240646  nElectrons: 3.000000  magneticMoment: [ Abs: 1.00769  Tot: -1.00000 ]
SCF: Cycle: 23   F: -7.054880731530637   dF: -2.860e-06   |Residual|: 3.567e-04   |deigs|: 1.022e-03  t[s]:    145.05
	FillingsUpdate:  mu: -0.080993506  nElectrons: 3.000000  magneticMoment: [ Abs: 1.00390  Tot: -1.00000 ]
SCF: Cycle: 24   F: -7.054881566698803   dF: -8.352e-07   |Residual|: 2.704e-04   |deigs|: 2.114e-03  t[s]:    150.64
	FillingsUpdate:  mu: -0.078368797  nElectrons: 3.000000  magneticMoment: [ Abs: 1.00268  Tot: -1.00000 ]
SCF: Cycle: 25   F: -7.054881815352737   dF: -2.487e-07   |Residual|: 1.546e-04   |deigs|: 2.333e-03  t[s]:    156.21
	FillingsUpdate:  mu: -0.078069913  nElectrons: 3.000000  magneticMoment: [ Abs: 1.00192  Tot: -1.00000 ]
SCF: Cycle: 26   F: -7.054881919136008   dF: -1.038e-07   |Residual|: 1.101e-04   |deigs|: 4.701e-04  t[s]:    161.67
	FillingsUpdate:  mu: -0.080788285  nElectrons: 3.000000  magneticMoment: [ Abs: 1.00144  Tot: -1.00000 ]
SCF: Cycle: 27   F: -7.054881924488893   dF: -5.353e-09   |Residual|: 8.681e-05   |deigs|: 2.385e-03  t[s]:    167.22
	FillingsUpdate:  mu: -0.100000000  nElectrons: 3.000000  magneticMoment: [ Abs: 1.00118  Tot: -1.00000 ]
SCF: Cycle: 28   F: -7.054881980443500   dF: -5.595e-08   |Residual|: 7.212e-05   |deigs|: 1.844e-03  t[s]:    172.79
	FillingsUpdate:  mu: -0.077246464  nElectrons: 3.000000  magneticMoment: [ Abs: 1.00085  Tot: -1.00000 ]
SCF: Cycle: 29   F: -7.054881988137745   dF: -7.694e-09   |Residual|: 5.093e-05   |deigs|: 1.461e-03  t[s]:    178.28
	FillingsUpdate:  mu: -0.076323694  nElectrons: 3.000000  magneticMoment: [ Abs: 1.00055  Tot: -1.00000 ]
SCF: Cycle: 30   F: -7.054882015726482   dF: -2.759e-08   |Residual|: 3.526e-05   |deigs|: 1.028e-03  t[s]:    183.83
	FillingsUpdate:  mu: -0.074735092  nElectrons: 3.000000  magneticMoment: [ Abs: 1.00041  Tot: -1.00000 ]
SCF: Cycle: 31   F: -7.054882019768647   dF: -4.042e-09   |Residual|: 2.573e-05   |deigs|: 1.406e-03  t[s]:    189.45
	FillingsUpdate:  mu: -0.072659443  nElectrons: 3.000000  magneticMoment: [ Abs: 1.00023  Tot: -1.00000 ]
SCF: Cycle: 32   F: -7.054882021436804   dF: -1.668e-09   |Residual|: 1.912e-05   |deigs|: 1.864e-03  t[s]:    195.05
SCF: Converged (|Delta E|<1.000000e-08 for 2 iters).


# Ionic positions in lattice coordinates:
ion Li   0.000000000000000   0.000000000000000   0.000000000000000 0

# Forces in Lattice coordinates:
force Li  -0.000000000000000   0.000000000000000   0.000000000000000 0

# Energy components:
   Eewald =       -1.0026681166851483
       EH =        2.5689486640343397
     Eloc =       -8.2524358552419024
      Enl =       -3.6072143531934322
   Epulay =        0.0000051497655618
      Exc =       -1.5503147660811867
       KE =        4.7887972559649636
-------------------------------------
     Etot =       -7.0548820214368035
       TS =        0.0000000000000000
-------------------------------------
        F =       -7.0548820214368035

IonicMinimize: Iter:   0  F: -7.054882021436804  |grad|_K:  0.000e+00  t[s]:    195.30
IonicMinimize: Converged (|grad|_K<1.000000e-04).

#--- Lowdin population analysis ---
# oxidation-state Li +2.058
# magnetic-moments Li -0.929

End date and time: Sat Feb  5 22:52:04 2022  (Duration: 0-0:03:15.33)
Done!
