
*************** JDFTx 1.6.0 (git hash 42ebbcc2) ***************

Start date and time: Sat Feb  5 22:56:21 2022
Executable jdftx with command-line: -i Alkali.in
Running on hosts (process indices):  d-16-5-2 (0-18)
Divided in process groups (process indices):  0 (0)  1 (1)  2 (2)  3 (3)  4 (4)  5 (5)  6 (6)  7 (7)  8 (8)  9 (9)  10 (10)  11 (11)  12 (12)  13 (13)  14 (14)  15 (15)  16 (16)  17 (17)  18 (18)
Resource initialization completed at t[s]:      0.00
Run totals: 19 processes, 48 threads, 0 GPUs


Input parsed successfully to the following command list (including defaults):

basis kpoint-dependent
coords-type Lattice
core-overlap-check vector
coulomb-interaction Slab 001
davidson-band-ratio 1.1
dump End None
dump-name $INPUT.$VAR
elec-cutoff 20
elec-eigen-algo Davidson
elec-ex-corr gga-PBE
elec-initial-magnetization -0.200000 yes
elec-smearing Fermi 1e-05
electronic-minimize  \
	dirUpdateScheme      FletcherReeves \
	linminMethod         DirUpdateRecommended \
	nIterations          100 \
	history              15 \
	knormThreshold       0 \
	energyDiffThreshold  1e-08 \
	nEnergyDiff          2 \
	alphaTstart          1 \
	alphaTmin            1e-10 \
	updateTestStepSize   yes \
	alphaTreduceFactor   0.1 \
	alphaTincreaseFactor 3 \
	nAlphaAdjustMax      3 \
	wolfeEnergy          0.0001 \
	wolfeGradient        0.9 \
	fdTest               no
electronic-scf  \
	nIterations	10000 \
	energyDiffThreshold	1e-08 \
	residualThreshold	1e-07 \
	mixFraction	0.5 \
	qMetric	0.8 \
	history	10 \
	nEigSteps	2 \
	eigDiffThreshold	1e-08 \
	mixedVariable	Density \
	qKerker	0.8 \
	qKappa	-1 \
	verbose	no \
	mixFractionMag	1.5
exchange-regularization WignerSeitzTruncated
fluid None
fluid-ex-corr (null) lda-PZ
fluid-gummel-loop 10 1.000000e-05
fluid-minimize  \
	dirUpdateScheme      PolakRibiere \
	linminMethod         DirUpdateRecommended \
	nIterations          100 \
	history              15 \
	knormThreshold       0 \
	energyDiffThreshold  0 \
	nEnergyDiff          2 \
	alphaTstart          1 \
	alphaTmin            1e-10 \
	updateTestStepSize   yes \
	alphaTreduceFactor   0.1 \
	alphaTincreaseFactor 3 \
	nAlphaAdjustMax      3 \
	wolfeEnergy          0.0001 \
	wolfeGradient        0.9 \
	fdTest               no
fluid-solvent H2O 55.338 ScalarEOS \
	epsBulk 78.4 \
	pMol 0.92466 \
	epsInf 1.77 \
	Pvap 1.06736e-10 \
	sigmaBulk 4.62e-05 \
	Rvdw 2.61727 \
	Res 1.42 \
	tauNuc 343133 \
	poleEl 15 7 1
forces-output-coords Positions
ion Li   0.000000000000000   0.000000000000000   0.000000000000000 0
ion-species SG15/$ID_ONCV_PBE.upf
ion-width 0
ionic-minimize  \
	dirUpdateScheme      L-BFGS \
	linminMethod         DirUpdateRecommended \
	nIterations          0 \
	history              15 \
	knormThreshold       0.0001 \
	energyDiffThreshold  1e-06 \
	nEnergyDiff          2 \
	alphaTstart          1 \
	alphaTmin            1e-10 \
	updateTestStepSize   yes \
	alphaTreduceFactor   0.1 \
	alphaTincreaseFactor 3 \
	nAlphaAdjustMax      3 \
	wolfeEnergy          0.0001 \
	wolfeGradient        0.9 \
	fdTest               no
kpoint   0.000000000000   0.000000000000   0.000000000000  1.00000000000000
kpoint-folding 12 12 1 
latt-move-scale 1 1 1
latt-scale 4 4 1 
lattice  \
	   4.727486978767153   -2.363743489383575    0.000000000000000  \
	  -0.000000000000000    4.094123819672498    0.000000000000000  \
	   0.000000000000000    0.000000000000000   40.000000000000000 
lattice-minimize  \
	dirUpdateScheme      L-BFGS \
	linminMethod         DirUpdateRecommended \
	nIterations          0 \
	history              15 \
	knormThreshold       0 \
	energyDiffThreshold  1e-06 \
	nEnergyDiff          2 \
	alphaTstart          1 \
	alphaTmin            1e-10 \
	updateTestStepSize   yes \
	alphaTreduceFactor   0.1 \
	alphaTincreaseFactor 3 \
	nAlphaAdjustMax      3 \
	wolfeEnergy          0.0001 \
	wolfeGradient        0.9 \
	fdTest               no
lcao-params -1 1e-06 1e-05
pcm-variant GLSSA13
spintype z-spin
subspace-rotation-factor 1 yes
symmetries automatic
symmetry-threshold 0.0001



---------- Setting up symmetries ----------

Found 24 point-group symmetries of the bravais lattice
Found 24 space-group symmetries with basis
Applied RMS atom displacement 0 bohrs to make symmetries exact.

---------- Initializing the Grid ----------
R = 
[      18.9099     -9.45497            0  ]
[            0      16.3765            0  ]
[            0            0           40  ]
unit cell volume = 12387.1
G =
[   0.332269   0.191835         -0  ]
[          0   0.383671         -0  ]
[         -0         -0    0.15708  ]
Minimum fftbox size, Smin = [  80  80  164  ]
Chosen fftbox size, S = [  80  80  168  ]

---------- Exchange Correlation functional ----------
Initalized PBE GGA exchange.
Initalized PBE GGA correlation.

---------- Setting up pseudopotentials ----------
Width of ionic core gaussian charges (only for fluid interactions / plotting) set to 0

Reading pseudopotential file '/home/gridsan/aligho/DFT/build-Nov24/pseudopotentials/SG15/Li_ONCV_PBE.upf':
  'Li' pseudopotential, 'PBE' functional
  Generated using ONCVPSP code by D. R. Hamann
  Author: Martin Schlipf and Francois Gygi  Date: 150915.
  3 valence electrons, 2 orbitals, 4 projectors, 1328 radial grid points, with lMax = 1
  Transforming local potential to a uniform radial grid of dG=0.02 with 1489 points.
  Transforming nonlocal projectors to a uniform radial grid of dG=0.02 with 432 points.
    1S    l: 0   occupation:  2.0   eigenvalue: -1.905623
    2S    l: 0   occupation:  1.0   eigenvalue: -0.105624
  Transforming atomic orbitals to a uniform radial grid of dG=0.02 with 432 points.
  WARNING: large normalization error in atomic orbital 1s (integral: 0.000000).
  Core radius for overlap checks: 1.63 bohrs.
  Reading pulay file /home/gridsan/aligho/DFT/build-Nov24/pseudopotentials/SG15/Li_ONCV_PBE.pulay ... using dE_dnG = -1.230239e-02 computed for Ecut = 20.

Initialized 1 species with 1 total atoms.

Folded 1 k-points by 12x12x1 to 144 k-points.

---------- Setting up k-points, bands, fillings ----------
Reduced to 19 k-points under symmetry. 
Computing the number of bands and number of electrons
Calculating initial fillings.
nElectrons:   3.000000   nBands: 3   nStates: 38

----- Setting up reduced wavefunction bases (one per k-point) -----
average nbasis = 52924.021 , ideal nbasis = 52918.836

---------- Setting up coulomb interaction ----------
Initialized slab truncation along lattice direction 001

---------- Setting up 2D ewald sum ----------
Optimum gaussian width for ewald sums = 10.498040 bohr.
Real space sums over 289 unit cells with max indices [  8  8  0  ]
Reciprocal space sums over 81 terms with max indices [  4  4  0  ]

---------- Allocating electronic variables ----------
Initializing wave functions:  linear combination of atomic orbitals
Note: number of bands (3) exceeds available atomic orbitals (2)
Li pseudo-atom occupations:   s ( 2 1 )
	FillingsUpdate:  mu: +0.367052318  nElectrons: 3.000000  magneticMoment: [ Abs: 0.20013  Tot: -0.20000 ]
LCAOMinimize: Iter:   0  F: -1.3118888435437419  |grad|_K:  4.102e-05  alpha:  1.000e+00
	FillingsUpdate:  mu: +0.367051971  nElectrons: 3.000000  magneticMoment: [ Abs: 0.20013  Tot: -0.20000 ]
LCAOMinimize: Iter:   1  F: -1.3118891481344319  |grad|_K:  5.844e-08  alpha:  1.059e+00  linmin: -1.136e-02  cgtest:  3.834e-02  t[s]:     12.71
LCAOMinimize: Encountered beta<0, resetting CG.
LCAOMinimize: 	Wrong curvature in test step, increasing alphaT to 3.175835e+00.
	FillingsUpdate:  mu: +0.367051971  nElectrons: 3.000000  magneticMoment: [ Abs: 0.20013  Tot: -0.20000 ]
LCAOMinimize: Iter:   2  F: -1.3118891481367563  |grad|_K:  3.342e-09  alpha: -6.017e-01  linmin:  9.445e-03  cgtest: -9.092e-01  t[s]:     15.98
LCAOMinimize: Converged (|Delta F|<1.000000e-06 for 2 iters).


---- Citations for features of the code used in this run ----

   Software package:
      R. Sundararaman, K. Letchworth-Weaver, K.A. Schwarz, D. Gunceler, Y. Ozhabes and T.A. Arias, 'JDFTx: software for joint density-functional theory', SoftwareX 6, 278 (2017)

   gga-PBE exchange-correlation functional:
      J.P. Perdew, K. Burke and M. Ernzerhof, Phys. Rev. Lett. 77, 3865 (1996)

   Pseudopotentials:
      M Schlipf and F Gygi, Comput. Phys. Commun. 196, 36 (2015)

   Truncated Coulomb potentials:
      R. Sundararaman and T.A. Arias, Phys. Rev. B 87, 165122 (2013)

This list may not be complete. Please suggest additional citations or
report any other bugs at https://github.com/shankar1729/jdftx/issues

Initialization completed successfully at t[s]:     16.12


-------- Electronic minimization -----------
Will mix electronic density at each iteration.
	FillingsUpdate:  mu: +0.367051971  nElectrons: 3.000000  magneticMoment: [ Abs: 0.20013  Tot: -0.20000 ]
	FillingsUpdate:  mu: -0.615041458  nElectrons: 3.000000  magneticMoment: [ Abs: 0.20013  Tot: -0.20000 ]
SCF: Cycle:  0   F: -6.868723553677509   dF: -5.557e+00   |Residual|: 1.229e+00   |deigs|: 4.155e+00  t[s]:     21.72
	FillingsUpdate:  mu: -0.494485266  nElectrons: 3.000000  magneticMoment: [ Abs: 0.34669  Tot: -0.20000 ]
SCF: Cycle:  1   F: -6.915012236177424   dF: -4.629e-02   |Residual|: 7.601e-01   |deigs|: 2.755e-01  t[s]:     26.26
	FillingsUpdate:  mu: -0.241638665  nElectrons: 3.000000  magneticMoment: [ Abs: 0.44433  Tot: -0.20000 ]
SCF: Cycle:  2   F: -7.036478928336612   dF: -1.215e-01   |Residual|: 3.179e-01   |deigs|: 7.104e-01  t[s]:     30.93
	FillingsUpdate:  mu: -0.260746062  nElectrons: 3.000000  magneticMoment: [ Abs: 0.44173  Tot: -0.20000 ]
SCF: Cycle:  3   F: -7.037508284969710   dF: -1.029e-03   |Residual|: 1.876e-01   |deigs|: 7.191e-02  t[s]:     35.78
	FillingsUpdate:  mu: -0.240305915  nElectrons: 3.000000  magneticMoment: [ Abs: 0.49411  Tot: -0.20000 ]
SCF: Cycle:  4   F: -7.035161588836135   dF: +2.347e-03   |Residual|: 6.763e-02   |deigs|: 2.163e-02  t[s]:     40.66
	FillingsUpdate:  mu: -0.228340641  nElectrons: 3.000000  magneticMoment: [ Abs: 0.46111  Tot: -0.20000 ]
SCF: Cycle:  5   F: -7.036145753188070   dF: -9.842e-04   |Residual|: 1.214e-01   |deigs|: 1.058e-02  t[s]:     45.70
	FillingsUpdate:  mu: -0.199540571  nElectrons: 3.000000  magneticMoment: [ Abs: 0.43240  Tot: -0.20000 ]
SCF: Cycle:  6   F: -7.040529748615043   dF: -4.384e-03   |Residual|: 5.966e-02   |deigs|: 6.162e-02  t[s]:     50.81
	FillingsUpdate:  mu: -0.177498714  nElectrons: 3.000000  magneticMoment: [ Abs: 0.33313  Tot: -0.20000 ]
SCF: Cycle:  7   F: -7.042662895889064   dF: -2.133e-03   |Residual|: 1.029e-01   |deigs|: 7.379e-02  t[s]:     56.03
	FillingsUpdate:  mu: -0.182231024  nElectrons: 3.000000  magneticMoment: [ Abs: 0.25122  Tot: -0.20000 ]
SCF: Cycle:  8   F: -7.042849138209107   dF: -1.862e-04   |Residual|: 6.760e-02   |deigs|: 1.782e-02  t[s]:     61.35
	FillingsUpdate:  mu: -0.187076707  nElectrons: 3.000000  magneticMoment: [ Abs: 0.29066  Tot: -0.20000 ]
SCF: Cycle:  9   F: -7.043361971406869   dF: -5.128e-04   |Residual|: 5.869e-02   |deigs|: 5.107e-02  t[s]:     66.82
	FillingsUpdate:  mu: -0.177765048  nElectrons: 3.000000  magneticMoment: [ Abs: 0.35036  Tot: -0.20000 ]
SCF: Cycle: 10   F: -7.043261110874288   dF: +1.009e-04   |Residual|: 1.377e-01   |deigs|: 2.998e-02  t[s]:     72.47
	FillingsUpdate:  mu: -0.158434549  nElectrons: 3.000000  magneticMoment: [ Abs: 0.30331  Tot: -0.20000 ]
SCF: Cycle: 11   F: -7.044470901001084   dF: -1.210e-03   |Residual|: 1.949e-02   |deigs|: 7.193e-02  t[s]:     77.95
	FillingsUpdate:  mu: -0.150785393  nElectrons: 3.000000  magneticMoment: [ Abs: 0.26273  Tot: -0.20000 ]
SCF: Cycle: 12   F: -7.044542766209365   dF: -7.187e-05   |Residual|: 9.265e-03   |deigs|: 7.742e-03  t[s]:     83.48
	FillingsUpdate:  mu: -0.132952954  nElectrons: 3.000000  magneticMoment: [ Abs: 0.28255  Tot: -0.20000 ]
SCF: Cycle: 13   F: -7.044737845912643   dF: -1.951e-04   |Residual|: 7.489e-03   |deigs|: 1.742e-02  t[s]:     89.00
	FillingsUpdate:  mu: -0.124210760  nElectrons: 3.000000  magneticMoment: [ Abs: 0.28521  Tot: -0.20000 ]
SCF: Cycle: 14   F: -7.044792677045570   dF: -5.483e-05   |Residual|: 6.192e-03   |deigs|: 1.046e-02  t[s]:     94.61
	FillingsUpdate:  mu: -0.115782549  nElectrons: 3.000000  magneticMoment: [ Abs: 0.26194  Tot: -0.20000 ]
SCF: Cycle: 15   F: -7.044820425167850   dF: -2.775e-05   |Residual|: 4.751e-03   |deigs|: 9.481e-03  t[s]:    100.18
	FillingsUpdate:  mu: -0.110949879  nElectrons: 3.000000  magneticMoment: [ Abs: 0.25452  Tot: -0.20000 ]
SCF: Cycle: 16   F: -7.044845971752616   dF: -2.555e-05   |Residual|: 3.241e-03   |deigs|: 4.673e-03  t[s]:    105.73
	FillingsUpdate:  mu: -0.109596480  nElectrons: 3.000000  magneticMoment: [ Abs: 0.24453  Tot: -0.20000 ]
SCF: Cycle: 17   F: -7.044827799530331   dF: +1.817e-05   |Residual|: 2.429e-03   |deigs|: 1.121e-03  t[s]:    111.31
	FillingsUpdate:  mu: -0.107634262  nElectrons: 3.000000  magneticMoment: [ Abs: 0.23528  Tot: -0.20000 ]
SCF: Cycle: 18   F: -7.044817290000798   dF: +1.051e-05   |Residual|: 1.874e-03   |deigs|: 2.287e-03  t[s]:    116.88
	FillingsUpdate:  mu: -0.106904064  nElectrons: 3.000000  magneticMoment: [ Abs: 0.22800  Tot: -0.20000 ]
SCF: Cycle: 19   F: -7.044836261914678   dF: -1.897e-05   |Residual|: 1.285e-03   |deigs|: 6.784e-04  t[s]:    122.40
	FillingsUpdate:  mu: -0.105673112  nElectrons: 3.000000  magneticMoment: [ Abs: 0.22123  Tot: -0.20000 ]
SCF: Cycle: 20   F: -7.044872339943466   dF: -3.608e-05   |Residual|: 9.755e-04   |deigs|: 1.186e-03  t[s]:    127.98
	FillingsUpdate:  mu: -0.105233850  nElectrons: 3.000000  magneticMoment: [ Abs: 0.21508  Tot: -0.20000 ]
SCF: Cycle: 21   F: -7.044884764420261   dF: -1.242e-05   |Residual|: 6.669e-04   |deigs|: 7.139e-04  t[s]:    133.53
	FillingsUpdate:  mu: -0.104938953  nElectrons: 3.000000  magneticMoment: [ Abs: 0.21119  Tot: -0.20000 ]
SCF: Cycle: 22   F: -7.044890682283619   dF: -5.918e-06   |Residual|: 5.272e-04   |deigs|: 4.103e-04  t[s]:    139.05
	FillingsUpdate:  mu: -0.105020447  nElectrons: 3.000000  magneticMoment: [ Abs: 0.20738  Tot: -0.20000 ]
SCF: Cycle: 23   F: -7.044896277442060   dF: -5.595e-06   |Residual|: 3.975e-04   |deigs|: 1.452e-04  t[s]:    144.56
	FillingsUpdate:  mu: -0.105132202  nElectrons: 3.000000  magneticMoment: [ Abs: 0.20464  Tot: -0.20000 ]
SCF: Cycle: 24   F: -7.044901048601949   dF: -4.771e-06   |Residual|: 2.662e-04   |deigs|: 1.801e-04  t[s]:    150.10
	FillingsUpdate:  mu: -0.105402148  nElectrons: 3.000000  magneticMoment: [ Abs: 0.20264  Tot: -0.20000 ]
SCF: Cycle: 25   F: -7.044902282242024   dF: -1.234e-06   |Residual|: 1.339e-04   |deigs|: 4.313e-04  t[s]:    155.66
	FillingsUpdate:  mu: -0.105429380  nElectrons: 3.000000  magneticMoment: [ Abs: 0.20132  Tot: -0.20000 ]
SCF: Cycle: 26   F: -7.044902810504322   dF: -5.283e-07   |Residual|: 8.235e-05   |deigs|: 1.346e-04  t[s]:    161.15
	FillingsUpdate:  mu: -0.105430564  nElectrons: 3.000000  magneticMoment: [ Abs: 0.20103  Tot: -0.20000 ]
SCF: Cycle: 27   F: -7.044902876790612   dF: -6.629e-08   |Residual|: 6.296e-05   |deigs|: 5.895e-05  t[s]:    166.74
	FillingsUpdate:  mu: -0.105399936  nElectrons: 3.000000  magneticMoment: [ Abs: 0.20078  Tot: -0.20000 ]
SCF: Cycle: 28   F: -7.044902941103261   dF: -6.431e-08   |Residual|: 3.867e-05   |deigs|: 5.731e-05  t[s]:    172.33
	FillingsUpdate:  mu: -0.105386398  nElectrons: 3.000000  magneticMoment: [ Abs: 0.20068  Tot: -0.20000 ]
SCF: Cycle: 29   F: -7.044902962317816   dF: -2.121e-08   |Residual|: 2.649e-05   |deigs|: 4.670e-05  t[s]:    177.92
	FillingsUpdate:  mu: -0.105383973  nElectrons: 3.000000  magneticMoment: [ Abs: 0.20055  Tot: -0.20000 ]
SCF: Cycle: 30   F: -7.044902966844679   dF: -4.527e-09   |Residual|: 1.838e-05   |deigs|: 4.049e-05  t[s]:    183.46
	FillingsUpdate:  mu: -0.105377488  nElectrons: 3.000000  magneticMoment: [ Abs: 0.20038  Tot: -0.20000 ]
SCF: Cycle: 31   F: -7.044902940080956   dF: +2.676e-08   |Residual|: 1.293e-05   |deigs|: 3.517e-05  t[s]:    189.02
	FillingsUpdate:  mu: -0.105377017  nElectrons: 3.000000  magneticMoment: [ Abs: 0.20025  Tot: -0.20000 ]
SCF: Cycle: 32   F: -7.044902944265277   dF: -4.184e-09   |Residual|: 8.651e-06   |deigs|: 3.185e-05  t[s]:    194.56
	FillingsUpdate:  mu: -0.105377689  nElectrons: 3.000000  magneticMoment: [ Abs: 0.20019  Tot: -0.20000 ]
SCF: Cycle: 33   F: -7.044902975366258   dF: -3.110e-08   |Residual|: 6.198e-06   |deigs|: 2.764e-05  t[s]:    200.12
	FillingsUpdate:  mu: -0.105381112  nElectrons: 3.000000  magneticMoment: [ Abs: 0.20016  Tot: -0.20000 ]
SCF: Cycle: 34   F: -7.044902979100431   dF: -3.734e-09   |Residual|: 4.754e-06   |deigs|: 2.448e-05  t[s]:    205.63
	FillingsUpdate:  mu: -0.105384728  nElectrons: 3.000000  magneticMoment: [ Abs: 0.20013  Tot: -0.20000 ]
SCF: Cycle: 35   F: -7.044902987176963   dF: -8.077e-09   |Residual|: 3.785e-06   |deigs|: 2.160e-05  t[s]:    211.22
SCF: Converged (|Delta E|<1.000000e-08 for 2 iters).


# Ionic positions in lattice coordinates:
ion Li   0.000000000000000   0.000000000000000   0.000000000000000 0

# Forces in Lattice coordinates:
force Li  -0.000000000000000  -0.000000000000000   0.000000000000000 0

# Energy components:
   Eewald =       -1.0026681166851483
       EH =        2.5462178025136022
     Eloc =       -8.2239471278283798
      Enl =       -3.6033074030297318
   Epulay =        0.0000051497655618
      Exc =       -1.5345727092925512
       KE =        4.7733699417986282
-------------------------------------
     Etot =       -7.0449024627580181
       TS =        0.0000005244189451
-------------------------------------
        F =       -7.0449029871769628

IonicMinimize: Iter:   0  F: -7.044902987176963  |grad|_K:  0.000e+00  t[s]:    211.46
IonicMinimize: Converged (|grad|_K<1.000000e-04).

#--- Lowdin population analysis ---
# oxidation-state Li +2.081
# magnetic-moments Li -0.185

End date and time: Sat Feb  5 22:59:52 2022  (Duration: 0-0:03:31.49)
Done!
