
*************** JDFTx 1.6.0 (git hash 42ebbcc2) ***************

Start date and time: Sat Feb  5 23:02:32 2022
Executable jdftx with command-line: -i Alkali.in
Running on hosts (process indices):  d-3-13-4 (0-18)
Divided in process groups (process indices):  0 (0)  1 (1)  2 (2)  3 (3)  4 (4)  5 (5)  6 (6)  7 (7)  8 (8)  9 (9)  10 (10)  11 (11)  12 (12)  13 (13)  14 (14)  15 (15)  16 (16)  17 (17)  18 (18)
Resource initialization completed at t[s]:      0.00
Run totals: 19 processes, 48 threads, 0 GPUs


Input parsed successfully to the following command list (including defaults):

basis kpoint-dependent
coords-type Lattice
core-overlap-check vector
coulomb-interaction Slab 001
davidson-band-ratio 1.1
dump End None
dump-name $INPUT.$VAR
elec-cutoff 20
elec-eigen-algo Davidson
elec-ex-corr gga-PBE
elec-initial-magnetization 0.040000 yes
elec-smearing Fermi 1e-05
electronic-minimize  \
	dirUpdateScheme      FletcherReeves \
	linminMethod         DirUpdateRecommended \
	nIterations          100 \
	history              15 \
	knormThreshold       0 \
	energyDiffThreshold  1e-08 \
	nEnergyDiff          2 \
	alphaTstart          1 \
	alphaTmin            1e-10 \
	updateTestStepSize   yes \
	alphaTreduceFactor   0.1 \
	alphaTincreaseFactor 3 \
	nAlphaAdjustMax      3 \
	wolfeEnergy          0.0001 \
	wolfeGradient        0.9 \
	fdTest               no
electronic-scf  \
	nIterations	10000 \
	energyDiffThreshold	1e-08 \
	residualThreshold	1e-07 \
	mixFraction	0.5 \
	qMetric	0.8 \
	history	10 \
	nEigSteps	2 \
	eigDiffThreshold	1e-08 \
	mixedVariable	Density \
	qKerker	0.8 \
	qKappa	-1 \
	verbose	no \
	mixFractionMag	1.5
exchange-regularization WignerSeitzTruncated
fluid None
fluid-ex-corr (null) lda-PZ
fluid-gummel-loop 10 1.000000e-05
fluid-minimize  \
	dirUpdateScheme      PolakRibiere \
	linminMethod         DirUpdateRecommended \
	nIterations          100 \
	history              15 \
	knormThreshold       0 \
	energyDiffThreshold  0 \
	nEnergyDiff          2 \
	alphaTstart          1 \
	alphaTmin            1e-10 \
	updateTestStepSize   yes \
	alphaTreduceFactor   0.1 \
	alphaTincreaseFactor 3 \
	nAlphaAdjustMax      3 \
	wolfeEnergy          0.0001 \
	wolfeGradient        0.9 \
	fdTest               no
fluid-solvent H2O 55.338 ScalarEOS \
	epsBulk 78.4 \
	pMol 0.92466 \
	epsInf 1.77 \
	Pvap 1.06736e-10 \
	sigmaBulk 4.62e-05 \
	Rvdw 2.61727 \
	Res 1.42 \
	tauNuc 343133 \
	poleEl 15 7 1
forces-output-coords Positions
ion Li   0.000000000000000   0.000000000000000   0.000000000000000 0
ion-species SG15/$ID_ONCV_PBE.upf
ion-width 0
ionic-minimize  \
	dirUpdateScheme      L-BFGS \
	linminMethod         DirUpdateRecommended \
	nIterations          0 \
	history              15 \
	knormThreshold       0.0001 \
	energyDiffThreshold  1e-06 \
	nEnergyDiff          2 \
	alphaTstart          1 \
	alphaTmin            1e-10 \
	updateTestStepSize   yes \
	alphaTreduceFactor   0.1 \
	alphaTincreaseFactor 3 \
	nAlphaAdjustMax      3 \
	wolfeEnergy          0.0001 \
	wolfeGradient        0.9 \
	fdTest               no
kpoint   0.000000000000   0.000000000000   0.000000000000  1.00000000000000
kpoint-folding 12 12 1 
latt-move-scale 1 1 1
latt-scale 4 4 1 
lattice  \
	   4.727486978767153   -2.363743489383575    0.000000000000000  \
	  -0.000000000000000    4.094123819672498    0.000000000000000  \
	   0.000000000000000    0.000000000000000   40.000000000000000 
lattice-minimize  \
	dirUpdateScheme      L-BFGS \
	linminMethod         DirUpdateRecommended \
	nIterations          0 \
	history              15 \
	knormThreshold       0 \
	energyDiffThreshold  1e-06 \
	nEnergyDiff          2 \
	alphaTstart          1 \
	alphaTmin            1e-10 \
	updateTestStepSize   yes \
	alphaTreduceFactor   0.1 \
	alphaTincreaseFactor 3 \
	nAlphaAdjustMax      3 \
	wolfeEnergy          0.0001 \
	wolfeGradient        0.9 \
	fdTest               no
lcao-params -1 1e-06 1e-05
pcm-variant GLSSA13
spintype z-spin
subspace-rotation-factor 1 yes
symmetries automatic
symmetry-threshold 0.0001



---------- Setting up symmetries ----------

Found 24 point-group symmetries of the bravais lattice
Found 24 space-group symmetries with basis
Applied RMS atom displacement 0 bohrs to make symmetries exact.

---------- Initializing the Grid ----------
R = 
[      18.9099     -9.45497            0  ]
[            0      16.3765            0  ]
[            0            0           40  ]
unit cell volume = 12387.1
G =
[   0.332269   0.191835         -0  ]
[          0   0.383671         -0  ]
[         -0         -0    0.15708  ]
Minimum fftbox size, Smin = [  80  80  164  ]
Chosen fftbox size, S = [  80  80  168  ]

---------- Exchange Correlation functional ----------
Initalized PBE GGA exchange.
Initalized PBE GGA correlation.

---------- Setting up pseudopotentials ----------
Width of ionic core gaussian charges (only for fluid interactions / plotting) set to 0

Reading pseudopotential file '/home/gridsan/aligho/DFT/build-Nov24/pseudopotentials/SG15/Li_ONCV_PBE.upf':
  'Li' pseudopotential, 'PBE' functional
  Generated using ONCVPSP code by D. R. Hamann
  Author: Martin Schlipf and Francois Gygi  Date: 150915.
  3 valence electrons, 2 orbitals, 4 projectors, 1328 radial grid points, with lMax = 1
  Transforming local potential to a uniform radial grid of dG=0.02 with 1489 points.
  Transforming nonlocal projectors to a uniform radial grid of dG=0.02 with 432 points.
    1S    l: 0   occupation:  2.0   eigenvalue: -1.905623
    2S    l: 0   occupation:  1.0   eigenvalue: -0.105624
  Transforming atomic orbitals to a uniform radial grid of dG=0.02 with 432 points.
  WARNING: large normalization error in atomic orbital 1s (integral: 0.000000).
  Core radius for overlap checks: 1.63 bohrs.
  Reading pulay file /home/gridsan/aligho/DFT/build-Nov24/pseudopotentials/SG15/Li_ONCV_PBE.pulay ... using dE_dnG = -1.230239e-02 computed for Ecut = 20.

Initialized 1 species with 1 total atoms.

Folded 1 k-points by 12x12x1 to 144 k-points.

---------- Setting up k-points, bands, fillings ----------
Reduced to 19 k-points under symmetry. 
Computing the number of bands and number of electrons
Calculating initial fillings.
nElectrons:   3.000000   nBands: 3   nStates: 38

----- Setting up reduced wavefunction bases (one per k-point) -----
average nbasis = 52924.021 , ideal nbasis = 52918.836

---------- Setting up coulomb interaction ----------
Initialized slab truncation along lattice direction 001

---------- Setting up 2D ewald sum ----------
Optimum gaussian width for ewald sums = 10.498040 bohr.
Real space sums over 289 unit cells with max indices [  8  8  0  ]
Reciprocal space sums over 81 terms with max indices [  4  4  0  ]

---------- Allocating electronic variables ----------
Initializing wave functions:  linear combination of atomic orbitals
Note: number of bands (3) exceeds available atomic orbitals (2)
Li pseudo-atom occupations:   s ( 2 1 )
	FillingsUpdate:  mu: +0.363055315  nElectrons: 3.000000  magneticMoment: [ Abs: 0.06679  Tot: +0.04000 ]
LCAOMinimize: Iter:   0  F: -1.3118633423098094  |grad|_K:  4.081e-05  alpha:  1.000e+00
	FillingsUpdate:  mu: +0.363054809  nElectrons: 3.000000  magneticMoment: [ Abs: 0.06679  Tot: +0.04000 ]
LCAOMinimize: Iter:   1  F: -1.3118636438583284  |grad|_K:  7.587e-08  alpha:  1.059e+00  linmin: -8.701e-03  cgtest:  3.234e-02  t[s]:     12.74
LCAOMinimize: Encountered beta<0, resetting CG.
LCAOMinimize: 	Step increased F by 1.096900e-12, reducing alpha to 4.113222e-02.
	FillingsUpdate:  mu: +0.363054809  nElectrons: 3.000000  magneticMoment: [ Abs: 0.06679  Tot: +0.04000 ]
LCAOMinimize: Iter:   2  F: -1.3118636438586122  |grad|_K:  7.279e-08  alpha:  4.113e-02  linmin: -1.257e-02  cgtest:  1.000e+00  t[s]:     17.83
LCAOMinimize: Encountered beta<0, resetting CG.
LCAOMinimize: Converged (|Delta F|<1.000000e-06 for 2 iters).


---- Citations for features of the code used in this run ----

   Software package:
      R. Sundararaman, K. Letchworth-Weaver, K.A. Schwarz, D. Gunceler, Y. Ozhabes and T.A. Arias, 'JDFTx: software for joint density-functional theory', SoftwareX 6, 278 (2017)

   gga-PBE exchange-correlation functional:
      J.P. Perdew, K. Burke and M. Ernzerhof, Phys. Rev. Lett. 77, 3865 (1996)

   Pseudopotentials:
      M Schlipf and F Gygi, Comput. Phys. Commun. 196, 36 (2015)

   Truncated Coulomb potentials:
      R. Sundararaman and T.A. Arias, Phys. Rev. B 87, 165122 (2013)

This list may not be complete. Please suggest additional citations or
report any other bugs at https://github.com/shankar1729/jdftx/issues

Initialization completed successfully at t[s]:     17.97


-------- Electronic minimization -----------
Will mix electronic density at each iteration.
	FillingsUpdate:  mu: +0.363054809  nElectrons: 3.000000  magneticMoment: [ Abs: 0.06679  Tot: +0.04000 ]
	FillingsUpdate:  mu: -0.614776685  nElectrons: 3.000000  magneticMoment: [ Abs: 0.06679  Tot: +0.04000 ]
SCF: Cycle:  0   F: -6.867761115761633   dF: -5.556e+00   |Residual|: 1.229e+00   |deigs|: 4.155e+00  t[s]:     23.55
	FillingsUpdate:  mu: -0.498500875  nElectrons: 3.000000  magneticMoment: [ Abs: 0.06930  Tot: +0.04000 ]
SCF: Cycle:  1   F: -6.912791978739638   dF: -4.503e-02   |Residual|: 7.592e-01   |deigs|: 2.745e-01  t[s]:     28.02
	FillingsUpdate:  mu: -0.226634481  nElectrons: 3.000000  magneticMoment: [ Abs: 0.09019  Tot: +0.04000 ]
SCF: Cycle:  2   F: -7.039990092586423   dF: -1.272e-01   |Residual|: 3.128e-01   |deigs|: 7.158e-01  t[s]:     32.58
	FillingsUpdate:  mu: -0.275182498  nElectrons: 3.000000  magneticMoment: [ Abs: 0.09505  Tot: +0.04000 ]
SCF: Cycle:  3   F: -7.037815040155271   dF: +2.175e-03   |Residual|: 1.821e-01   |deigs|: 8.333e-02  t[s]:     37.39
	FillingsUpdate:  mu: -0.234644825  nElectrons: 3.000000  magneticMoment: [ Abs: 0.14082  Tot: +0.04000 ]
SCF: Cycle:  4   F: -7.034343565864170   dF: +3.471e-03   |Residual|: 1.426e-01   |deigs|: 3.434e-02  t[s]:     42.18
	FillingsUpdate:  mu: -0.228340094  nElectrons: 3.000000  magneticMoment: [ Abs: 0.14330  Tot: +0.04000 ]
SCF: Cycle:  5   F: -7.036037377929985   dF: -1.694e-03   |Residual|: 4.893e-02   |deigs|: 3.376e-02  t[s]:     47.13
	FillingsUpdate:  mu: -0.210182745  nElectrons: 3.000000  magneticMoment: [ Abs: 0.08482  Tot: +0.04000 ]
SCF: Cycle:  6   F: -7.039479706592137   dF: -3.442e-03   |Residual|: 3.479e-02   |deigs|: 4.804e-02  t[s]:     52.21
	FillingsUpdate:  mu: -0.166814818  nElectrons: 3.000000  magneticMoment: [ Abs: 0.08889  Tot: +0.04000 ]
SCF: Cycle:  7   F: -7.042966729941836   dF: -3.487e-03   |Residual|: 1.133e-01   |deigs|: 8.624e-02  t[s]:     57.38
	FillingsUpdate:  mu: -0.167924883  nElectrons: 3.000000  magneticMoment: [ Abs: 0.08160  Tot: +0.04000 ]
SCF: Cycle:  8   F: -7.043437774193455   dF: -4.710e-04   |Residual|: 4.515e-02   |deigs|: 2.628e-02  t[s]:     62.63
	FillingsUpdate:  mu: -0.196520427  nElectrons: 3.000000  magneticMoment: [ Abs: 0.12270  Tot: +0.04000 ]
SCF: Cycle:  9   F: -7.041876254462720   dF: +1.562e-03   |Residual|: 2.005e-01   |deigs|: 1.278e-01  t[s]:     68.07
	FillingsUpdate:  mu: -0.179382210  nElectrons: 3.000000  magneticMoment: [ Abs: 0.24445  Tot: +0.04000 ]
SCF: Cycle: 10   F: -7.042710389679681   dF: -8.341e-04   |Residual|: 7.005e-02   |deigs|: 4.283e-02  t[s]:     73.62
	FillingsUpdate:  mu: -0.157631267  nElectrons: 3.000000  magneticMoment: [ Abs: 0.27979  Tot: +0.04000 ]
SCF: Cycle: 11   F: -7.043209521456522   dF: -4.991e-04   |Residual|: 8.977e-02   |deigs|: 6.441e-02  t[s]:     79.09
	FillingsUpdate:  mu: -0.145355834  nElectrons: 3.000000  magneticMoment: [ Abs: 0.15783  Tot: +0.04000 ]
SCF: Cycle: 12   F: -7.044245829593424   dF: -1.036e-03   |Residual|: 1.504e-02   |deigs|: 1.331e-02  t[s]:     84.72
	FillingsUpdate:  mu: -0.122033856  nElectrons: 3.000000  magneticMoment: [ Abs: 0.11926  Tot: +0.04000 ]
SCF: Cycle: 13   F: -7.044430999039777   dF: -1.852e-04   |Residual|: 8.356e-03   |deigs|: 3.635e-02  t[s]:     90.29
	FillingsUpdate:  mu: -0.118471357  nElectrons: 3.000000  magneticMoment: [ Abs: 0.07497  Tot: +0.04000 ]
SCF: Cycle: 14   F: -7.044450602540582   dF: -1.960e-05   |Residual|: 6.220e-03   |deigs|: 3.216e-03  t[s]:     95.75
	FillingsUpdate:  mu: -0.115031718  nElectrons: 3.000000  magneticMoment: [ Abs: 0.06477  Tot: +0.04000 ]
SCF: Cycle: 15   F: -7.044459693049088   dF: -9.091e-06   |Residual|: 4.283e-03   |deigs|: 2.847e-03  t[s]:    101.29
	FillingsUpdate:  mu: -0.111326035  nElectrons: 3.000000  magneticMoment: [ Abs: 0.06284  Tot: +0.04000 ]
SCF: Cycle: 16   F: -7.044470712335786   dF: -1.102e-05   |Residual|: 3.097e-03   |deigs|: 3.677e-03  t[s]:    106.83
	FillingsUpdate:  mu: -0.108641226  nElectrons: 3.000000  magneticMoment: [ Abs: 0.05593  Tot: +0.04000 ]
SCF: Cycle: 17   F: -7.044461552076782   dF: +9.160e-06   |Residual|: 2.609e-03   |deigs|: 2.747e-03  t[s]:    112.32
	FillingsUpdate:  mu: -0.106350844  nElectrons: 3.000000  magneticMoment: [ Abs: 0.05044  Tot: +0.04000 ]
SCF: Cycle: 18   F: -7.044470478152335   dF: -8.926e-06   |Residual|: 1.569e-03   |deigs|: 3.056e-03  t[s]:    117.80
	FillingsUpdate:  mu: -0.105450654  nElectrons: 3.000000  magneticMoment: [ Abs: 0.05362  Tot: +0.04000 ]
SCF: Cycle: 19   F: -7.044497501266598   dF: -2.702e-05   |Residual|: 1.120e-03   |deigs|: 8.478e-04  t[s]:    123.28
	FillingsUpdate:  mu: -0.105928666  nElectrons: 3.000000  magneticMoment: [ Abs: 0.04566  Tot: +0.04000 ]
SCF: Cycle: 20   F: -7.044507909793081   dF: -1.041e-05   |Residual|: 8.547e-04   |deigs|: 6.764e-04  t[s]:    128.75
	FillingsUpdate:  mu: -0.105734210  nElectrons: 3.000000  magneticMoment: [ Abs: 0.04341  Tot: +0.04000 ]
SCF: Cycle: 21   F: -7.044520961061224   dF: -1.305e-05   |Residual|: 5.618e-04   |deigs|: 2.959e-04  t[s]:    134.19
	FillingsUpdate:  mu: -0.105612517  nElectrons: 3.000000  magneticMoment: [ Abs: 0.04297  Tot: +0.04000 ]
SCF: Cycle: 22   F: -7.044528467842537   dF: -7.507e-06   |Residual|: 4.052e-04   |deigs|: 2.071e-04  t[s]:    139.67
	FillingsUpdate:  mu: -0.105388780  nElectrons: 3.000000  magneticMoment: [ Abs: 0.04184  Tot: +0.04000 ]
SCF: Cycle: 23   F: -7.044531932354300   dF: -3.465e-06   |Residual|: 3.219e-04   |deigs|: 2.601e-04  t[s]:    145.11
	FillingsUpdate:  mu: -0.105422962  nElectrons: 3.000000  magneticMoment: [ Abs: 0.04099  Tot: +0.04000 ]
SCF: Cycle: 24   F: -7.044533349580536   dF: -1.417e-06   |Residual|: 2.164e-04   |deigs|: 1.368e-04  t[s]:    150.60
	FillingsUpdate:  mu: -0.105482144  nElectrons: 3.000000  magneticMoment: [ Abs: 0.04069  Tot: +0.04000 ]
SCF: Cycle: 25   F: -7.044534020340539   dF: -6.708e-07   |Residual|: 1.310e-04   |deigs|: 1.546e-04  t[s]:    156.12
	FillingsUpdate:  mu: -0.105569335  nElectrons: 3.000000  magneticMoment: [ Abs: 0.04043  Tot: +0.04000 ]
SCF: Cycle: 26   F: -7.044534660175046   dF: -6.398e-07   |Residual|: 7.466e-05   |deigs|: 1.423e-04  t[s]:    161.52
	FillingsUpdate:  mu: -0.105585780  nElectrons: 3.000000  magneticMoment: [ Abs: 0.04028  Tot: +0.04000 ]
SCF: Cycle: 27   F: -7.044534793319187   dF: -1.331e-07   |Residual|: 5.411e-05   |deigs|: 7.885e-05  t[s]:    166.97
	FillingsUpdate:  mu: -0.105600032  nElectrons: 3.000000  magneticMoment: [ Abs: 0.04024  Tot: +0.04000 ]
SCF: Cycle: 28   F: -7.044534861491806   dF: -6.817e-08   |Residual|: 3.598e-05   |deigs|: 7.257e-05  t[s]:    172.49
	FillingsUpdate:  mu: -0.105608688  nElectrons: 3.000000  magneticMoment: [ Abs: 0.04020  Tot: +0.04000 ]
SCF: Cycle: 29   F: -7.044534878553236   dF: -1.706e-08   |Residual|: 2.594e-05   |deigs|: 5.865e-05  t[s]:    177.95
	FillingsUpdate:  mu: -0.105617652  nElectrons: 3.000000  magneticMoment: [ Abs: 0.04014  Tot: +0.04000 ]
SCF: Cycle: 30   F: -7.044534879675067   dF: -1.122e-09   |Residual|: 1.808e-05   |deigs|: 4.831e-05  t[s]:    183.45
	FillingsUpdate:  mu: -0.105628487  nElectrons: 3.000000  magneticMoment: [ Abs: 0.04012  Tot: +0.04000 ]
SCF: Cycle: 31   F: -7.044534878958500   dF: +7.166e-10   |Residual|: 1.138e-05   |deigs|: 4.118e-05  t[s]:    188.95
	FillingsUpdate:  mu: -0.105636526  nElectrons: 3.000000  magneticMoment: [ Abs: 0.04009  Tot: +0.04000 ]
SCF: Cycle: 32   F: -7.044534877643033   dF: +1.315e-09   |Residual|: 8.470e-06   |deigs|: 3.319e-05  t[s]:    194.39
	FillingsUpdate:  mu: -0.105643367  nElectrons: 3.000000  magneticMoment: [ Abs: 0.04006  Tot: +0.04000 ]
SCF: Cycle: 33   F: -7.044534872162840   dF: +5.480e-09   |Residual|: 6.041e-06   |deigs|: 2.725e-05  t[s]:    199.85
	FillingsUpdate:  mu: -0.105647995  nElectrons: 3.000000  magneticMoment: [ Abs: 0.04004  Tot: +0.04000 ]
SCF: Cycle: 34   F: -7.044534886102610   dF: -1.394e-08   |Residual|: 4.661e-06   |deigs|: 2.252e-05  t[s]:    205.36
	FillingsUpdate:  mu: -0.105650737  nElectrons: 3.000000  magneticMoment: [ Abs: 0.04003  Tot: +0.04000 ]
SCF: Cycle: 35   F: -7.044534889567948   dF: -3.465e-09   |Residual|: 4.091e-06   |deigs|: 1.889e-05  t[s]:    210.82
	FillingsUpdate:  mu: -0.105653791  nElectrons: 3.000000  magneticMoment: [ Abs: 0.04002  Tot: +0.04000 ]
SCF: Cycle: 36   F: -7.044534887706840   dF: +1.861e-09   |Residual|: 3.294e-06   |deigs|: 1.685e-05  t[s]:    216.39
	FillingsUpdate:  mu: -0.105655989  nElectrons: 3.000000  magneticMoment: [ Abs: 0.04002  Tot: +0.04000 ]
SCF: Cycle: 37   F: -7.044534889931632   dF: -2.225e-09   |Residual|: 2.577e-06   |deigs|: 1.522e-05  t[s]:    221.87
	FillingsUpdate:  mu: -0.105656405  nElectrons: 3.000000  magneticMoment: [ Abs: 0.04001  Tot: +0.04000 ]
SCF: Cycle: 38   F: -7.044534890563988   dF: -6.324e-10   |Residual|: 1.929e-06   |deigs|: 1.408e-05  t[s]:    227.41
SCF: Converged (|Delta E|<1.000000e-08 for 2 iters).


# Ionic positions in lattice coordinates:
ion Li   0.000000000000000   0.000000000000000   0.000000000000000 0

# Forces in Lattice coordinates:
force Li  -0.000000000000000   0.000000000000000   0.000000000000000 0

# Energy components:
   Eewald =       -1.0026681166851483
       EH =        2.5453039864260405
     Eloc =       -8.2228004964053021
      Enl =       -3.6031623596249363
   Epulay =        0.0000051497655618
      Exc =       -1.5339906035189852
       KE =        4.7727786727065888
-------------------------------------
     Etot =       -7.0445337673361808
       TS =        0.0000011232278080
-------------------------------------
        F =       -7.0445348905639884

IonicMinimize: Iter:   0  F: -7.044534890563988  |grad|_K:  0.000e+00  t[s]:    227.65
IonicMinimize: Converged (|grad|_K<1.000000e-04).

#--- Lowdin population analysis ---
# oxidation-state Li +2.082
# magnetic-moments Li +0.037

End date and time: Sat Feb  5 23:06:19 2022  (Duration: 0-0:03:47.68)
Done!
