
*************** JDFTx 1.6.0 (git hash 42ebbcc2) ***************

Start date and time: Sat Feb  5 22:55:53 2022
Executable jdftx with command-line: -i Alkali.in
Running on hosts (process indices):  d-3-13-4 (0-18)
Divided in process groups (process indices):  0 (0)  1 (1)  2 (2)  3 (3)  4 (4)  5 (5)  6 (6)  7 (7)  8 (8)  9 (9)  10 (10)  11 (11)  12 (12)  13 (13)  14 (14)  15 (15)  16 (16)  17 (17)  18 (18)
Resource initialization completed at t[s]:      0.00
Run totals: 19 processes, 48 threads, 0 GPUs


Input parsed successfully to the following command list (including defaults):

basis kpoint-dependent
coords-type Lattice
core-overlap-check vector
coulomb-interaction Slab 001
davidson-band-ratio 1.1
dump End None
dump-name $INPUT.$VAR
elec-cutoff 20
elec-eigen-algo Davidson
elec-ex-corr gga-PBE
elec-initial-magnetization -0.500000 yes
elec-smearing Fermi 1e-05
electronic-minimize  \
	dirUpdateScheme      FletcherReeves \
	linminMethod         DirUpdateRecommended \
	nIterations          100 \
	history              15 \
	knormThreshold       0 \
	energyDiffThreshold  1e-08 \
	nEnergyDiff          2 \
	alphaTstart          1 \
	alphaTmin            1e-10 \
	updateTestStepSize   yes \
	alphaTreduceFactor   0.1 \
	alphaTincreaseFactor 3 \
	nAlphaAdjustMax      3 \
	wolfeEnergy          0.0001 \
	wolfeGradient        0.9 \
	fdTest               no
electronic-scf  \
	nIterations	10000 \
	energyDiffThreshold	1e-08 \
	residualThreshold	1e-07 \
	mixFraction	0.5 \
	qMetric	0.8 \
	history	10 \
	nEigSteps	2 \
	eigDiffThreshold	1e-08 \
	mixedVariable	Density \
	qKerker	0.8 \
	qKappa	-1 \
	verbose	no \
	mixFractionMag	1.5
exchange-regularization WignerSeitzTruncated
fluid None
fluid-ex-corr (null) lda-PZ
fluid-gummel-loop 10 1.000000e-05
fluid-minimize  \
	dirUpdateScheme      PolakRibiere \
	linminMethod         DirUpdateRecommended \
	nIterations          100 \
	history              15 \
	knormThreshold       0 \
	energyDiffThreshold  0 \
	nEnergyDiff          2 \
	alphaTstart          1 \
	alphaTmin            1e-10 \
	updateTestStepSize   yes \
	alphaTreduceFactor   0.1 \
	alphaTincreaseFactor 3 \
	nAlphaAdjustMax      3 \
	wolfeEnergy          0.0001 \
	wolfeGradient        0.9 \
	fdTest               no
fluid-solvent H2O 55.338 ScalarEOS \
	epsBulk 78.4 \
	pMol 0.92466 \
	epsInf 1.77 \
	Pvap 1.06736e-10 \
	sigmaBulk 4.62e-05 \
	Rvdw 2.61727 \
	Res 1.42 \
	tauNuc 343133 \
	poleEl 15 7 1
forces-output-coords Positions
ion Li   0.000000000000000   0.000000000000000   0.000000000000000 0
ion-species SG15/$ID_ONCV_PBE.upf
ion-width 0
ionic-minimize  \
	dirUpdateScheme      L-BFGS \
	linminMethod         DirUpdateRecommended \
	nIterations          0 \
	history              15 \
	knormThreshold       0.0001 \
	energyDiffThreshold  1e-06 \
	nEnergyDiff          2 \
	alphaTstart          1 \
	alphaTmin            1e-10 \
	updateTestStepSize   yes \
	alphaTreduceFactor   0.1 \
	alphaTincreaseFactor 3 \
	nAlphaAdjustMax      3 \
	wolfeEnergy          0.0001 \
	wolfeGradient        0.9 \
	fdTest               no
kpoint   0.000000000000   0.000000000000   0.000000000000  1.00000000000000
kpoint-folding 12 12 1 
latt-move-scale 1 1 1
latt-scale 4 4 1 
lattice  \
	   4.727486978767153   -2.363743489383575    0.000000000000000  \
	  -0.000000000000000    4.094123819672498    0.000000000000000  \
	   0.000000000000000    0.000000000000000   40.000000000000000 
lattice-minimize  \
	dirUpdateScheme      L-BFGS \
	linminMethod         DirUpdateRecommended \
	nIterations          0 \
	history              15 \
	knormThreshold       0 \
	energyDiffThreshold  1e-06 \
	nEnergyDiff          2 \
	alphaTstart          1 \
	alphaTmin            1e-10 \
	updateTestStepSize   yes \
	alphaTreduceFactor   0.1 \
	alphaTincreaseFactor 3 \
	nAlphaAdjustMax      3 \
	wolfeEnergy          0.0001 \
	wolfeGradient        0.9 \
	fdTest               no
lcao-params -1 1e-06 1e-05
pcm-variant GLSSA13
spintype z-spin
subspace-rotation-factor 1 yes
symmetries automatic
symmetry-threshold 0.0001



---------- Setting up symmetries ----------

Found 24 point-group symmetries of the bravais lattice
Found 24 space-group symmetries with basis
Applied RMS atom displacement 0 bohrs to make symmetries exact.

---------- Initializing the Grid ----------
R = 
[      18.9099     -9.45497            0  ]
[            0      16.3765            0  ]
[            0            0           40  ]
unit cell volume = 12387.1
G =
[   0.332269   0.191835         -0  ]
[          0   0.383671         -0  ]
[         -0         -0    0.15708  ]
Minimum fftbox size, Smin = [  80  80  164  ]
Chosen fftbox size, S = [  80  80  168  ]

---------- Exchange Correlation functional ----------
Initalized PBE GGA exchange.
Initalized PBE GGA correlation.

---------- Setting up pseudopotentials ----------
Width of ionic core gaussian charges (only for fluid interactions / plotting) set to 0

Reading pseudopotential file '/home/gridsan/aligho/DFT/build-Nov24/pseudopotentials/SG15/Li_ONCV_PBE.upf':
  'Li' pseudopotential, 'PBE' functional
  Generated using ONCVPSP code by D. R. Hamann
  Author: Martin Schlipf and Francois Gygi  Date: 150915.
  3 valence electrons, 2 orbitals, 4 projectors, 1328 radial grid points, with lMax = 1
  Transforming local potential to a uniform radial grid of dG=0.02 with 1489 points.
  Transforming nonlocal projectors to a uniform radial grid of dG=0.02 with 432 points.
    1S    l: 0   occupation:  2.0   eigenvalue: -1.905623
    2S    l: 0   occupation:  1.0   eigenvalue: -0.105624
  Transforming atomic orbitals to a uniform radial grid of dG=0.02 with 432 points.
  WARNING: large normalization error in atomic orbital 1s (integral: 0.000000).
  Core radius for overlap checks: 1.63 bohrs.
  Reading pulay file /home/gridsan/aligho/DFT/build-Nov24/pseudopotentials/SG15/Li_ONCV_PBE.pulay ... using dE_dnG = -1.230239e-02 computed for Ecut = 20.

Initialized 1 species with 1 total atoms.

Folded 1 k-points by 12x12x1 to 144 k-points.

---------- Setting up k-points, bands, fillings ----------
Reduced to 19 k-points under symmetry. 
Computing the number of bands and number of electrons
Calculating initial fillings.
nElectrons:   3.000000   nBands: 3   nStates: 38

----- Setting up reduced wavefunction bases (one per k-point) -----
average nbasis = 52924.021 , ideal nbasis = 52918.836

---------- Setting up coulomb interaction ----------
Initialized slab truncation along lattice direction 001

---------- Setting up 2D ewald sum ----------
Optimum gaussian width for ewald sums = 10.498040 bohr.
Real space sums over 289 unit cells with max indices [  8  8  0  ]
Reciprocal space sums over 81 terms with max indices [  4  4  0  ]

---------- Allocating electronic variables ----------
Initializing wave functions:  linear combination of atomic orbitals
Note: number of bands (3) exceeds available atomic orbitals (2)
Li pseudo-atom occupations:   s ( 2 1 )
	FillingsUpdate:  mu: +0.367503093  nElectrons: 3.000000  magneticMoment: [ Abs: 0.50000  Tot: -0.50000 ]
LCAOMinimize: Iter:   0  F: -1.3105248390576805  |grad|_K:  4.049e-05  alpha:  1.000e+00
	FillingsUpdate:  mu: +0.367502719  nElectrons: 3.000000  magneticMoment: [ Abs: 0.50000  Tot: -0.50000 ]
LCAOMinimize: Iter:   1  F: -1.3105251358819998  |grad|_K:  1.059e-07  alpha:  1.059e+00  linmin: -7.258e-03  cgtest:  2.440e-02  t[s]:     12.55
LCAOMinimize: Encountered beta<0, resetting CG.
	FillingsUpdate:  mu: +0.367502719  nElectrons: 3.000000  magneticMoment: [ Abs: 0.50000  Tot: -0.50000 ]
LCAOMinimize: Iter:   2  F: -1.3105251358835535  |grad|_K:  5.651e-08  alpha:  1.603e+00  linmin:  1.805e-02  cgtest: -1.009e+00  t[s]:     15.80
LCAOMinimize: Converged (|Delta F|<1.000000e-06 for 2 iters).


---- Citations for features of the code used in this run ----

   Software package:
      R. Sundararaman, K. Letchworth-Weaver, K.A. Schwarz, D. Gunceler, Y. Ozhabes and T.A. Arias, 'JDFTx: software for joint density-functional theory', SoftwareX 6, 278 (2017)

   gga-PBE exchange-correlation functional:
      J.P. Perdew, K. Burke and M. Ernzerhof, Phys. Rev. Lett. 77, 3865 (1996)

   Pseudopotentials:
      M Schlipf and F Gygi, Comput. Phys. Commun. 196, 36 (2015)

   Truncated Coulomb potentials:
      R. Sundararaman and T.A. Arias, Phys. Rev. B 87, 165122 (2013)

This list may not be complete. Please suggest additional citations or
report any other bugs at https://github.com/shankar1729/jdftx/issues

Initialization completed successfully at t[s]:     15.93


-------- Electronic minimization -----------
Will mix electronic density at each iteration.
	FillingsUpdate:  mu: +0.367502719  nElectrons: 3.000000  magneticMoment: [ Abs: 0.50000  Tot: -0.50000 ]
	FillingsUpdate:  mu: -0.616388419  nElectrons: 3.000000  magneticMoment: [ Abs: 0.50000  Tot: -0.50000 ]
SCF: Cycle:  0   F: -6.873945558849240   dF: -5.563e+00   |Residual|: 1.229e+00   |deigs|: 4.155e+00  t[s]:     21.50
	FillingsUpdate:  mu: -0.488650355  nElectrons: 3.000000  magneticMoment: [ Abs: 0.86483  Tot: -0.50000 ]
SCF: Cycle:  1   F: -6.917077889052813   dF: -4.313e-02   |Residual|: 7.620e-01   |deigs|: 2.766e-01  t[s]:     26.04
	FillingsUpdate:  mu: -0.270188729  nElectrons: 3.000000  magneticMoment: [ Abs: 1.11553  Tot: -0.50000 ]
SCF: Cycle:  2   F: -7.036838114962038   dF: -1.198e-01   |Residual|: 3.211e-01   |deigs|: 7.050e-01  t[s]:     30.68
	FillingsUpdate:  mu: -0.279076482  nElectrons: 3.000000  magneticMoment: [ Abs: 1.01744  Tot: -0.50000 ]
SCF: Cycle:  3   F: -7.037161748166625   dF: -3.236e-04   |Residual|: 1.836e-01   |deigs|: 7.419e-02  t[s]:     35.40
	FillingsUpdate:  mu: -0.233382582  nElectrons: 3.000000  magneticMoment: [ Abs: 0.89901  Tot: -0.50000 ]
SCF: Cycle:  4   F: -7.038811074993060   dF: -1.649e-03   |Residual|: 5.545e-02   |deigs|: 3.794e-02  t[s]:     40.20
	FillingsUpdate:  mu: -0.221357067  nElectrons: 3.000000  magneticMoment: [ Abs: 0.89607  Tot: -0.50000 ]
SCF: Cycle:  5   F: -7.039839048760477   dF: -1.028e-03   |Residual|: 9.839e-02   |deigs|: 1.301e-02  t[s]:     45.10
	FillingsUpdate:  mu: -0.196705341  nElectrons: 3.000000  magneticMoment: [ Abs: 0.73729  Tot: -0.50000 ]
SCF: Cycle:  6   F: -7.042991100757836   dF: -3.152e-03   |Residual|: 2.066e-02   |deigs|: 6.297e-02  t[s]:     50.05
	FillingsUpdate:  mu: -0.183571778  nElectrons: 3.000000  magneticMoment: [ Abs: 0.63377  Tot: -0.50000 ]
SCF: Cycle:  7   F: -7.044602268040045   dF: -1.611e-03   |Residual|: 8.089e-02   |deigs|: 4.424e-02  t[s]:     55.22
	FillingsUpdate:  mu: -0.185667605  nElectrons: 3.000000  magneticMoment: [ Abs: 0.59566  Tot: -0.50000 ]
SCF: Cycle:  8   F: -7.045004600861788   dF: -4.023e-04   |Residual|: 4.486e-02   |deigs|: 1.358e-02  t[s]:     60.56
	FillingsUpdate:  mu: -0.184062084  nElectrons: 3.000000  magneticMoment: [ Abs: 0.57160  Tot: -0.50000 ]
SCF: Cycle:  9   F: -7.045761841054505   dF: -7.572e-04   |Residual|: 6.875e-02   |deigs|: 4.103e-02  t[s]:     65.92
	FillingsUpdate:  mu: -0.165888800  nElectrons: 3.000000  magneticMoment: [ Abs: 0.53750  Tot: -0.50000 ]
SCF: Cycle: 10   F: -7.046387375730544   dF: -6.255e-04   |Residual|: 1.432e-02   |deigs|: 3.708e-02  t[s]:     71.36
	FillingsUpdate:  mu: -0.154170885  nElectrons: 3.000000  magneticMoment: [ Abs: 0.58384  Tot: -0.50000 ]
SCF: Cycle: 11   F: -7.046504528829922   dF: -1.172e-04   |Residual|: 3.102e-02   |deigs|: 1.555e-02  t[s]:     76.86
	FillingsUpdate:  mu: -0.149335503  nElectrons: 3.000000  magneticMoment: [ Abs: 0.58280  Tot: -0.50000 ]
SCF: Cycle: 12   F: -7.046630203308374   dF: -1.257e-04   |Residual|: 1.161e-02   |deigs|: 1.058e-02  t[s]:     82.40
	FillingsUpdate:  mu: -0.128286316  nElectrons: 3.000000  magneticMoment: [ Abs: 0.63918  Tot: -0.50000 ]
SCF: Cycle: 13   F: -7.046760758954115   dF: -1.306e-04   |Residual|: 6.620e-03   |deigs|: 2.342e-02  t[s]:     88.00
	FillingsUpdate:  mu: -0.122344374  nElectrons: 3.000000  magneticMoment: [ Abs: 0.63947  Tot: -0.50000 ]
SCF: Cycle: 14   F: -7.046789617208998   dF: -2.886e-05   |Residual|: 5.814e-03   |deigs|: 7.083e-03  t[s]:     93.44
	FillingsUpdate:  mu: -0.115495102  nElectrons: 3.000000  magneticMoment: [ Abs: 0.61206  Tot: -0.50000 ]
SCF: Cycle: 15   F: -7.046794957112918   dF: -5.340e-06   |Residual|: 4.078e-03   |deigs|: 6.042e-03  t[s]:     98.86
	FillingsUpdate:  mu: -0.111713173  nElectrons: 3.000000  magneticMoment: [ Abs: 0.59688  Tot: -0.50000 ]
SCF: Cycle: 16   F: -7.046810388565252   dF: -1.543e-05   |Residual|: 3.362e-03   |deigs|: 3.803e-03  t[s]:    104.42
	FillingsUpdate:  mu: -0.108483141  nElectrons: 3.000000  magneticMoment: [ Abs: 0.56568  Tot: -0.50000 ]
SCF: Cycle: 17   F: -7.046795003284798   dF: +1.539e-05   |Residual|: 2.480e-03   |deigs|: 3.033e-03  t[s]:    109.89
	FillingsUpdate:  mu: -0.106451367  nElectrons: 3.000000  magneticMoment: [ Abs: 0.55168  Tot: -0.50000 ]
SCF: Cycle: 18   F: -7.046824862395469   dF: -2.986e-05   |Residual|: 1.809e-03   |deigs|: 2.498e-03  t[s]:    115.39
	FillingsUpdate:  mu: -0.104687701  nElectrons: 3.000000  magneticMoment: [ Abs: 0.53894  Tot: -0.50000 ]
SCF: Cycle: 19   F: -7.046865932223236   dF: -4.107e-05   |Residual|: 1.325e-03   |deigs|: 2.338e-03  t[s]:    120.91
	FillingsUpdate:  mu: -0.103637843  nElectrons: 3.000000  magneticMoment: [ Abs: 0.52994  Tot: -0.50000 ]
SCF: Cycle: 20   F: -7.046886172156522   dF: -2.024e-05   |Residual|: 9.890e-04   |deigs|: 1.503e-03  t[s]:    126.44
	FillingsUpdate:  mu: -0.102900982  nElectrons: 3.000000  magneticMoment: [ Abs: 0.52139  Tot: -0.50000 ]
SCF: Cycle: 21   F: -7.046903393052507   dF: -1.722e-05   |Residual|: 7.052e-04   |deigs|: 8.483e-04  t[s]:    131.92
	FillingsUpdate:  mu: -0.102962687  nElectrons: 3.000000  magneticMoment: [ Abs: 0.51487  Tot: -0.50000 ]
SCF: Cycle: 22   F: -7.046914957258101   dF: -1.156e-05   |Residual|: 4.650e-04   |deigs|: 3.772e-04  t[s]:    137.33
	FillingsUpdate:  mu: -0.103363783  nElectrons: 3.000000  magneticMoment: [ Abs: 0.50844  Tot: -0.50000 ]
SCF: Cycle: 23   F: -7.046919755970642   dF: -4.799e-06   |Residual|: 3.088e-04   |deigs|: 6.532e-04  t[s]:    142.74
	FillingsUpdate:  mu: -0.103574963  nElectrons: 3.000000  magneticMoment: [ Abs: 0.50437  Tot: -0.50000 ]
SCF: Cycle: 24   F: -7.046920965752829   dF: -1.210e-06   |Residual|: 2.239e-04   |deigs|: 3.102e-04  t[s]:    148.20
	FillingsUpdate:  mu: -0.103687550  nElectrons: 3.000000  magneticMoment: [ Abs: 0.50261  Tot: -0.50000 ]
SCF: Cycle: 25   F: -7.046921979778411   dF: -1.014e-06   |Residual|: 1.328e-04   |deigs|: 2.078e-04  t[s]:    153.63
	FillingsUpdate:  mu: -0.103720972  nElectrons: 3.000000  magneticMoment: [ Abs: 0.50194  Tot: -0.50000 ]
SCF: Cycle: 26   F: -7.046922431111944   dF: -4.513e-07   |Residual|: 8.428e-05   |deigs|: 1.147e-04  t[s]:    159.16
	FillingsUpdate:  mu: -0.103737852  nElectrons: 3.000000  magneticMoment: [ Abs: 0.50097  Tot: -0.50000 ]
SCF: Cycle: 27   F: -7.046922455061809   dF: -2.395e-08   |Residual|: 5.524e-05   |deigs|: 8.167e-05  t[s]:    164.65
	FillingsUpdate:  mu: -0.103739229  nElectrons: 3.000000  magneticMoment: [ Abs: 0.50067  Tot: -0.50000 ]
SCF: Cycle: 28   F: -7.046922508087203   dF: -5.303e-08   |Residual|: 4.192e-05   |deigs|: 5.592e-05  t[s]:    170.16
	FillingsUpdate:  mu: -0.103738511  nElectrons: 3.000000  magneticMoment: [ Abs: 0.50043  Tot: -0.50000 ]
SCF: Cycle: 29   F: -7.046922560883081   dF: -5.280e-08   |Residual|: 3.358e-05   |deigs|: 4.660e-05  t[s]:    175.73
	FillingsUpdate:  mu: -0.103744521  nElectrons: 3.000000  magneticMoment: [ Abs: 0.50018  Tot: -0.50000 ]
SCF: Cycle: 30   F: -7.046922578488632   dF: -1.761e-08   |Residual|: 2.439e-05   |deigs|: 4.287e-05  t[s]:    181.24
	FillingsUpdate:  mu: -0.103744034  nElectrons: 3.000000  magneticMoment: [ Abs: 0.50008  Tot: -0.50000 ]
SCF: Cycle: 31   F: -7.046922583773365   dF: -5.285e-09   |Residual|: 1.781e-05   |deigs|: 3.711e-05  t[s]:    186.73
	FillingsUpdate:  mu: -0.103745887  nElectrons: 3.000000  magneticMoment: [ Abs: 0.50004  Tot: -0.50000 ]
SCF: Cycle: 32   F: -7.046922598215690   dF: -1.444e-08   |Residual|: 1.367e-05   |deigs|: 3.356e-05  t[s]:    192.26
	FillingsUpdate:  mu: -0.103748985  nElectrons: 3.000000  magneticMoment: [ Abs: 0.50001  Tot: -0.50000 ]
SCF: Cycle: 33   F: -7.046922589583571   dF: +8.632e-09   |Residual|: 1.106e-05   |deigs|: 3.038e-05  t[s]:    197.72
	FillingsUpdate:  mu: -0.103752616  nElectrons: 3.000000  magneticMoment: [ Abs: 0.50002  Tot: -0.50000 ]
SCF: Cycle: 34   F: -7.046922593157913   dF: -3.574e-09   |Residual|: 8.231e-06   |deigs|: 2.702e-05  t[s]:    203.18
	FillingsUpdate:  mu: -0.103754701  nElectrons: 3.000000  magneticMoment: [ Abs: 0.50002  Tot: -0.50000 ]
SCF: Cycle: 35   F: -7.046922576519789   dF: +1.664e-08   |Residual|: 6.791e-06   |deigs|: 2.397e-05  t[s]:    208.60
	FillingsUpdate:  mu: -0.103755815  nElectrons: 3.000000  magneticMoment: [ Abs: 0.50002  Tot: -0.50000 ]
SCF: Cycle: 36   F: -7.046922588096725   dF: -1.158e-08   |Residual|: 4.864e-06   |deigs|: 2.110e-05  t[s]:    214.10
	FillingsUpdate:  mu: -0.103755606  nElectrons: 3.000000  magneticMoment: [ Abs: 0.50001  Tot: -0.50000 ]
SCF: Cycle: 37   F: -7.046922604282404   dF: -1.619e-08   |Residual|: 3.590e-06   |deigs|: 1.830e-05  t[s]:    219.53
	FillingsUpdate:  mu: -0.103756139  nElectrons: 3.000000  magneticMoment: [ Abs: 0.50001  Tot: -0.50000 ]
SCF: Cycle: 38   F: -7.046922607344095   dF: -3.062e-09   |Residual|: 2.516e-06   |deigs|: 1.595e-05  t[s]:    224.98
	FillingsUpdate:  mu: -0.103756682  nElectrons: 3.000000  magneticMoment: [ Abs: 0.50001  Tot: -0.50000 ]
SCF: Cycle: 39   F: -7.046922607824722   dF: -4.806e-10   |Residual|: 2.060e-06   |deigs|: 1.405e-05  t[s]:    230.50
SCF: Converged (|Delta E|<1.000000e-08 for 2 iters).


# Ionic positions in lattice coordinates:
ion Li   0.000000000000000   0.000000000000000   0.000000000000000 0

# Forces in Lattice coordinates:
force Li  -0.000000000000000   0.000000000000000   0.000000000000000 0

# Energy components:
   Eewald =       -1.0026681166851483
       EH =        2.5514490447656235
     Eloc =       -8.2304815361562618
      Enl =       -3.6041108823276433
   Epulay =        0.0000051497655618
      Exc =       -1.5378663061666225
       KE =        4.7767518124068484
-------------------------------------
     Etot =       -7.0469208343976408
       TS =        0.0000017734270812
-------------------------------------
        F =       -7.0469226078247225

IonicMinimize: Iter:   0  F: -7.046922607824722  |grad|_K:  0.000e+00  t[s]:    230.74
IonicMinimize: Converged (|grad|_K<1.000000e-04).

#--- Lowdin population analysis ---
# oxidation-state Li +2.076
# magnetic-moments Li -0.463

End date and time: Sat Feb  5 22:59:44 2022  (Duration: 0-0:03:50.77)
Done!
