
*************** JDFTx 1.6.0 (git hash 42ebbcc2) ***************

Start date and time: Sat Feb  5 22:48:56 2022
Executable jdftx with command-line: -i Alkali.in
Running on hosts (process indices):  d-6-12-3 (0-18)
Divided in process groups (process indices):  0 (0)  1 (1)  2 (2)  3 (3)  4 (4)  5 (5)  6 (6)  7 (7)  8 (8)  9 (9)  10 (10)  11 (11)  12 (12)  13 (13)  14 (14)  15 (15)  16 (16)  17 (17)  18 (18)
Resource initialization completed at t[s]:      0.00
Run totals: 19 processes, 48 threads, 0 GPUs


Input parsed successfully to the following command list (including defaults):

basis kpoint-dependent
coords-type Lattice
core-overlap-check vector
coulomb-interaction Slab 001
davidson-band-ratio 1.1
dump End None
dump-name $INPUT.$VAR
elec-cutoff 20
elec-eigen-algo Davidson
elec-ex-corr gga-PBE
elec-initial-magnetization -0.700000 yes
elec-smearing Fermi 1e-05
electronic-minimize  \
	dirUpdateScheme      FletcherReeves \
	linminMethod         DirUpdateRecommended \
	nIterations          100 \
	history              15 \
	knormThreshold       0 \
	energyDiffThreshold  1e-08 \
	nEnergyDiff          2 \
	alphaTstart          1 \
	alphaTmin            1e-10 \
	updateTestStepSize   yes \
	alphaTreduceFactor   0.1 \
	alphaTincreaseFactor 3 \
	nAlphaAdjustMax      3 \
	wolfeEnergy          0.0001 \
	wolfeGradient        0.9 \
	fdTest               no
electronic-scf  \
	nIterations	10000 \
	energyDiffThreshold	1e-08 \
	residualThreshold	1e-07 \
	mixFraction	0.5 \
	qMetric	0.8 \
	history	10 \
	nEigSteps	2 \
	eigDiffThreshold	1e-08 \
	mixedVariable	Density \
	qKerker	0.8 \
	qKappa	-1 \
	verbose	no \
	mixFractionMag	1.5
exchange-regularization WignerSeitzTruncated
fluid None
fluid-ex-corr (null) lda-PZ
fluid-gummel-loop 10 1.000000e-05
fluid-minimize  \
	dirUpdateScheme      PolakRibiere \
	linminMethod         DirUpdateRecommended \
	nIterations          100 \
	history              15 \
	knormThreshold       0 \
	energyDiffThreshold  0 \
	nEnergyDiff          2 \
	alphaTstart          1 \
	alphaTmin            1e-10 \
	updateTestStepSize   yes \
	alphaTreduceFactor   0.1 \
	alphaTincreaseFactor 3 \
	nAlphaAdjustMax      3 \
	wolfeEnergy          0.0001 \
	wolfeGradient        0.9 \
	fdTest               no
fluid-solvent H2O 55.338 ScalarEOS \
	epsBulk 78.4 \
	pMol 0.92466 \
	epsInf 1.77 \
	Pvap 1.06736e-10 \
	sigmaBulk 4.62e-05 \
	Rvdw 2.61727 \
	Res 1.42 \
	tauNuc 343133 \
	poleEl 15 7 1
forces-output-coords Positions
ion Li   0.000000000000000   0.000000000000000   0.000000000000000 0
ion-species SG15/$ID_ONCV_PBE.upf
ion-width 0
ionic-minimize  \
	dirUpdateScheme      L-BFGS \
	linminMethod         DirUpdateRecommended \
	nIterations          0 \
	history              15 \
	knormThreshold       0.0001 \
	energyDiffThreshold  1e-06 \
	nEnergyDiff          2 \
	alphaTstart          1 \
	alphaTmin            1e-10 \
	updateTestStepSize   yes \
	alphaTreduceFactor   0.1 \
	alphaTincreaseFactor 3 \
	nAlphaAdjustMax      3 \
	wolfeEnergy          0.0001 \
	wolfeGradient        0.9 \
	fdTest               no
kpoint   0.000000000000   0.000000000000   0.000000000000  1.00000000000000
kpoint-folding 12 12 1 
latt-move-scale 1 1 1
latt-scale 4 4 1 
lattice  \
	   4.727486978767153   -2.363743489383575    0.000000000000000  \
	  -0.000000000000000    4.094123819672498    0.000000000000000  \
	   0.000000000000000    0.000000000000000   40.000000000000000 
lattice-minimize  \
	dirUpdateScheme      L-BFGS \
	linminMethod         DirUpdateRecommended \
	nIterations          0 \
	history              15 \
	knormThreshold       0 \
	energyDiffThreshold  1e-06 \
	nEnergyDiff          2 \
	alphaTstart          1 \
	alphaTmin            1e-10 \
	updateTestStepSize   yes \
	alphaTreduceFactor   0.1 \
	alphaTincreaseFactor 3 \
	nAlphaAdjustMax      3 \
	wolfeEnergy          0.0001 \
	wolfeGradient        0.9 \
	fdTest               no
lcao-params -1 1e-06 1e-05
pcm-variant GLSSA13
spintype z-spin
subspace-rotation-factor 1 yes
symmetries automatic
symmetry-threshold 0.0001



---------- Setting up symmetries ----------

Found 24 point-group symmetries of the bravais lattice
Found 24 space-group symmetries with basis
Applied RMS atom displacement 0 bohrs to make symmetries exact.

---------- Initializing the Grid ----------
R = 
[      18.9099     -9.45497            0  ]
[            0      16.3765            0  ]
[            0            0           40  ]
unit cell volume = 12387.1
G =
[   0.332269   0.191835         -0  ]
[          0   0.383671         -0  ]
[         -0         -0    0.15708  ]
Minimum fftbox size, Smin = [  80  80  164  ]
Chosen fftbox size, S = [  80  80  168  ]

---------- Exchange Correlation functional ----------
Initalized PBE GGA exchange.
Initalized PBE GGA correlation.

---------- Setting up pseudopotentials ----------
Width of ionic core gaussian charges (only for fluid interactions / plotting) set to 0

Reading pseudopotential file '/home/gridsan/aligho/DFT/build-Nov24/pseudopotentials/SG15/Li_ONCV_PBE.upf':
  'Li' pseudopotential, 'PBE' functional
  Generated using ONCVPSP code by D. R. Hamann
  Author: Martin Schlipf and Francois Gygi  Date: 150915.
  3 valence electrons, 2 orbitals, 4 projectors, 1328 radial grid points, with lMax = 1
  Transforming local potential to a uniform radial grid of dG=0.02 with 1489 points.
  Transforming nonlocal projectors to a uniform radial grid of dG=0.02 with 432 points.
    1S    l: 0   occupation:  2.0   eigenvalue: -1.905623
    2S    l: 0   occupation:  1.0   eigenvalue: -0.105624
  Transforming atomic orbitals to a uniform radial grid of dG=0.02 with 432 points.
  WARNING: large normalization error in atomic orbital 1s (integral: 0.000000).
  Core radius for overlap checks: 1.63 bohrs.
  Reading pulay file /home/gridsan/aligho/DFT/build-Nov24/pseudopotentials/SG15/Li_ONCV_PBE.pulay ... using dE_dnG = -1.230239e-02 computed for Ecut = 20.

Initialized 1 species with 1 total atoms.

Folded 1 k-points by 12x12x1 to 144 k-points.

---------- Setting up k-points, bands, fillings ----------
Reduced to 19 k-points under symmetry. 
Computing the number of bands and number of electrons
Calculating initial fillings.
nElectrons:   3.000000   nBands: 3   nStates: 38

----- Setting up reduced wavefunction bases (one per k-point) -----
average nbasis = 52924.021 , ideal nbasis = 52918.836

---------- Setting up coulomb interaction ----------
Initialized slab truncation along lattice direction 001

---------- Setting up 2D ewald sum ----------
Optimum gaussian width for ewald sums = 10.498040 bohr.
Real space sums over 289 unit cells with max indices [  8  8  0  ]
Reciprocal space sums over 81 terms with max indices [  4  4  0  ]

---------- Allocating electronic variables ----------
Initializing wave functions:  linear combination of atomic orbitals
Note: number of bands (3) exceeds available atomic orbitals (2)
Li pseudo-atom occupations:   s ( 2 1 )
	FillingsUpdate:  mu: +0.365965754  nElectrons: 3.000000  magneticMoment: [ Abs: 0.70000  Tot: -0.70000 ]
LCAOMinimize: Iter:   0  F: -1.3090338334552496  |grad|_K:  3.976e-05  alpha:  1.000e+00
	FillingsUpdate:  mu: +0.365961905  nElectrons: 3.000000  magneticMoment: [ Abs: 0.70000  Tot: -0.70000 ]
LCAOMinimize: Iter:   1  F: -1.3090341383684203  |grad|_K:  3.201e-06  alpha:  1.113e+00  linmin: -5.950e-03  cgtest: -6.247e-01  t[s]:     12.87
LCAOMinimize: 	Wrong curvature in test step, increasing alphaT to 3.340261e+00.
	FillingsUpdate:  mu: +0.365960932  nElectrons: 3.000000  magneticMoment: [ Abs: 0.70000  Tot: -0.70000 ]
LCAOMinimize: Iter:   2  F: -1.3090341613853391  |grad|_K:  1.117e-05  alpha: -3.114e-01  linmin: -1.867e-02  cgtest:  7.488e-01  t[s]:     16.19
LCAOMinimize: Converged (|Delta F|<1.000000e-06 for 2 iters).


---- Citations for features of the code used in this run ----

   Software package:
      R. Sundararaman, K. Letchworth-Weaver, K.A. Schwarz, D. Gunceler, Y. Ozhabes and T.A. Arias, 'JDFTx: software for joint density-functional theory', SoftwareX 6, 278 (2017)

   gga-PBE exchange-correlation functional:
      J.P. Perdew, K. Burke and M. Ernzerhof, Phys. Rev. Lett. 77, 3865 (1996)

   Pseudopotentials:
      M Schlipf and F Gygi, Comput. Phys. Commun. 196, 36 (2015)

   Truncated Coulomb potentials:
      R. Sundararaman and T.A. Arias, Phys. Rev. B 87, 165122 (2013)

This list may not be complete. Please suggest additional citations or
report any other bugs at https://github.com/shankar1729/jdftx/issues

Initialization completed successfully at t[s]:     16.32


-------- Electronic minimization -----------
Will mix electronic density at each iteration.
	FillingsUpdate:  mu: +0.365960932  nElectrons: 3.000000  magneticMoment: [ Abs: 0.70000  Tot: -0.70000 ]
	FillingsUpdate:  mu: -0.616324092  nElectrons: 3.000000  magneticMoment: [ Abs: 0.70000  Tot: -0.70000 ]
SCF: Cycle:  0   F: -6.879914386192774   dF: -5.571e+00   |Residual|: 1.229e+00   |deigs|: 4.155e+00  t[s]:     21.99
	FillingsUpdate:  mu: -0.485759435  nElectrons: 3.000000  magneticMoment: [ Abs: 1.21168  Tot: -0.70000 ]
SCF: Cycle:  1   F: -6.916032536138342   dF: -3.612e-02   |Residual|: 7.636e-01   |deigs|: 2.763e-01  t[s]:     26.56
	FillingsUpdate:  mu: -0.283017249  nElectrons: 3.000000  magneticMoment: [ Abs: 1.56758  Tot: -0.70000 ]
SCF: Cycle:  2   F: -7.037492695756335   dF: -1.215e-01   |Residual|: 3.220e-01   |deigs|: 7.036e-01  t[s]:     31.16
	FillingsUpdate:  mu: -0.289282921  nElectrons: 3.000000  magneticMoment: [ Abs: 1.38939  Tot: -0.70000 ]
SCF: Cycle:  3   F: -7.037726722723565   dF: -2.340e-04   |Residual|: 1.692e-01   |deigs|: 8.232e-02  t[s]:     36.00
	FillingsUpdate:  mu: -0.237821199  nElectrons: 3.000000  magneticMoment: [ Abs: 1.20060  Tot: -0.70000 ]
SCF: Cycle:  4   F: -7.041835744055448   dF: -4.109e-03   |Residual|: 4.349e-02   |deigs|: 4.531e-02  t[s]:     40.86
	FillingsUpdate:  mu: -0.221894942  nElectrons: 3.000000  magneticMoment: [ Abs: 1.18150  Tot: -0.70000 ]
SCF: Cycle:  5   F: -7.043201870147739   dF: -1.366e-03   |Residual|: 7.251e-02   |deigs|: 1.631e-02  t[s]:     45.82
	FillingsUpdate:  mu: -0.200824125  nElectrons: 3.000000  magneticMoment: [ Abs: 1.00598  Tot: -0.70000 ]
SCF: Cycle:  6   F: -7.045060564176779   dF: -1.859e-03   |Residual|: 2.582e-02   |deigs|: 4.776e-02  t[s]:     50.90
	FillingsUpdate:  mu: -0.184383466  nElectrons: 3.000000  magneticMoment: [ Abs: 0.91569  Tot: -0.70000 ]
SCF: Cycle:  7   F: -7.047019277787294   dF: -1.959e-03   |Residual|: 4.101e-02   |deigs|: 3.996e-02  t[s]:     56.11
	FillingsUpdate:  mu: -0.183084312  nElectrons: 3.000000  magneticMoment: [ Abs: 0.85031  Tot: -0.70000 ]
SCF: Cycle:  8   F: -7.047670503292931   dF: -6.512e-04   |Residual|: 3.577e-02   |deigs|: 2.530e-03  t[s]:     61.40
	FillingsUpdate:  mu: -0.180408522  nElectrons: 3.000000  magneticMoment: [ Abs: 0.80006  Tot: -0.70000 ]
SCF: Cycle:  9   F: -7.048355681308116   dF: -6.852e-04   |Residual|: 1.649e-02   |deigs|: 1.785e-02  t[s]:     66.82
	FillingsUpdate:  mu: -0.168731095  nElectrons: 3.000000  magneticMoment: [ Abs: 0.73787  Tot: -0.70000 ]
SCF: Cycle: 10   F: -7.048726269966589   dF: -3.706e-04   |Residual|: 3.594e-02   |deigs|: 9.033e-03  t[s]:     72.34
	FillingsUpdate:  mu: -0.158282951  nElectrons: 3.000000  magneticMoment: [ Abs: 0.77092  Tot: -0.70000 ]
SCF: Cycle: 11   F: -7.048741055006591   dF: -1.479e-05   |Residual|: 9.780e-03   |deigs|: 1.750e-02  t[s]:     77.88
	FillingsUpdate:  mu: -0.148691359  nElectrons: 3.000000  magneticMoment: [ Abs: 0.81394  Tot: -0.70000 ]
SCF: Cycle: 12   F: -7.048968852030185   dF: -2.278e-04   |Residual|: 1.119e-02   |deigs|: 7.831e-03  t[s]:     83.39
	FillingsUpdate:  mu: -0.128804539  nElectrons: 3.000000  magneticMoment: [ Abs: 0.86489  Tot: -0.70000 ]
SCF: Cycle: 13   F: -7.049117743587514   dF: -1.489e-04   |Residual|: 6.406e-03   |deigs|: 2.408e-02  t[s]:     88.95
	FillingsUpdate:  mu: -0.119861013  nElectrons: 3.000000  magneticMoment: [ Abs: 0.86473  Tot: -0.70000 ]
SCF: Cycle: 14   F: -7.049055445188506   dF: +6.230e-05   |Residual|: 5.611e-03   |deigs|: 9.193e-03  t[s]:     94.42
	FillingsUpdate:  mu: -0.114226047  nElectrons: 3.000000  magneticMoment: [ Abs: 0.84830  Tot: -0.70000 ]
SCF: Cycle: 15   F: -7.049108302270721   dF: -5.286e-05   |Residual|: 4.360e-03   |deigs|: 5.986e-03  t[s]:     99.98
	FillingsUpdate:  mu: -0.110076963  nElectrons: 3.000000  magneticMoment: [ Abs: 0.82019  Tot: -0.70000 ]
SCF: Cycle: 16   F: -7.049133412092906   dF: -2.511e-05   |Residual|: 3.387e-03   |deigs|: 4.232e-03  t[s]:    105.59
	FillingsUpdate:  mu: -0.106811641  nElectrons: 3.000000  magneticMoment: [ Abs: 0.78762  Tot: -0.70000 ]
SCF: Cycle: 17   F: -7.049120584941429   dF: +1.283e-05   |Residual|: 3.045e-03   |deigs|: 3.352e-03  t[s]:    111.12
	FillingsUpdate:  mu: -0.103328967  nElectrons: 3.000000  magneticMoment: [ Abs: 0.76847  Tot: -0.70000 ]
SCF: Cycle: 18   F: -7.049161152003726   dF: -4.057e-05   |Residual|: 2.181e-03   |deigs|: 3.911e-03  t[s]:    116.65
	FillingsUpdate:  mu: -0.102568329  nElectrons: 3.000000  magneticMoment: [ Abs: 0.74495  Tot: -0.70000 ]
SCF: Cycle: 19   F: -7.049215859526441   dF: -5.471e-05   |Residual|: 1.671e-03   |deigs|: 1.226e-03  t[s]:    122.13
	FillingsUpdate:  mu: -0.101587300  nElectrons: 3.000000  magneticMoment: [ Abs: 0.73448  Tot: -0.70000 ]
SCF: Cycle: 20   F: -7.049245067516284   dF: -2.921e-05   |Residual|: 1.192e-03   |deigs|: 1.147e-03  t[s]:    127.67
	FillingsUpdate:  mu: -0.100897139  nElectrons: 3.000000  magneticMoment: [ Abs: 0.72231  Tot: -0.70000 ]
SCF: Cycle: 21   F: -7.049265716835422   dF: -2.065e-05   |Residual|: 8.107e-04   |deigs|: 1.023e-03  t[s]:    133.23
	FillingsUpdate:  mu: -0.101099149  nElectrons: 3.000000  magneticMoment: [ Abs: 0.71478  Tot: -0.70000 ]
SCF: Cycle: 22   F: -7.049270935237135   dF: -5.218e-06   |Residual|: 6.232e-04   |deigs|: 2.887e-04  t[s]:    138.71
	FillingsUpdate:  mu: -0.101149183  nElectrons: 3.000000  magneticMoment: [ Abs: 0.70814  Tot: -0.70000 ]
SCF: Cycle: 23   F: -7.049276125009651   dF: -5.190e-06   |Residual|: 4.107e-04   |deigs|: 3.142e-04  t[s]:    144.25
	FillingsUpdate:  mu: -0.101575181  nElectrons: 3.000000  magneticMoment: [ Abs: 0.70427  Tot: -0.70000 ]
SCF: Cycle: 24   F: -7.049278326367075   dF: -2.201e-06   |Residual|: 2.760e-04   |deigs|: 5.928e-04  t[s]:    149.75
	FillingsUpdate:  mu: -0.101645921  nElectrons: 3.000000  magneticMoment: [ Abs: 0.70263  Tot: -0.70000 ]
SCF: Cycle: 25   F: -7.049279548334846   dF: -1.222e-06   |Residual|: 1.564e-04   |deigs|: 2.908e-04  t[s]:    155.30
	FillingsUpdate:  mu: -0.101663599  nElectrons: 3.000000  magneticMoment: [ Abs: 0.70185  Tot: -0.70000 ]
SCF: Cycle: 26   F: -7.049280122966902   dF: -5.746e-07   |Residual|: 9.626e-05   |deigs|: 1.154e-04  t[s]:    160.86
	FillingsUpdate:  mu: -0.101652746  nElectrons: 3.000000  magneticMoment: [ Abs: 0.70132  Tot: -0.70000 ]
SCF: Cycle: 27   F: -7.049280206624876   dF: -8.366e-08   |Residual|: 7.383e-05   |deigs|: 6.443e-05  t[s]:    166.38
	FillingsUpdate:  mu: -0.101651509  nElectrons: 3.000000  magneticMoment: [ Abs: 0.70093  Tot: -0.70000 ]
SCF: Cycle: 28   F: -7.049280273245307   dF: -6.662e-08   |Residual|: 4.780e-05   |deigs|: 5.892e-05  t[s]:    171.91
	FillingsUpdate:  mu: -0.101661931  nElectrons: 3.000000  magneticMoment: [ Abs: 0.70073  Tot: -0.70000 ]
SCF: Cycle: 29   F: -7.049280297566520   dF: -2.432e-08   |Residual|: 3.916e-05   |deigs|: 5.068e-05  t[s]:    177.38
	FillingsUpdate:  mu: -0.101681499  nElectrons: 3.000000  magneticMoment: [ Abs: 0.70053  Tot: -0.70000 ]
SCF: Cycle: 30   F: -7.049280295584482   dF: +1.982e-09   |Residual|: 2.835e-05   |deigs|: 4.732e-05  t[s]:    182.92
	FillingsUpdate:  mu: -0.101703931  nElectrons: 3.000000  magneticMoment: [ Abs: 0.70031  Tot: -0.70000 ]
SCF: Cycle: 31   F: -7.049280324188037   dF: -2.860e-08   |Residual|: 1.861e-05   |deigs|: 4.340e-05  t[s]:    188.46
	FillingsUpdate:  mu: -0.101711541  nElectrons: 3.000000  magneticMoment: [ Abs: 0.70012  Tot: -0.70000 ]
SCF: Cycle: 32   F: -7.049280333387065   dF: -9.199e-09   |Residual|: 1.252e-05   |deigs|: 3.480e-05  t[s]:    194.01
	FillingsUpdate:  mu: -0.101713566  nElectrons: 3.000000  magneticMoment: [ Abs: 0.70004  Tot: -0.70000 ]
SCF: Cycle: 33   F: -7.049280337065368   dF: -3.678e-09   |Residual|: 9.000e-06   |deigs|: 2.899e-05  t[s]:    199.60
SCF: Converged (|Delta E|<1.000000e-08 for 2 iters).


# Ionic positions in lattice coordinates:
ion Li   0.000000000000000   0.000000000000000   0.000000000000000 0

# Forces in Lattice coordinates:
force Li  -0.000000000000000   0.000000000000000   0.000000000000000 0

# Energy components:
   Eewald =       -1.0026681166851483
       EH =        2.5571455083213661
     Eloc =       -8.2375670464445481
      Enl =       -3.6049849010638244
   Epulay =        0.0000051497655618
      Exc =       -1.5416526154156980
       KE =        4.7804426434655474
-------------------------------------
     Etot =       -7.0492793780567427
       TS =        0.0000009590086253
-------------------------------------
        F =       -7.0492803370653681

IonicMinimize: Iter:   0  F: -7.049280337065368  |grad|_K:  0.000e+00  t[s]:    199.84
IonicMinimize: Converged (|grad|_K<1.000000e-04).

#--- Lowdin population analysis ---
# oxidation-state Li +2.070
# magnetic-moments Li -0.649

End date and time: Sat Feb  5 22:52:16 2022  (Duration: 0-0:03:19.87)
Done!
