
*************** JDFTx 1.6.0 (git hash 42ebbcc2) ***************

Start date and time: Sat Feb  5 23:03:33 2022
Executable jdftx with command-line: -i Alkali.in
Running on hosts (process indices):  d-6-3-2 (0-18)
Divided in process groups (process indices):  0 (0)  1 (1)  2 (2)  3 (3)  4 (4)  5 (5)  6 (6)  7 (7)  8 (8)  9 (9)  10 (10)  11 (11)  12 (12)  13 (13)  14 (14)  15 (15)  16 (16)  17 (17)  18 (18)
Resource initialization completed at t[s]:      0.00
Run totals: 19 processes, 48 threads, 0 GPUs


Input parsed successfully to the following command list (including defaults):

basis kpoint-dependent
coords-type Lattice
core-overlap-check vector
coulomb-interaction Slab 001
davidson-band-ratio 1.1
dump End None
dump-name $INPUT.$VAR
elec-cutoff 20
elec-eigen-algo Davidson
elec-ex-corr gga-PBE
elec-initial-magnetization 0.320000 yes
elec-smearing Fermi 1e-05
electronic-minimize  \
	dirUpdateScheme      FletcherReeves \
	linminMethod         DirUpdateRecommended \
	nIterations          100 \
	history              15 \
	knormThreshold       0 \
	energyDiffThreshold  1e-08 \
	nEnergyDiff          2 \
	alphaTstart          1 \
	alphaTmin            1e-10 \
	updateTestStepSize   yes \
	alphaTreduceFactor   0.1 \
	alphaTincreaseFactor 3 \
	nAlphaAdjustMax      3 \
	wolfeEnergy          0.0001 \
	wolfeGradient        0.9 \
	fdTest               no
electronic-scf  \
	nIterations	10000 \
	energyDiffThreshold	1e-08 \
	residualThreshold	1e-07 \
	mixFraction	0.5 \
	qMetric	0.8 \
	history	10 \
	nEigSteps	2 \
	eigDiffThreshold	1e-08 \
	mixedVariable	Density \
	qKerker	0.8 \
	qKappa	-1 \
	verbose	no \
	mixFractionMag	1.5
exchange-regularization WignerSeitzTruncated
fluid None
fluid-ex-corr (null) lda-PZ
fluid-gummel-loop 10 1.000000e-05
fluid-minimize  \
	dirUpdateScheme      PolakRibiere \
	linminMethod         DirUpdateRecommended \
	nIterations          100 \
	history              15 \
	knormThreshold       0 \
	energyDiffThreshold  0 \
	nEnergyDiff          2 \
	alphaTstart          1 \
	alphaTmin            1e-10 \
	updateTestStepSize   yes \
	alphaTreduceFactor   0.1 \
	alphaTincreaseFactor 3 \
	nAlphaAdjustMax      3 \
	wolfeEnergy          0.0001 \
	wolfeGradient        0.9 \
	fdTest               no
fluid-solvent H2O 55.338 ScalarEOS \
	epsBulk 78.4 \
	pMol 0.92466 \
	epsInf 1.77 \
	Pvap 1.06736e-10 \
	sigmaBulk 4.62e-05 \
	Rvdw 2.61727 \
	Res 1.42 \
	tauNuc 343133 \
	poleEl 15 7 1
forces-output-coords Positions
ion Li   0.000000000000000   0.000000000000000   0.000000000000000 0
ion-species SG15/$ID_ONCV_PBE.upf
ion-width 0
ionic-minimize  \
	dirUpdateScheme      L-BFGS \
	linminMethod         DirUpdateRecommended \
	nIterations          0 \
	history              15 \
	knormThreshold       0.0001 \
	energyDiffThreshold  1e-06 \
	nEnergyDiff          2 \
	alphaTstart          1 \
	alphaTmin            1e-10 \
	updateTestStepSize   yes \
	alphaTreduceFactor   0.1 \
	alphaTincreaseFactor 3 \
	nAlphaAdjustMax      3 \
	wolfeEnergy          0.0001 \
	wolfeGradient        0.9 \
	fdTest               no
kpoint   0.000000000000   0.000000000000   0.000000000000  1.00000000000000
kpoint-folding 12 12 1 
latt-move-scale 1 1 1
latt-scale 4 4 1 
lattice  \
	   4.727486978767153   -2.363743489383575    0.000000000000000  \
	  -0.000000000000000    4.094123819672498    0.000000000000000  \
	   0.000000000000000    0.000000000000000   40.000000000000000 
lattice-minimize  \
	dirUpdateScheme      L-BFGS \
	linminMethod         DirUpdateRecommended \
	nIterations          0 \
	history              15 \
	knormThreshold       0 \
	energyDiffThreshold  1e-06 \
	nEnergyDiff          2 \
	alphaTstart          1 \
	alphaTmin            1e-10 \
	updateTestStepSize   yes \
	alphaTreduceFactor   0.1 \
	alphaTincreaseFactor 3 \
	nAlphaAdjustMax      3 \
	wolfeEnergy          0.0001 \
	wolfeGradient        0.9 \
	fdTest               no
lcao-params -1 1e-06 1e-05
pcm-variant GLSSA13
spintype z-spin
subspace-rotation-factor 1 yes
symmetries automatic
symmetry-threshold 0.0001



---------- Setting up symmetries ----------

Found 24 point-group symmetries of the bravais lattice
Found 24 space-group symmetries with basis
Applied RMS atom displacement 0 bohrs to make symmetries exact.

---------- Initializing the Grid ----------
R = 
[      18.9099     -9.45497            0  ]
[            0      16.3765            0  ]
[            0            0           40  ]
unit cell volume = 12387.1
G =
[   0.332269   0.191835         -0  ]
[          0   0.383671         -0  ]
[         -0         -0    0.15708  ]
Minimum fftbox size, Smin = [  80  80  164  ]
Chosen fftbox size, S = [  80  80  168  ]

---------- Exchange Correlation functional ----------
Initalized PBE GGA exchange.
Initalized PBE GGA correlation.

---------- Setting up pseudopotentials ----------
Width of ionic core gaussian charges (only for fluid interactions / plotting) set to 0

Reading pseudopotential file '/home/gridsan/aligho/DFT/build-Nov24/pseudopotentials/SG15/Li_ONCV_PBE.upf':
  'Li' pseudopotential, 'PBE' functional
  Generated using ONCVPSP code by D. R. Hamann
  Author: Martin Schlipf and Francois Gygi  Date: 150915.
  3 valence electrons, 2 orbitals, 4 projectors, 1328 radial grid points, with lMax = 1
  Transforming local potential to a uniform radial grid of dG=0.02 with 1489 points.
  Transforming nonlocal projectors to a uniform radial grid of dG=0.02 with 432 points.
    1S    l: 0   occupation:  2.0   eigenvalue: -1.905623
    2S    l: 0   occupation:  1.0   eigenvalue: -0.105624
  Transforming atomic orbitals to a uniform radial grid of dG=0.02 with 432 points.
  WARNING: large normalization error in atomic orbital 1s (integral: 0.000000).
  Core radius for overlap checks: 1.63 bohrs.
  Reading pulay file /home/gridsan/aligho/DFT/build-Nov24/pseudopotentials/SG15/Li_ONCV_PBE.pulay ... using dE_dnG = -1.230239e-02 computed for Ecut = 20.

Initialized 1 species with 1 total atoms.

Folded 1 k-points by 12x12x1 to 144 k-points.

---------- Setting up k-points, bands, fillings ----------
Reduced to 19 k-points under symmetry. 
Computing the number of bands and number of electrons
Calculating initial fillings.
nElectrons:   3.000000   nBands: 3   nStates: 38

----- Setting up reduced wavefunction bases (one per k-point) -----
average nbasis = 52924.021 , ideal nbasis = 52918.836

---------- Setting up coulomb interaction ----------
Initialized slab truncation along lattice direction 001

---------- Setting up 2D ewald sum ----------
Optimum gaussian width for ewald sums = 10.498040 bohr.
Real space sums over 289 unit cells with max indices [  8  8  0  ]
Reciprocal space sums over 81 terms with max indices [  4  4  0  ]

---------- Allocating electronic variables ----------
Initializing wave functions:  linear combination of atomic orbitals
Note: number of bands (3) exceeds available atomic orbitals (2)
Li pseudo-atom occupations:   s ( 2 1 )
	FillingsUpdate:  mu: +0.360362345  nElectrons: 3.000000  magneticMoment: [ Abs: 0.32000  Tot: +0.32000 ]
LCAOMinimize: Iter:   0  F: -1.3106398800577166  |grad|_K:  4.123e-05  alpha:  1.000e+00
	FillingsUpdate:  mu: +0.360361951  nElectrons: 3.000000  magneticMoment: [ Abs: 0.32000  Tot: +0.32000 ]
LCAOMinimize: Iter:   1  F: -1.3106401878075165  |grad|_K:  8.341e-08  alpha:  1.059e+00  linmin: -1.330e-02  cgtest:  3.562e-02  t[s]:     12.54
LCAOMinimize: Encountered beta<0, resetting CG.
LCAOMinimize: 	Step increased F by 1.310063e-13, reducing alpha to 7.349078e-02.
LCAOMinimize: 	Step increased F by 3.301803e-13, reducing alpha to 7.349078e-03.
	FillingsUpdate:  mu: +0.360361951  nElectrons: 3.000000  magneticMoment: [ Abs: 0.32000  Tot: +0.32000 ]
LCAOMinimize: Iter:   2  F: -1.3106401878077742  |grad|_K:  8.282e-08  alpha:  7.349e-03  linmin: -1.895e-02  cgtest:  1.000e+00  t[s]:     19.30
LCAOMinimize: Encountered beta<0, resetting CG.
LCAOMinimize: Converged (|Delta F|<1.000000e-06 for 2 iters).


---- Citations for features of the code used in this run ----

   Software package:
      R. Sundararaman, K. Letchworth-Weaver, K.A. Schwarz, D. Gunceler, Y. Ozhabes and T.A. Arias, 'JDFTx: software for joint density-functional theory', SoftwareX 6, 278 (2017)

   gga-PBE exchange-correlation functional:
      J.P. Perdew, K. Burke and M. Ernzerhof, Phys. Rev. Lett. 77, 3865 (1996)

   Pseudopotentials:
      M Schlipf and F Gygi, Comput. Phys. Commun. 196, 36 (2015)

   Truncated Coulomb potentials:
      R. Sundararaman and T.A. Arias, Phys. Rev. B 87, 165122 (2013)

This list may not be complete. Please suggest additional citations or
report any other bugs at https://github.com/shankar1729/jdftx/issues

Initialization completed successfully at t[s]:     19.44


-------- Electronic minimization -----------
Will mix electronic density at each iteration.
	FillingsUpdate:  mu: +0.360361951  nElectrons: 3.000000  magneticMoment: [ Abs: 0.32000  Tot: +0.32000 ]
	FillingsUpdate:  mu: -0.612353792  nElectrons: 3.000000  magneticMoment: [ Abs: 0.32000  Tot: +0.32000 ]
SCF: Cycle:  0   F: -6.870405022257431   dF: -5.560e+00   |Residual|: 1.230e+00   |deigs|: 4.155e+00  t[s]:     25.02
	FillingsUpdate:  mu: -0.490800624  nElectrons: 3.000000  magneticMoment: [ Abs: 0.55048  Tot: +0.32000 ]
SCF: Cycle:  1   F: -6.915643353939549   dF: -4.524e-02   |Residual|: 7.608e-01   |deigs|: 2.766e-01  t[s]:     29.45
	FillingsUpdate:  mu: -0.253630679  nElectrons: 3.000000  magneticMoment: [ Abs: 0.70954  Tot: +0.32000 ]
SCF: Cycle:  2   F: -7.036851971150623   dF: -1.212e-01   |Residual|: 3.189e-01   |deigs|: 7.071e-01  t[s]:     33.99
	FillingsUpdate:  mu: -0.267084379  nElectrons: 3.000000  magneticMoment: [ Abs: 0.66813  Tot: +0.32000 ]
SCF: Cycle:  3   F: -7.037376664791187   dF: -5.247e-04   |Residual|: 1.880e-01   |deigs|: 7.137e-02  t[s]:     38.69
	FillingsUpdate:  mu: -0.233982992  nElectrons: 3.000000  magneticMoment: [ Abs: 0.64664  Tot: +0.32000 ]
SCF: Cycle:  4   F: -7.036114491641790   dF: +1.262e-03   |Residual|: 6.298e-02   |deigs|: 2.882e-02  t[s]:     43.52
	FillingsUpdate:  mu: -0.222677611  nElectrons: 3.000000  magneticMoment: [ Abs: 0.63412  Tot: +0.32000 ]
SCF: Cycle:  5   F: -7.037408362611543   dF: -1.294e-03   |Residual|: 1.202e-01   |deigs|: 1.044e-02  t[s]:     48.40
	FillingsUpdate:  mu: -0.199715553  nElectrons: 3.000000  magneticMoment: [ Abs: 0.54184  Tot: +0.32000 ]
SCF: Cycle:  6   F: -7.041293815133633   dF: -3.885e-03   |Residual|: 2.733e-02   |deigs|: 6.373e-02  t[s]:     53.34
	FillingsUpdate:  mu: -0.178493451  nElectrons: 3.000000  magneticMoment: [ Abs: 0.43586  Tot: +0.32000 ]
SCF: Cycle:  7   F: -7.043237400275673   dF: -1.944e-03   |Residual|: 1.080e-01   |deigs|: 6.463e-02  t[s]:     58.41
	FillingsUpdate:  mu: -0.183568787  nElectrons: 3.000000  magneticMoment: [ Abs: 0.37258  Tot: +0.32000 ]
SCF: Cycle:  8   F: -7.043435348490596   dF: -1.979e-04   |Residual|: 6.523e-02   |deigs|: 1.966e-02  t[s]:     63.55
	FillingsUpdate:  mu: -0.189155079  nElectrons: 3.000000  magneticMoment: [ Abs: 0.44148  Tot: +0.32000 ]
SCF: Cycle:  9   F: -7.043826714940281   dF: -3.914e-04   |Residual|: 1.005e-01   |deigs|: 6.630e-02  t[s]:     68.94
	FillingsUpdate:  mu: -0.167845041  nElectrons: 3.000000  magneticMoment: [ Abs: 0.41587  Tot: +0.32000 ]
SCF: Cycle: 10   F: -7.044718618007926   dF: -8.919e-04   |Residual|: 6.568e-02   |deigs|: 2.907e-02  t[s]:     74.36
	FillingsUpdate:  mu: -0.153976706  nElectrons: 3.000000  magneticMoment: [ Abs: 0.44031  Tot: +0.32000 ]
SCF: Cycle: 11   F: -7.045031084619472   dF: -3.125e-04   |Residual|: 3.485e-02   |deigs|: 4.391e-02  t[s]:     79.80
	FillingsUpdate:  mu: -0.149362742  nElectrons: 3.000000  magneticMoment: [ Abs: 0.38226  Tot: +0.32000 ]
SCF: Cycle: 12   F: -7.045171073915955   dF: -1.400e-04   |Residual|: 1.240e-02   |deigs|: 1.443e-02  t[s]:     85.30
	FillingsUpdate:  mu: -0.130393013  nElectrons: 3.000000  magneticMoment: [ Abs: 0.43153  Tot: +0.32000 ]
SCF: Cycle: 13   F: -7.045353885290138   dF: -1.828e-04   |Residual|: 6.976e-03   |deigs|: 2.139e-02  t[s]:     90.76
	FillingsUpdate:  mu: -0.121857203  nElectrons: 3.000000  magneticMoment: [ Abs: 0.42278  Tot: +0.32000 ]
SCF: Cycle: 14   F: -7.045380160253042   dF: -2.627e-05   |Residual|: 5.829e-03   |deigs|: 1.010e-02  t[s]:     96.26
	FillingsUpdate:  mu: -0.113846026  nElectrons: 3.000000  magneticMoment: [ Abs: 0.40261  Tot: +0.32000 ]
SCF: Cycle: 15   F: -7.045372796914171   dF: +7.363e-06   |Residual|: 4.084e-03   |deigs|: 7.592e-03  t[s]:    101.71
	FillingsUpdate:  mu: -0.111148101  nElectrons: 3.000000  magneticMoment: [ Abs: 0.39817  Tot: +0.32000 ]
SCF: Cycle: 16   F: -7.045408660883065   dF: -3.586e-05   |Residual|: 3.146e-03   |deigs|: 2.496e-03  t[s]:    107.15
	FillingsUpdate:  mu: -0.108638088  nElectrons: 3.000000  magneticMoment: [ Abs: 0.37385  Tot: +0.32000 ]
SCF: Cycle: 17   F: -7.045379970579360   dF: +2.869e-05   |Residual|: 2.214e-03   |deigs|: 2.372e-03  t[s]:    112.61
	FillingsUpdate:  mu: -0.107059521  nElectrons: 3.000000  magneticMoment: [ Abs: 0.36679  Tot: +0.32000 ]
SCF: Cycle: 18   F: -7.045413353965024   dF: -3.338e-05   |Residual|: 1.645e-03   |deigs|: 1.474e-03  t[s]:    118.05
	FillingsUpdate:  mu: -0.106429819  nElectrons: 3.000000  magneticMoment: [ Abs: 0.35358  Tot: +0.32000 ]
SCF: Cycle: 19   F: -7.045427278525624   dF: -1.392e-05   |Residual|: 1.310e-03   |deigs|: 9.426e-04  t[s]:    123.48
	FillingsUpdate:  mu: -0.105945834  nElectrons: 3.000000  magneticMoment: [ Abs: 0.34128  Tot: +0.32000 ]
SCF: Cycle: 20   F: -7.045463138842821   dF: -3.586e-05   |Residual|: 8.795e-04   |deigs|: 7.809e-04  t[s]:    128.88
	FillingsUpdate:  mu: -0.105143222  nElectrons: 3.000000  magneticMoment: [ Abs: 0.33562  Tot: +0.32000 ]
SCF: Cycle: 21   F: -7.045480930399798   dF: -1.779e-05   |Residual|: 6.589e-04   |deigs|: 9.849e-04  t[s]:    134.34
	FillingsUpdate:  mu: -0.104661101  nElectrons: 3.000000  magneticMoment: [ Abs: 0.33029  Tot: +0.32000 ]
SCF: Cycle: 22   F: -7.045489066482390   dF: -8.136e-06   |Residual|: 4.563e-04   |deigs|: 5.329e-04  t[s]:    139.82
	FillingsUpdate:  mu: -0.104528833  nElectrons: 3.000000  magneticMoment: [ Abs: 0.32711  Tot: +0.32000 ]
SCF: Cycle: 23   F: -7.045492539782622   dF: -3.473e-06   |Residual|: 3.239e-04   |deigs|: 1.557e-04  t[s]:    145.22
	FillingsUpdate:  mu: -0.104485276  nElectrons: 3.000000  magneticMoment: [ Abs: 0.32521  Tot: +0.32000 ]
SCF: Cycle: 24   F: -7.045494060088867   dF: -1.520e-06   |Residual|: 2.293e-04   |deigs|: 9.284e-05  t[s]:    150.57
	FillingsUpdate:  mu: -0.104668597  nElectrons: 3.000000  magneticMoment: [ Abs: 0.32306  Tot: +0.32000 ]
SCF: Cycle: 25   F: -7.045495262516180   dF: -1.202e-06   |Residual|: 1.269e-04   |deigs|: 2.748e-04  t[s]:    156.00
	FillingsUpdate:  mu: -0.104729132  nElectrons: 3.000000  magneticMoment: [ Abs: 0.32252  Tot: +0.32000 ]
SCF: Cycle: 26   F: -7.045495505279664   dF: -2.428e-07   |Residual|: 9.766e-05   |deigs|: 1.160e-04  t[s]:    161.44
	FillingsUpdate:  mu: -0.104828912  nElectrons: 3.000000  magneticMoment: [ Abs: 0.32167  Tot: +0.32000 ]
SCF: Cycle: 27   F: -7.045495588733431   dF: -8.345e-08   |Residual|: 6.653e-05   |deigs|: 1.405e-04  t[s]:    166.91
	FillingsUpdate:  mu: -0.104864136  nElectrons: 3.000000  magneticMoment: [ Abs: 0.32113  Tot: +0.32000 ]
SCF: Cycle: 28   F: -7.045495660116096   dF: -7.138e-08   |Residual|: 4.504e-05   |deigs|: 8.122e-05  t[s]:    172.38
	FillingsUpdate:  mu: -0.104880768  nElectrons: 3.000000  magneticMoment: [ Abs: 0.32072  Tot: +0.32000 ]
SCF: Cycle: 29   F: -7.045495693260555   dF: -3.314e-08   |Residual|: 2.672e-05   |deigs|: 5.734e-05  t[s]:    177.89
	FillingsUpdate:  mu: -0.104890583  nElectrons: 3.000000  magneticMoment: [ Abs: 0.32054  Tot: +0.32000 ]
SCF: Cycle: 30   F: -7.045495719940536   dF: -2.668e-08   |Residual|: 2.005e-05   |deigs|: 4.671e-05  t[s]:    183.31
	FillingsUpdate:  mu: -0.104903967  nElectrons: 3.000000  magneticMoment: [ Abs: 0.32034  Tot: +0.32000 ]
SCF: Cycle: 31   F: -7.045495716967252   dF: +2.973e-09   |Residual|: 1.273e-05   |deigs|: 4.124e-05  t[s]:    188.76
	FillingsUpdate:  mu: -0.104909428  nElectrons: 3.000000  magneticMoment: [ Abs: 0.32024  Tot: +0.32000 ]
SCF: Cycle: 32   F: -7.045495731714374   dF: -1.475e-08   |Residual|: 9.791e-06   |deigs|: 3.291e-05  t[s]:    194.21
	FillingsUpdate:  mu: -0.104909972  nElectrons: 3.000000  magneticMoment: [ Abs: 0.32015  Tot: +0.32000 ]
SCF: Cycle: 33   F: -7.045495733618879   dF: -1.905e-09   |Residual|: 7.843e-06   |deigs|: 2.617e-05  t[s]:    199.65
	FillingsUpdate:  mu: -0.104908103  nElectrons: 3.000000  magneticMoment: [ Abs: 0.32010  Tot: +0.32000 ]
SCF: Cycle: 34   F: -7.045495740281335   dF: -6.662e-09   |Residual|: 6.258e-06   |deigs|: 2.205e-05  t[s]:    205.09
SCF: Converged (|Delta E|<1.000000e-08 for 2 iters).


# Ionic positions in lattice coordinates:
ion Li   0.000000000000000   0.000000000000000   0.000000000000000 0

# Forces in Lattice coordinates:
force Li  -0.000000000000000   0.000000000000000   0.000000000000000 0

# Energy components:
   Eewald =       -1.0026681166851483
       EH =        2.5478180860232666
     Eloc =       -8.2259499148527979
      Enl =       -3.6035543435787107
   Epulay =        0.0000051497655618
      Exc =       -1.5355538135733147
       KE =        4.7744086652090711
-------------------------------------
     Etot =       -7.0454942876920708
       TS =        0.0000014525892639
-------------------------------------
        F =       -7.0454957402813347

IonicMinimize: Iter:   0  F: -7.045495740281335  |grad|_K:  0.000e+00  t[s]:    205.32
IonicMinimize: Converged (|grad|_K<1.000000e-04).

#--- Lowdin population analysis ---
# oxidation-state Li +2.080
# magnetic-moments Li +0.296

End date and time: Sat Feb  5 23:06:58 2022  (Duration: 0-0:03:25.36)
Done!
