
*************** JDFTx 1.6.0 (git hash 42ebbcc2) ***************

Start date and time: Sat Feb  5 23:11:02 2022
Executable jdftx with command-line: -i Alkali.in
Running on hosts (process indices):  d-5-12-1 (0-18)
Divided in process groups (process indices):  0 (0)  1 (1)  2 (2)  3 (3)  4 (4)  5 (5)  6 (6)  7 (7)  8 (8)  9 (9)  10 (10)  11 (11)  12 (12)  13 (13)  14 (14)  15 (15)  16 (16)  17 (17)  18 (18)
Resource initialization completed at t[s]:      0.00
Run totals: 19 processes, 48 threads, 0 GPUs


Input parsed successfully to the following command list (including defaults):

basis kpoint-dependent
coords-type Lattice
core-overlap-check vector
coulomb-interaction Slab 001
davidson-band-ratio 1.1
dump End None
dump-name $INPUT.$VAR
elec-cutoff 20
elec-eigen-algo Davidson
elec-ex-corr gga-PBE
elec-initial-magnetization 0.760000 yes
elec-smearing Fermi 1e-05
electronic-minimize  \
	dirUpdateScheme      FletcherReeves \
	linminMethod         DirUpdateRecommended \
	nIterations          100 \
	history              15 \
	knormThreshold       0 \
	energyDiffThreshold  1e-08 \
	nEnergyDiff          2 \
	alphaTstart          1 \
	alphaTmin            1e-10 \
	updateTestStepSize   yes \
	alphaTreduceFactor   0.1 \
	alphaTincreaseFactor 3 \
	nAlphaAdjustMax      3 \
	wolfeEnergy          0.0001 \
	wolfeGradient        0.9 \
	fdTest               no
electronic-scf  \
	nIterations	10000 \
	energyDiffThreshold	1e-08 \
	residualThreshold	1e-07 \
	mixFraction	0.5 \
	qMetric	0.8 \
	history	10 \
	nEigSteps	2 \
	eigDiffThreshold	1e-08 \
	mixedVariable	Density \
	qKerker	0.8 \
	qKappa	-1 \
	verbose	no \
	mixFractionMag	1.5
exchange-regularization WignerSeitzTruncated
fluid None
fluid-ex-corr (null) lda-PZ
fluid-gummel-loop 10 1.000000e-05
fluid-minimize  \
	dirUpdateScheme      PolakRibiere \
	linminMethod         DirUpdateRecommended \
	nIterations          100 \
	history              15 \
	knormThreshold       0 \
	energyDiffThreshold  0 \
	nEnergyDiff          2 \
	alphaTstart          1 \
	alphaTmin            1e-10 \
	updateTestStepSize   yes \
	alphaTreduceFactor   0.1 \
	alphaTincreaseFactor 3 \
	nAlphaAdjustMax      3 \
	wolfeEnergy          0.0001 \
	wolfeGradient        0.9 \
	fdTest               no
fluid-solvent H2O 55.338 ScalarEOS \
	epsBulk 78.4 \
	pMol 0.92466 \
	epsInf 1.77 \
	Pvap 1.06736e-10 \
	sigmaBulk 4.62e-05 \
	Rvdw 2.61727 \
	Res 1.42 \
	tauNuc 343133 \
	poleEl 15 7 1
forces-output-coords Positions
ion Li   0.000000000000000   0.000000000000000   0.000000000000000 0
ion-species SG15/$ID_ONCV_PBE.upf
ion-width 0
ionic-minimize  \
	dirUpdateScheme      L-BFGS \
	linminMethod         DirUpdateRecommended \
	nIterations          0 \
	history              15 \
	knormThreshold       0.0001 \
	energyDiffThreshold  1e-06 \
	nEnergyDiff          2 \
	alphaTstart          1 \
	alphaTmin            1e-10 \
	updateTestStepSize   yes \
	alphaTreduceFactor   0.1 \
	alphaTincreaseFactor 3 \
	nAlphaAdjustMax      3 \
	wolfeEnergy          0.0001 \
	wolfeGradient        0.9 \
	fdTest               no
kpoint   0.000000000000   0.000000000000   0.000000000000  1.00000000000000
kpoint-folding 12 12 1 
latt-move-scale 1 1 1
latt-scale 4 4 1 
lattice  \
	   4.727486978767153   -2.363743489383575    0.000000000000000  \
	  -0.000000000000000    4.094123819672498    0.000000000000000  \
	   0.000000000000000    0.000000000000000   40.000000000000000 
lattice-minimize  \
	dirUpdateScheme      L-BFGS \
	linminMethod         DirUpdateRecommended \
	nIterations          0 \
	history              15 \
	knormThreshold       0 \
	energyDiffThreshold  1e-06 \
	nEnergyDiff          2 \
	alphaTstart          1 \
	alphaTmin            1e-10 \
	updateTestStepSize   yes \
	alphaTreduceFactor   0.1 \
	alphaTincreaseFactor 3 \
	nAlphaAdjustMax      3 \
	wolfeEnergy          0.0001 \
	wolfeGradient        0.9 \
	fdTest               no
lcao-params -1 1e-06 1e-05
pcm-variant GLSSA13
spintype z-spin
subspace-rotation-factor 1 yes
symmetries automatic
symmetry-threshold 0.0001



---------- Setting up symmetries ----------

Found 24 point-group symmetries of the bravais lattice
Found 24 space-group symmetries with basis
Applied RMS atom displacement 0 bohrs to make symmetries exact.

---------- Initializing the Grid ----------
R = 
[      18.9099     -9.45497            0  ]
[            0      16.3765            0  ]
[            0            0           40  ]
unit cell volume = 12387.1
G =
[   0.332269   0.191835         -0  ]
[          0   0.383671         -0  ]
[         -0         -0    0.15708  ]
Minimum fftbox size, Smin = [  80  80  164  ]
Chosen fftbox size, S = [  80  80  168  ]

---------- Exchange Correlation functional ----------
Initalized PBE GGA exchange.
Initalized PBE GGA correlation.

---------- Setting up pseudopotentials ----------
Width of ionic core gaussian charges (only for fluid interactions / plotting) set to 0

Reading pseudopotential file '/home/gridsan/aligho/DFT/build-Nov24/pseudopotentials/SG15/Li_ONCV_PBE.upf':
  'Li' pseudopotential, 'PBE' functional
  Generated using ONCVPSP code by D. R. Hamann
  Author: Martin Schlipf and Francois Gygi  Date: 150915.
  3 valence electrons, 2 orbitals, 4 projectors, 1328 radial grid points, with lMax = 1
  Transforming local potential to a uniform radial grid of dG=0.02 with 1489 points.
  Transforming nonlocal projectors to a uniform radial grid of dG=0.02 with 432 points.
    1S    l: 0   occupation:  2.0   eigenvalue: -1.905623
    2S    l: 0   occupation:  1.0   eigenvalue: -0.105624
  Transforming atomic orbitals to a uniform radial grid of dG=0.02 with 432 points.
  WARNING: large normalization error in atomic orbital 1s (integral: 0.000000).
  Core radius for overlap checks: 1.63 bohrs.
  Reading pulay file /home/gridsan/aligho/DFT/build-Nov24/pseudopotentials/SG15/Li_ONCV_PBE.pulay ... using dE_dnG = -1.230239e-02 computed for Ecut = 20.

Initialized 1 species with 1 total atoms.

Folded 1 k-points by 12x12x1 to 144 k-points.

---------- Setting up k-points, bands, fillings ----------
Reduced to 19 k-points under symmetry. 
Computing the number of bands and number of electrons
Calculating initial fillings.
nElectrons:   3.000000   nBands: 3   nStates: 38

----- Setting up reduced wavefunction bases (one per k-point) -----
average nbasis = 52924.021 , ideal nbasis = 52918.836

---------- Setting up coulomb interaction ----------
Initialized slab truncation along lattice direction 001

---------- Setting up 2D ewald sum ----------
Optimum gaussian width for ewald sums = 10.498040 bohr.
Real space sums over 289 unit cells with max indices [  8  8  0  ]
Reciprocal space sums over 81 terms with max indices [  4  4  0  ]

---------- Allocating electronic variables ----------
Initializing wave functions:  linear combination of atomic orbitals
Note: number of bands (3) exceeds available atomic orbitals (2)
Li pseudo-atom occupations:   s ( 2 1 )
	FillingsUpdate:  mu: +0.361590600  nElectrons: 3.000000  magneticMoment: [ Abs: 0.76000  Tot: +0.76000 ]
LCAOMinimize: Iter:   0  F: -1.3067144930426087  |grad|_K:  3.988e-05  alpha:  1.000e+00
	FillingsUpdate:  mu: +0.361590166  nElectrons: 3.000000  magneticMoment: [ Abs: 0.76000  Tot: +0.76000 ]
LCAOMinimize: Iter:   1  F: -1.3067147810590594  |grad|_K:  1.740e-07  alpha:  1.059e+00  linmin: -6.070e-03  cgtest:  1.758e-02  t[s]:     12.77
LCAOMinimize: Encountered beta<0, resetting CG.
	FillingsUpdate:  mu: +0.361590166  nElectrons: 3.000000  magneticMoment: [ Abs: 0.76000  Tot: +0.76000 ]
LCAOMinimize: Iter:   2  F: -1.3067147810615118  |grad|_K:  4.483e-08  alpha:  7.879e-01  linmin: -3.738e-02  cgtest:  9.913e-01  t[s]:     16.10
LCAOMinimize: Encountered beta<0, resetting CG.
LCAOMinimize: Converged (|Delta F|<1.000000e-06 for 2 iters).


---- Citations for features of the code used in this run ----

   Software package:
      R. Sundararaman, K. Letchworth-Weaver, K.A. Schwarz, D. Gunceler, Y. Ozhabes and T.A. Arias, 'JDFTx: software for joint density-functional theory', SoftwareX 6, 278 (2017)

   gga-PBE exchange-correlation functional:
      J.P. Perdew, K. Burke and M. Ernzerhof, Phys. Rev. Lett. 77, 3865 (1996)

   Pseudopotentials:
      M Schlipf and F Gygi, Comput. Phys. Commun. 196, 36 (2015)

   Truncated Coulomb potentials:
      R. Sundararaman and T.A. Arias, Phys. Rev. B 87, 165122 (2013)

This list may not be complete. Please suggest additional citations or
report any other bugs at https://github.com/shankar1729/jdftx/issues

Initialization completed successfully at t[s]:     16.24


-------- Electronic minimization -----------
Will mix electronic density at each iteration.
	FillingsUpdate:  mu: +0.361590166  nElectrons: 3.000000  magneticMoment: [ Abs: 0.76000  Tot: +0.76000 ]
	FillingsUpdate:  mu: -0.610634694  nElectrons: 3.000000  magneticMoment: [ Abs: 0.76000  Tot: +0.76000 ]
SCF: Cycle:  0   F: -6.883472778441449   dF: -5.577e+00   |Residual|: 1.230e+00   |deigs|: 4.155e+00  t[s]:     21.85
	FillingsUpdate:  mu: -0.484478476  nElectrons: 3.000000  magneticMoment: [ Abs: 1.30237  Tot: +0.76000 ]
SCF: Cycle:  1   F: -6.915689293099999   dF: -3.222e-02   |Residual|: 7.638e-01   |deigs|: 2.763e-01  t[s]:     26.34
	FillingsUpdate:  mu: -0.284956055  nElectrons: 3.000000  magneticMoment: [ Abs: 1.68548  Tot: +0.76000 ]
SCF: Cycle:  2   F: -7.037949109604321   dF: -1.223e-01   |Residual|: 3.214e-01   |deigs|: 7.023e-01  t[s]:     30.97
	FillingsUpdate:  mu: -0.291071575  nElectrons: 3.000000  magneticMoment: [ Abs: 1.48308  Tot: +0.76000 ]
SCF: Cycle:  3   F: -7.038142024198262   dF: -1.929e-04   |Residual|: 1.626e-01   |deigs|: 8.496e-02  t[s]:     35.76
	FillingsUpdate:  mu: -0.238090305  nElectrons: 3.000000  magneticMoment: [ Abs: 1.28537  Tot: +0.76000 ]
SCF: Cycle:  4   F: -7.042935150775526   dF: -4.793e-03   |Residual|: 4.001e-02   |deigs|: 4.876e-02  t[s]:     40.62
	FillingsUpdate:  mu: -0.221507496  nElectrons: 3.000000  magneticMoment: [ Abs: 1.25906  Tot: +0.76000 ]
SCF: Cycle:  5   F: -7.044298341532405   dF: -1.363e-03   |Residual|: 6.691e-02   |deigs|: 1.641e-02  t[s]:     45.60
	FillingsUpdate:  mu: -0.199973412  nElectrons: 3.000000  magneticMoment: [ Abs: 1.08184  Tot: +0.76000 ]
SCF: Cycle:  6   F: -7.046023724566426   dF: -1.725e-03   |Residual|: 2.811e-02   |deigs|: 4.410e-02  t[s]:     50.81
	FillingsUpdate:  mu: -0.183790371  nElectrons: 3.000000  magneticMoment: [ Abs: 0.98880  Tot: +0.76000 ]
SCF: Cycle:  7   F: -7.047935948235533   dF: -1.912e-03   |Residual|: 3.588e-02   |deigs|: 4.031e-02  t[s]:     55.96
	FillingsUpdate:  mu: -0.181583137  nElectrons: 3.000000  magneticMoment: [ Abs: 0.92556  Tot: +0.76000 ]
SCF: Cycle:  8   F: -7.048622458648368   dF: -6.865e-04   |Residual|: 3.281e-02   |deigs|: 2.863e-03  t[s]:     61.28
	FillingsUpdate:  mu: -0.178959158  nElectrons: 3.000000  magneticMoment: [ Abs: 0.87121  Tot: +0.76000 ]
SCF: Cycle:  9   F: -7.049289827790460   dF: -6.674e-04   |Residual|: 1.313e-02   |deigs|: 1.476e-02  t[s]:     66.77
	FillingsUpdate:  mu: -0.167949256  nElectrons: 3.000000  magneticMoment: [ Abs: 0.80192  Tot: +0.76000 ]
SCF: Cycle: 10   F: -7.049583842502643   dF: -2.940e-04   |Residual|: 3.503e-02   |deigs|: 9.391e-03  t[s]:     72.28
	FillingsUpdate:  mu: -0.157784507  nElectrons: 3.000000  magneticMoment: [ Abs: 0.83029  Tot: +0.76000 ]
SCF: Cycle: 11   F: -7.049605317266949   dF: -2.147e-05   |Residual|: 9.708e-03   |deigs|: 1.692e-02  t[s]:     77.84
	FillingsUpdate:  mu: -0.146065314  nElectrons: 3.000000  magneticMoment: [ Abs: 0.87957  Tot: +0.76000 ]
SCF: Cycle: 12   F: -7.049804622667429   dF: -1.993e-04   |Residual|: 1.093e-02   |deigs|: 9.615e-03  t[s]:     83.40
	FillingsUpdate:  mu: -0.127550472  nElectrons: 3.000000  magneticMoment: [ Abs: 0.92955  Tot: +0.76000 ]
SCF: Cycle: 13   F: -7.049965719334541   dF: -1.611e-04   |Residual|: 6.421e-03   |deigs|: 2.255e-02  t[s]:     89.01
	FillingsUpdate:  mu: -0.117984367  nElectrons: 3.000000  magneticMoment: [ Abs: 0.92771  Tot: +0.76000 ]
SCF: Cycle: 14   F: -7.049880679259314   dF: +8.504e-05   |Residual|: 5.665e-03   |deigs|: 9.904e-03  t[s]:     94.55
	FillingsUpdate:  mu: -0.113756699  nElectrons: 3.000000  magneticMoment: [ Abs: 0.91405  Tot: +0.76000 ]
SCF: Cycle: 15   F: -7.049955818634233   dF: -7.514e-05   |Residual|: 4.425e-03   |deigs|: 4.824e-03  t[s]:    100.05
	FillingsUpdate:  mu: -0.110252132  nElectrons: 3.000000  magneticMoment: [ Abs: 0.88253  Tot: +0.76000 ]
SCF: Cycle: 16   F: -7.050009919832410   dF: -5.410e-05   |Residual|: 3.513e-03   |deigs|: 4.079e-03  t[s]:    105.56
	FillingsUpdate:  mu: -0.106678111  nElectrons: 3.000000  magneticMoment: [ Abs: 0.84793  Tot: +0.76000 ]
SCF: Cycle: 17   F: -7.050002543625466   dF: +7.376e-06   |Residual|: 3.066e-03   |deigs|: 3.908e-03  t[s]:    111.07
	FillingsUpdate:  mu: -0.102262082  nElectrons: 3.000000  magneticMoment: [ Abs: 0.82704  Tot: +0.76000 ]
SCF: Cycle: 18   F: -7.050039494961257   dF: -3.695e-05   |Residual|: 2.218e-03   |deigs|: 5.096e-03  t[s]:    116.62
	FillingsUpdate:  mu: -0.101758245  nElectrons: 3.000000  magneticMoment: [ Abs: 0.80342  Tot: +0.76000 ]
SCF: Cycle: 19   F: -7.050087435983107   dF: -4.794e-05   |Residual|: 1.727e-03   |deigs|: 8.904e-04  t[s]:    122.12
	FillingsUpdate:  mu: -0.100469200  nElectrons: 3.000000  magneticMoment: [ Abs: 0.79385  Tot: +0.76000 ]
SCF: Cycle: 20   F: -7.050120406008223   dF: -3.297e-05   |Residual|: 1.173e-03   |deigs|: 1.510e-03  t[s]:    127.73
	FillingsUpdate:  mu: -0.100395279  nElectrons: 3.000000  magneticMoment: [ Abs: 0.78093  Tot: +0.76000 ]
SCF: Cycle: 21   F: -7.050138835165837   dF: -1.843e-05   |Residual|: 8.743e-04   |deigs|: 5.863e-04  t[s]:    133.26
	FillingsUpdate:  mu: -0.100803258  nElectrons: 3.000000  magneticMoment: [ Abs: 0.77141  Tot: +0.76000 ]
SCF: Cycle: 22   F: -7.050142445709631   dF: -3.611e-06   |Residual|: 6.626e-04   |deigs|: 4.220e-04  t[s]:    138.83
	FillingsUpdate:  mu: -0.100992691  nElectrons: 3.000000  magneticMoment: [ Abs: 0.76390  Tot: +0.76000 ]
SCF: Cycle: 23   F: -7.050149672526278   dF: -7.227e-06   |Residual|: 4.216e-04   |deigs|: 4.494e-04  t[s]:    144.36
	FillingsUpdate:  mu: -0.101241308  nElectrons: 3.000000  magneticMoment: [ Abs: 0.76191  Tot: +0.76000 ]
SCF: Cycle: 24   F: -7.050152032143976   dF: -2.360e-06   |Residual|: 3.027e-04   |deigs|: 3.786e-04  t[s]:    149.88
	FillingsUpdate:  mu: -0.101088165  nElectrons: 3.000000  magneticMoment: [ Abs: 0.76177  Tot: +0.76000 ]
SCF: Cycle: 25   F: -7.050154142853978   dF: -2.111e-06   |Residual|: 1.465e-04   |deigs|: 2.966e-04  t[s]:    155.39
	FillingsUpdate:  mu: -0.100984963  nElectrons: 3.000000  magneticMoment: [ Abs: 0.76130  Tot: +0.76000 ]
SCF: Cycle: 26   F: -7.050154700322457   dF: -5.575e-07   |Residual|: 1.036e-04   |deigs|: 1.052e-04  t[s]:    160.92
	FillingsUpdate:  mu: -0.100932487  nElectrons: 3.000000  magneticMoment: [ Abs: 0.76099  Tot: +0.76000 ]
SCF: Cycle: 27   F: -7.050154712075294   dF: -1.175e-08   |Residual|: 8.038e-05   |deigs|: 7.200e-05  t[s]:    166.51
	FillingsUpdate:  mu: -0.100865356  nElectrons: 3.000000  magneticMoment: [ Abs: 0.76075  Tot: +0.76000 ]
SCF: Cycle: 28   F: -7.050154794903422   dF: -8.283e-08   |Residual|: 5.520e-05   |deigs|: 7.217e-05  t[s]:    172.12
	FillingsUpdate:  mu: -0.100857152  nElectrons: 3.000000  magneticMoment: [ Abs: 0.76042  Tot: +0.76000 ]
SCF: Cycle: 29   F: -7.050154822435981   dF: -2.753e-08   |Residual|: 4.009e-05   |deigs|: 3.627e-05  t[s]:    177.57
	FillingsUpdate:  mu: -0.100882416  nElectrons: 3.000000  magneticMoment: [ Abs: 0.76021  Tot: +0.76000 ]
SCF: Cycle: 30   F: -7.050154848976900   dF: -2.654e-08   |Residual|: 3.136e-05   |deigs|: 4.292e-05  t[s]:    183.10
	FillingsUpdate:  mu: -0.100888661  nElectrons: 3.000000  magneticMoment: [ Abs: 0.76005  Tot: +0.76000 ]
SCF: Cycle: 31   F: -7.050154848685930   dF: +2.910e-10   |Residual|: 2.365e-05   |deigs|: 3.297e-05  t[s]:    188.62
	FillingsUpdate:  mu: -0.100910881  nElectrons: 3.000000  magneticMoment: [ Abs: 0.76001  Tot: +0.76000 ]
SCF: Cycle: 32   F: -7.050154880406665   dF: -3.172e-08   |Residual|: 1.739e-05   |deigs|: 3.854e-05  t[s]:    194.11
	FillingsUpdate:  mu: -0.100928465  nElectrons: 3.000000  magneticMoment: [ Abs: 0.76000  Tot: +0.76000 ]
SCF: Cycle: 33   F: -7.050154884024410   dF: -3.618e-09   |Residual|: 1.263e-05   |deigs|: 3.564e-05  t[s]:    199.71
	FillingsUpdate:  mu: -0.100934443  nElectrons: 3.000000  magneticMoment: [ Abs: 0.76000  Tot: +0.76000 ]
SCF: Cycle: 34   F: -7.050154887754278   dF: -3.730e-09   |Residual|: 9.935e-06   |deigs|: 2.914e-05  t[s]:    205.20
SCF: Converged (|Delta E|<1.000000e-08 for 2 iters).


# Ionic positions in lattice coordinates:
ion Li   0.000000000000000   0.000000000000000   0.000000000000000 0

# Forces in Lattice coordinates:
force Li   0.000000000000000   0.000000000000000   0.000000000000000 0

# Energy components:
   Eewald =       -1.0026681166851483
       EH =        2.5591274445259939
     Eloc =       -8.2400298475220524
      Enl =       -3.6052993981397026
   Epulay =        0.0000051497655618
      Exc =       -1.5430339162007438
       KE =        4.7817444197773140
-------------------------------------
     Etot =       -7.0501542644787767
       TS =        0.0000006232755019
-------------------------------------
        F =       -7.0501548877542781

IonicMinimize: Iter:   0  F: -7.050154887754278  |grad|_K:  0.000e+00  t[s]:    205.44
IonicMinimize: Converged (|grad|_K<1.000000e-04).

#--- Lowdin population analysis ---
# oxidation-state Li +2.068
# magnetic-moments Li +0.704

End date and time: Sat Feb  5 23:14:28 2022  (Duration: 0-0:03:25.48)
Done!
