
*************** JDFTx 1.6.0 (git hash 42ebbcc2) ***************

Start date and time: Sat Feb  5 23:09:40 2022
Executable jdftx with command-line: -i Alkali.in
Running on hosts (process indices):  d-3-13-4 (0-18)
Divided in process groups (process indices):  0 (0)  1 (1)  2 (2)  3 (3)  4 (4)  5 (5)  6 (6)  7 (7)  8 (8)  9 (9)  10 (10)  11 (11)  12 (12)  13 (13)  14 (14)  15 (15)  16 (16)  17 (17)  18 (18)
Resource initialization completed at t[s]:      0.00
Run totals: 19 processes, 48 threads, 0 GPUs


Input parsed successfully to the following command list (including defaults):

basis kpoint-dependent
coords-type Lattice
core-overlap-check vector
coulomb-interaction Slab 001
davidson-band-ratio 1.1
dump End None
dump-name $INPUT.$VAR
elec-cutoff 20
elec-eigen-algo Davidson
elec-ex-corr gga-PBE
elec-initial-magnetization 0.540000 yes
elec-smearing Fermi 1e-05
electronic-minimize  \
	dirUpdateScheme      FletcherReeves \
	linminMethod         DirUpdateRecommended \
	nIterations          100 \
	history              15 \
	knormThreshold       0 \
	energyDiffThreshold  1e-08 \
	nEnergyDiff          2 \
	alphaTstart          1 \
	alphaTmin            1e-10 \
	updateTestStepSize   yes \
	alphaTreduceFactor   0.1 \
	alphaTincreaseFactor 3 \
	nAlphaAdjustMax      3 \
	wolfeEnergy          0.0001 \
	wolfeGradient        0.9 \
	fdTest               no
electronic-scf  \
	nIterations	10000 \
	energyDiffThreshold	1e-08 \
	residualThreshold	1e-07 \
	mixFraction	0.5 \
	qMetric	0.8 \
	history	10 \
	nEigSteps	2 \
	eigDiffThreshold	1e-08 \
	mixedVariable	Density \
	qKerker	0.8 \
	qKappa	-1 \
	verbose	no \
	mixFractionMag	1.5
exchange-regularization WignerSeitzTruncated
fluid None
fluid-ex-corr (null) lda-PZ
fluid-gummel-loop 10 1.000000e-05
fluid-minimize  \
	dirUpdateScheme      PolakRibiere \
	linminMethod         DirUpdateRecommended \
	nIterations          100 \
	history              15 \
	knormThreshold       0 \
	energyDiffThreshold  0 \
	nEnergyDiff          2 \
	alphaTstart          1 \
	alphaTmin            1e-10 \
	updateTestStepSize   yes \
	alphaTreduceFactor   0.1 \
	alphaTincreaseFactor 3 \
	nAlphaAdjustMax      3 \
	wolfeEnergy          0.0001 \
	wolfeGradient        0.9 \
	fdTest               no
fluid-solvent H2O 55.338 ScalarEOS \
	epsBulk 78.4 \
	pMol 0.92466 \
	epsInf 1.77 \
	Pvap 1.06736e-10 \
	sigmaBulk 4.62e-05 \
	Rvdw 2.61727 \
	Res 1.42 \
	tauNuc 343133 \
	poleEl 15 7 1
forces-output-coords Positions
ion Li   0.000000000000000   0.000000000000000   0.000000000000000 0
ion-species SG15/$ID_ONCV_PBE.upf
ion-width 0
ionic-minimize  \
	dirUpdateScheme      L-BFGS \
	linminMethod         DirUpdateRecommended \
	nIterations          0 \
	history              15 \
	knormThreshold       0.0001 \
	energyDiffThreshold  1e-06 \
	nEnergyDiff          2 \
	alphaTstart          1 \
	alphaTmin            1e-10 \
	updateTestStepSize   yes \
	alphaTreduceFactor   0.1 \
	alphaTincreaseFactor 3 \
	nAlphaAdjustMax      3 \
	wolfeEnergy          0.0001 \
	wolfeGradient        0.9 \
	fdTest               no
kpoint   0.000000000000   0.000000000000   0.000000000000  1.00000000000000
kpoint-folding 12 12 1 
latt-move-scale 1 1 1
latt-scale 4 4 1 
lattice  \
	   4.727486978767153   -2.363743489383575    0.000000000000000  \
	  -0.000000000000000    4.094123819672498    0.000000000000000  \
	   0.000000000000000    0.000000000000000   40.000000000000000 
lattice-minimize  \
	dirUpdateScheme      L-BFGS \
	linminMethod         DirUpdateRecommended \
	nIterations          0 \
	history              15 \
	knormThreshold       0 \
	energyDiffThreshold  1e-06 \
	nEnergyDiff          2 \
	alphaTstart          1 \
	alphaTmin            1e-10 \
	updateTestStepSize   yes \
	alphaTreduceFactor   0.1 \
	alphaTincreaseFactor 3 \
	nAlphaAdjustMax      3 \
	wolfeEnergy          0.0001 \
	wolfeGradient        0.9 \
	fdTest               no
lcao-params -1 1e-06 1e-05
pcm-variant GLSSA13
spintype z-spin
subspace-rotation-factor 1 yes
symmetries automatic
symmetry-threshold 0.0001



---------- Setting up symmetries ----------

Found 24 point-group symmetries of the bravais lattice
Found 24 space-group symmetries with basis
Applied RMS atom displacement 0 bohrs to make symmetries exact.

---------- Initializing the Grid ----------
R = 
[      18.9099     -9.45497            0  ]
[            0      16.3765            0  ]
[            0            0           40  ]
unit cell volume = 12387.1
G =
[   0.332269   0.191835         -0  ]
[          0   0.383671         -0  ]
[         -0         -0    0.15708  ]
Minimum fftbox size, Smin = [  80  80  164  ]
Chosen fftbox size, S = [  80  80  168  ]

---------- Exchange Correlation functional ----------
Initalized PBE GGA exchange.
Initalized PBE GGA correlation.

---------- Setting up pseudopotentials ----------
Width of ionic core gaussian charges (only for fluid interactions / plotting) set to 0

Reading pseudopotential file '/home/gridsan/aligho/DFT/build-Nov24/pseudopotentials/SG15/Li_ONCV_PBE.upf':
  'Li' pseudopotential, 'PBE' functional
  Generated using ONCVPSP code by D. R. Hamann
  Author: Martin Schlipf and Francois Gygi  Date: 150915.
  3 valence electrons, 2 orbitals, 4 projectors, 1328 radial grid points, with lMax = 1
  Transforming local potential to a uniform radial grid of dG=0.02 with 1489 points.
  Transforming nonlocal projectors to a uniform radial grid of dG=0.02 with 432 points.
    1S    l: 0   occupation:  2.0   eigenvalue: -1.905623
    2S    l: 0   occupation:  1.0   eigenvalue: -0.105624
  Transforming atomic orbitals to a uniform radial grid of dG=0.02 with 432 points.
  WARNING: large normalization error in atomic orbital 1s (integral: 0.000000).
  Core radius for overlap checks: 1.63 bohrs.
  Reading pulay file /home/gridsan/aligho/DFT/build-Nov24/pseudopotentials/SG15/Li_ONCV_PBE.pulay ... using dE_dnG = -1.230239e-02 computed for Ecut = 20.

Initialized 1 species with 1 total atoms.

Folded 1 k-points by 12x12x1 to 144 k-points.

---------- Setting up k-points, bands, fillings ----------
Reduced to 19 k-points under symmetry. 
Computing the number of bands and number of electrons
Calculating initial fillings.
nElectrons:   3.000000   nBands: 3   nStates: 38

----- Setting up reduced wavefunction bases (one per k-point) -----
average nbasis = 52924.021 , ideal nbasis = 52918.836

---------- Setting up coulomb interaction ----------
Initialized slab truncation along lattice direction 001

---------- Setting up 2D ewald sum ----------
Optimum gaussian width for ewald sums = 10.498040 bohr.
Real space sums over 289 unit cells with max indices [  8  8  0  ]
Reciprocal space sums over 81 terms with max indices [  4  4  0  ]

---------- Allocating electronic variables ----------
Initializing wave functions:  linear combination of atomic orbitals
Note: number of bands (3) exceeds available atomic orbitals (2)
Li pseudo-atom occupations:   s ( 2 1 )
	FillingsUpdate:  mu: +0.360629008  nElectrons: 3.000000  magneticMoment: [ Abs: 0.54000  Tot: +0.54000 ]
LCAOMinimize: Iter:   0  F: -1.3089243721369723  |grad|_K:  3.962e-05  alpha:  1.000e+00
	FillingsUpdate:  mu: +0.360628422  nElectrons: 3.000000  magneticMoment: [ Abs: 0.54000  Tot: +0.54000 ]
LCAOMinimize: Iter:   1  F: -1.3089246563324590  |grad|_K:  1.269e-07  alpha:  1.059e+00  linmin: -5.595e-03  cgtest:  2.409e-02  t[s]:     12.63
LCAOMinimize: Encountered beta<0, resetting CG.
LCAOMinimize: 	Wrong curvature in test step, increasing alphaT to 3.175853e+00.
	FillingsUpdate:  mu: +0.360628421  nElectrons: 3.000000  magneticMoment: [ Abs: 0.54000  Tot: +0.54000 ]
LCAOMinimize: Iter:   2  F: -1.3089246563393129  |grad|_K:  6.423e-09  alpha: -3.015e+00  linmin:  5.499e-03  cgtest: -4.200e-01  t[s]:     15.85
LCAOMinimize: Converged (|Delta F|<1.000000e-06 for 2 iters).


---- Citations for features of the code used in this run ----

   Software package:
      R. Sundararaman, K. Letchworth-Weaver, K.A. Schwarz, D. Gunceler, Y. Ozhabes and T.A. Arias, 'JDFTx: software for joint density-functional theory', SoftwareX 6, 278 (2017)

   gga-PBE exchange-correlation functional:
      J.P. Perdew, K. Burke and M. Ernzerhof, Phys. Rev. Lett. 77, 3865 (1996)

   Pseudopotentials:
      M Schlipf and F Gygi, Comput. Phys. Commun. 196, 36 (2015)

   Truncated Coulomb potentials:
      R. Sundararaman and T.A. Arias, Phys. Rev. B 87, 165122 (2013)

This list may not be complete. Please suggest additional citations or
report any other bugs at https://github.com/shankar1729/jdftx/issues

Initialization completed successfully at t[s]:     15.98


-------- Electronic minimization -----------
Will mix electronic density at each iteration.
	FillingsUpdate:  mu: +0.360628421  nElectrons: 3.000000  magneticMoment: [ Abs: 0.54000  Tot: +0.54000 ]
	FillingsUpdate:  mu: -0.612669206  nElectrons: 3.000000  magneticMoment: [ Abs: 0.54000  Tot: +0.54000 ]
SCF: Cycle:  0   F: -6.875305967040555   dF: -5.566e+00   |Residual|: 1.230e+00   |deigs|: 4.155e+00  t[s]:     21.65
	FillingsUpdate:  mu: -0.486199129  nElectrons: 3.000000  magneticMoment: [ Abs: 0.92681  Tot: +0.54000 ]
SCF: Cycle:  1   F: -6.916942978434467   dF: -4.164e-02   |Residual|: 7.620e-01   |deigs|: 2.767e-01  t[s]:     26.11
	FillingsUpdate:  mu: -0.272407479  nElectrons: 3.000000  magneticMoment: [ Abs: 1.19514  Tot: +0.54000 ]
SCF: Cycle:  2   F: -7.036931849680637   dF: -1.200e-01   |Residual|: 3.200e-01   |deigs|: 7.035e-01  t[s]:     30.81
	FillingsUpdate:  mu: -0.280447673  nElectrons: 3.000000  magneticMoment: [ Abs: 1.08230  Tot: +0.54000 ]
SCF: Cycle:  3   F: -7.037228231735994   dF: -2.964e-04   |Residual|: 1.807e-01   |deigs|: 7.515e-02  t[s]:     35.51
	FillingsUpdate:  mu: -0.233280361  nElectrons: 3.000000  magneticMoment: [ Abs: 0.94911  Tot: +0.54000 ]
SCF: Cycle:  4   F: -7.039418673288377   dF: -2.190e-03   |Residual|: 5.119e-02   |deigs|: 3.973e-02  t[s]:     40.35
	FillingsUpdate:  mu: -0.221101908  nElectrons: 3.000000  magneticMoment: [ Abs: 0.94517  Tot: +0.54000 ]
SCF: Cycle:  5   F: -7.040449803911312   dF: -1.031e-03   |Residual|: 9.275e-02   |deigs|: 1.295e-02  t[s]:     45.36
	FillingsUpdate:  mu: -0.198590144  nElectrons: 3.000000  magneticMoment: [ Abs: 0.79228  Tot: +0.54000 ]
SCF: Cycle:  6   F: -7.043190062534777   dF: -2.740e-03   |Residual|: 2.323e-02   |deigs|: 5.559e-02  t[s]:     50.50
	FillingsUpdate:  mu: -0.183467436  nElectrons: 3.000000  magneticMoment: [ Abs: 0.68646  Tot: +0.54000 ]
SCF: Cycle:  7   F: -7.044998588027849   dF: -1.809e-03   |Residual|: 6.970e-02   |deigs|: 4.618e-02  t[s]:     55.69
	FillingsUpdate:  mu: -0.184642921  nElectrons: 3.000000  magneticMoment: [ Abs: 0.64590  Tot: +0.54000 ]
SCF: Cycle:  8   F: -7.045429192991454   dF: -4.306e-04   |Residual|: 4.398e-02   |deigs|: 9.263e-03  t[s]:     60.94
	FillingsUpdate:  mu: -0.182895948  nElectrons: 3.000000  magneticMoment: [ Abs: 0.61990  Tot: +0.54000 ]
SCF: Cycle:  9   F: -7.046247845191187   dF: -8.187e-04   |Residual|: 5.470e-02   |deigs|: 3.573e-02  t[s]:     66.47
	FillingsUpdate:  mu: -0.166152707  nElectrons: 3.000000  magneticMoment: [ Abs: 0.57692  Tot: +0.54000 ]
SCF: Cycle: 10   F: -7.046800781125042   dF: -5.529e-04   |Residual|: 1.388e-02   |deigs|: 2.847e-02  t[s]:     71.94
	FillingsUpdate:  mu: -0.155266830  nElectrons: 3.000000  magneticMoment: [ Abs: 0.61964  Tot: +0.54000 ]
SCF: Cycle: 11   F: -7.046931918304632   dF: -1.311e-04   |Residual|: 2.611e-02   |deigs|: 1.665e-02  t[s]:     77.49
	FillingsUpdate:  mu: -0.149780760  nElectrons: 3.000000  magneticMoment: [ Abs: 0.62582  Tot: +0.54000 ]
SCF: Cycle: 12   F: -7.047048829267927   dF: -1.169e-04   |Residual|: 1.223e-02   |deigs|: 1.010e-02  t[s]:     82.96
	FillingsUpdate:  mu: -0.127841784  nElectrons: 3.000000  magneticMoment: [ Abs: 0.68249  Tot: +0.54000 ]
SCF: Cycle: 13   F: -7.047166710220060   dF: -1.179e-04   |Residual|: 6.531e-03   |deigs|: 2.490e-02  t[s]:     88.57
	FillingsUpdate:  mu: -0.122014744  nElectrons: 3.000000  magneticMoment: [ Abs: 0.68184  Tot: +0.54000 ]
SCF: Cycle: 14   F: -7.047176865607481   dF: -1.016e-05   |Residual|: 5.777e-03   |deigs|: 6.581e-03  t[s]:     94.14
	FillingsUpdate:  mu: -0.115531121  nElectrons: 3.000000  magneticMoment: [ Abs: 0.65486  Tot: +0.54000 ]
SCF: Cycle: 15   F: -7.047202005393448   dF: -2.514e-05   |Residual|: 4.119e-03   |deigs|: 5.748e-03  t[s]:     99.64
	FillingsUpdate:  mu: -0.111801362  nElectrons: 3.000000  magneticMoment: [ Abs: 0.63823  Tot: +0.54000 ]
SCF: Cycle: 16   F: -7.047208028881316   dF: -6.023e-06   |Residual|: 3.402e-03   |deigs|: 3.566e-03  t[s]:    105.25
	FillingsUpdate:  mu: -0.108145925  nElectrons: 3.000000  magneticMoment: [ Abs: 0.60876  Tot: +0.54000 ]
SCF: Cycle: 17   F: -7.047194121912186   dF: +1.391e-05   |Residual|: 2.471e-03   |deigs|: 3.659e-03  t[s]:    110.77
	FillingsUpdate:  mu: -0.105494737  nElectrons: 3.000000  magneticMoment: [ Abs: 0.59369  Tot: +0.54000 ]
SCF: Cycle: 18   F: -7.047235181262518   dF: -4.106e-05   |Residual|: 1.734e-03   |deigs|: 3.374e-03  t[s]:    116.29
	FillingsUpdate:  mu: -0.103962544  nElectrons: 3.000000  magneticMoment: [ Abs: 0.58143  Tot: +0.54000 ]
SCF: Cycle: 19   F: -7.047271549934782   dF: -3.637e-05   |Residual|: 1.324e-03   |deigs|: 2.050e-03  t[s]:    121.85
	FillingsUpdate:  mu: -0.102852866  nElectrons: 3.000000  magneticMoment: [ Abs: 0.57182  Tot: +0.54000 ]
SCF: Cycle: 20   F: -7.047285667753876   dF: -1.412e-05   |Residual|: 9.901e-04   |deigs|: 1.538e-03  t[s]:    127.40
	FillingsUpdate:  mu: -0.102398205  nElectrons: 3.000000  magneticMoment: [ Abs: 0.56182  Tot: +0.54000 ]
SCF: Cycle: 21   F: -7.047308307782115   dF: -2.264e-05   |Residual|: 7.189e-04   |deigs|: 5.101e-04  t[s]:    132.93
	FillingsUpdate:  mu: -0.102962273  nElectrons: 3.000000  magneticMoment: [ Abs: 0.55263  Tot: +0.54000 ]
SCF: Cycle: 22   F: -7.047322052744923   dF: -1.374e-05   |Residual|: 4.399e-04   |deigs|: 8.392e-04  t[s]:    138.36
	FillingsUpdate:  mu: -0.103367186  nElectrons: 3.000000  magneticMoment: [ Abs: 0.54624  Tot: +0.54000 ]
SCF: Cycle: 23   F: -7.047325338308933   dF: -3.286e-06   |Residual|: 2.897e-04   |deigs|: 5.997e-04  t[s]:    143.81
	FillingsUpdate:  mu: -0.103518893  nElectrons: 3.000000  magneticMoment: [ Abs: 0.54303  Tot: +0.54000 ]
SCF: Cycle: 24   F: -7.047326240352218   dF: -9.020e-07   |Residual|: 2.092e-04   |deigs|: 2.701e-04  t[s]:    149.33
	FillingsUpdate:  mu: -0.103496887  nElectrons: 3.000000  magneticMoment: [ Abs: 0.54164  Tot: +0.54000 ]
SCF: Cycle: 25   F: -7.047326957031262   dF: -7.167e-07   |Residual|: 1.330e-04   |deigs|: 1.039e-04  t[s]:    154.84
	FillingsUpdate:  mu: -0.103508633  nElectrons: 3.000000  magneticMoment: [ Abs: 0.54155  Tot: +0.54000 ]
SCF: Cycle: 26   F: -7.047327237246356   dF: -2.802e-07   |Residual|: 9.490e-05   |deigs|: 8.917e-05  t[s]:    160.33
	FillingsUpdate:  mu: -0.103486447  nElectrons: 3.000000  magneticMoment: [ Abs: 0.54102  Tot: +0.54000 ]
SCF: Cycle: 27   F: -7.047327348550951   dF: -1.113e-07   |Residual|: 5.713e-05   |deigs|: 6.869e-05  t[s]:    165.83
	FillingsUpdate:  mu: -0.103473997  nElectrons: 3.000000  magneticMoment: [ Abs: 0.54084  Tot: +0.54000 ]
SCF: Cycle: 28   F: -7.047327379274389   dF: -3.072e-08   |Residual|: 4.179e-05   |deigs|: 5.345e-05  t[s]:    171.37
	FillingsUpdate:  mu: -0.103447248  nElectrons: 3.000000  magneticMoment: [ Abs: 0.54052  Tot: +0.54000 ]
SCF: Cycle: 29   F: -7.047327385073253   dF: -5.799e-09   |Residual|: 3.111e-05   |deigs|: 4.942e-05  t[s]:    176.87
	FillingsUpdate:  mu: -0.103428722  nElectrons: 3.000000  magneticMoment: [ Abs: 0.54030  Tot: +0.54000 ]
SCF: Cycle: 30   F: -7.047327399701504   dF: -1.463e-08   |Residual|: 2.350e-05   |deigs|: 3.853e-05  t[s]:    182.41
	FillingsUpdate:  mu: -0.103414563  nElectrons: 3.000000  magneticMoment: [ Abs: 0.54017  Tot: +0.54000 ]
SCF: Cycle: 31   F: -7.047327405914852   dF: -6.213e-09   |Residual|: 1.818e-05   |deigs|: 3.165e-05  t[s]:    187.95
	FillingsUpdate:  mu: -0.103411045  nElectrons: 3.000000  magneticMoment: [ Abs: 0.54007  Tot: +0.54000 ]
SCF: Cycle: 32   F: -7.047327415114530   dF: -9.200e-09   |Residual|: 1.449e-05   |deigs|: 2.658e-05  t[s]:    193.48
SCF: Converged (|Delta E|<1.000000e-08 for 2 iters).


# Ionic positions in lattice coordinates:
ion Li   0.000000000000000   0.000000000000000   0.000000000000000 0

# Forces in Lattice coordinates:
force Li  -0.000000000000000  -0.000000000000000   0.000000000000000 0

# Energy components:
   Eewald =       -1.0026681166851483
       EH =        2.5524274700225544
     Eloc =       -8.2317014590240287
      Enl =       -3.6042612044015931
   Epulay =        0.0000051497655618
      Exc =       -1.5385169339670663
       KE =        4.7773894899535607
-------------------------------------
     Etot =       -7.0473256043361596
       TS =        0.0000018107783699
-------------------------------------
        F =       -7.0473274151145295

IonicMinimize: Iter:   0  F: -7.047327415114530  |grad|_K:  0.000e+00  t[s]:    193.72
IonicMinimize: Converged (|grad|_K<1.000000e-04).

#--- Lowdin population analysis ---
# oxidation-state Li +2.075
# magnetic-moments Li +0.500

End date and time: Sat Feb  5 23:12:54 2022  (Duration: 0-0:03:13.75)
Done!
