
*************** JDFTx 1.6.0 (git hash 42ebbcc2) ***************

Start date and time: Sat Feb  5 22:55:16 2022
Executable jdftx with command-line: -i Alkali.in
Running on hosts (process indices):  d-3-7-1 (0-18)
Divided in process groups (process indices):  0 (0)  1 (1)  2 (2)  3 (3)  4 (4)  5 (5)  6 (6)  7 (7)  8 (8)  9 (9)  10 (10)  11 (11)  12 (12)  13 (13)  14 (14)  15 (15)  16 (16)  17 (17)  18 (18)
Resource initialization completed at t[s]:      0.00
Run totals: 19 processes, 48 threads, 0 GPUs


Input parsed successfully to the following command list (including defaults):

basis kpoint-dependent
coords-type Lattice
core-overlap-check vector
coulomb-interaction Slab 001
davidson-band-ratio 1.1
dump End None
dump-name $INPUT.$VAR
elec-cutoff 20
elec-eigen-algo Davidson
elec-ex-corr gga-PBE
elec-initial-magnetization -0.540000 yes
elec-smearing Fermi 1e-05
electronic-minimize  \
	dirUpdateScheme      FletcherReeves \
	linminMethod         DirUpdateRecommended \
	nIterations          100 \
	history              15 \
	knormThreshold       0 \
	energyDiffThreshold  1e-08 \
	nEnergyDiff          2 \
	alphaTstart          1 \
	alphaTmin            1e-10 \
	updateTestStepSize   yes \
	alphaTreduceFactor   0.1 \
	alphaTincreaseFactor 3 \
	nAlphaAdjustMax      3 \
	wolfeEnergy          0.0001 \
	wolfeGradient        0.9 \
	fdTest               no
electronic-scf  \
	nIterations	10000 \
	energyDiffThreshold	1e-08 \
	residualThreshold	1e-07 \
	mixFraction	0.5 \
	qMetric	0.8 \
	history	10 \
	nEigSteps	2 \
	eigDiffThreshold	1e-08 \
	mixedVariable	Density \
	qKerker	0.8 \
	qKappa	-1 \
	verbose	no \
	mixFractionMag	1.5
exchange-regularization WignerSeitzTruncated
fluid None
fluid-ex-corr (null) lda-PZ
fluid-gummel-loop 10 1.000000e-05
fluid-minimize  \
	dirUpdateScheme      PolakRibiere \
	linminMethod         DirUpdateRecommended \
	nIterations          100 \
	history              15 \
	knormThreshold       0 \
	energyDiffThreshold  0 \
	nEnergyDiff          2 \
	alphaTstart          1 \
	alphaTmin            1e-10 \
	updateTestStepSize   yes \
	alphaTreduceFactor   0.1 \
	alphaTincreaseFactor 3 \
	nAlphaAdjustMax      3 \
	wolfeEnergy          0.0001 \
	wolfeGradient        0.9 \
	fdTest               no
fluid-solvent H2O 55.338 ScalarEOS \
	epsBulk 78.4 \
	pMol 0.92466 \
	epsInf 1.77 \
	Pvap 1.06736e-10 \
	sigmaBulk 4.62e-05 \
	Rvdw 2.61727 \
	Res 1.42 \
	tauNuc 343133 \
	poleEl 15 7 1
forces-output-coords Positions
ion Li   0.000000000000000   0.000000000000000   0.000000000000000 0
ion-species SG15/$ID_ONCV_PBE.upf
ion-width 0
ionic-minimize  \
	dirUpdateScheme      L-BFGS \
	linminMethod         DirUpdateRecommended \
	nIterations          0 \
	history              15 \
	knormThreshold       0.0001 \
	energyDiffThreshold  1e-06 \
	nEnergyDiff          2 \
	alphaTstart          1 \
	alphaTmin            1e-10 \
	updateTestStepSize   yes \
	alphaTreduceFactor   0.1 \
	alphaTincreaseFactor 3 \
	nAlphaAdjustMax      3 \
	wolfeEnergy          0.0001 \
	wolfeGradient        0.9 \
	fdTest               no
kpoint   0.000000000000   0.000000000000   0.000000000000  1.00000000000000
kpoint-folding 12 12 1 
latt-move-scale 1 1 1
latt-scale 4 4 1 
lattice  \
	   4.727486978767153   -2.363743489383575    0.000000000000000  \
	  -0.000000000000000    4.094123819672498    0.000000000000000  \
	   0.000000000000000    0.000000000000000   40.000000000000000 
lattice-minimize  \
	dirUpdateScheme      L-BFGS \
	linminMethod         DirUpdateRecommended \
	nIterations          0 \
	history              15 \
	knormThreshold       0 \
	energyDiffThreshold  1e-06 \
	nEnergyDiff          2 \
	alphaTstart          1 \
	alphaTmin            1e-10 \
	updateTestStepSize   yes \
	alphaTreduceFactor   0.1 \
	alphaTincreaseFactor 3 \
	nAlphaAdjustMax      3 \
	wolfeEnergy          0.0001 \
	wolfeGradient        0.9 \
	fdTest               no
lcao-params -1 1e-06 1e-05
pcm-variant GLSSA13
spintype z-spin
subspace-rotation-factor 1 yes
symmetries automatic
symmetry-threshold 0.0001



---------- Setting up symmetries ----------

Found 24 point-group symmetries of the bravais lattice
Found 24 space-group symmetries with basis
Applied RMS atom displacement 0 bohrs to make symmetries exact.

---------- Initializing the Grid ----------
R = 
[      18.9099     -9.45497            0  ]
[            0      16.3765            0  ]
[            0            0           40  ]
unit cell volume = 12387.1
G =
[   0.332269   0.191835         -0  ]
[          0   0.383671         -0  ]
[         -0         -0    0.15708  ]
Minimum fftbox size, Smin = [  80  80  164  ]
Chosen fftbox size, S = [  80  80  168  ]

---------- Exchange Correlation functional ----------
Initalized PBE GGA exchange.
Initalized PBE GGA correlation.

---------- Setting up pseudopotentials ----------
Width of ionic core gaussian charges (only for fluid interactions / plotting) set to 0

Reading pseudopotential file '/home/gridsan/aligho/DFT/build-Nov24/pseudopotentials/SG15/Li_ONCV_PBE.upf':
  'Li' pseudopotential, 'PBE' functional
  Generated using ONCVPSP code by D. R. Hamann
  Author: Martin Schlipf and Francois Gygi  Date: 150915.
  3 valence electrons, 2 orbitals, 4 projectors, 1328 radial grid points, with lMax = 1
  Transforming local potential to a uniform radial grid of dG=0.02 with 1489 points.
  Transforming nonlocal projectors to a uniform radial grid of dG=0.02 with 432 points.
    1S    l: 0   occupation:  2.0   eigenvalue: -1.905623
    2S    l: 0   occupation:  1.0   eigenvalue: -0.105624
  Transforming atomic orbitals to a uniform radial grid of dG=0.02 with 432 points.
  WARNING: large normalization error in atomic orbital 1s (integral: 0.000000).
  Core radius for overlap checks: 1.63 bohrs.
  Reading pulay file /home/gridsan/aligho/DFT/build-Nov24/pseudopotentials/SG15/Li_ONCV_PBE.pulay ... using dE_dnG = -1.230239e-02 computed for Ecut = 20.

Initialized 1 species with 1 total atoms.

Folded 1 k-points by 12x12x1 to 144 k-points.

---------- Setting up k-points, bands, fillings ----------
Reduced to 19 k-points under symmetry. 
Computing the number of bands and number of electrons
Calculating initial fillings.
nElectrons:   3.000000   nBands: 3   nStates: 38

----- Setting up reduced wavefunction bases (one per k-point) -----
average nbasis = 52924.021 , ideal nbasis = 52918.836

---------- Setting up coulomb interaction ----------
Initialized slab truncation along lattice direction 001

---------- Setting up 2D ewald sum ----------
Optimum gaussian width for ewald sums = 10.498040 bohr.
Real space sums over 289 unit cells with max indices [  8  8  0  ]
Reciprocal space sums over 81 terms with max indices [  4  4  0  ]

---------- Allocating electronic variables ----------
Initializing wave functions:  linear combination of atomic orbitals
Note: number of bands (3) exceeds available atomic orbitals (2)
Li pseudo-atom occupations:   s ( 2 1 )
	FillingsUpdate:  mu: +0.367915692  nElectrons: 3.000000  magneticMoment: [ Abs: 0.54000  Tot: -0.54000 ]
LCAOMinimize: Iter:   0  F: -1.3102525330127850  |grad|_K:  4.029e-05  alpha:  1.000e+00
	FillingsUpdate:  mu: +0.367915326  nElectrons: 3.000000  magneticMoment: [ Abs: 0.54000  Tot: -0.54000 ]
LCAOMinimize: Iter:   1  F: -1.3102528269625113  |grad|_K:  1.102e-07  alpha:  1.059e+00  linmin: -9.683e-03  cgtest:  2.595e-02  t[s]:     12.78
LCAOMinimize: Encountered beta<0, resetting CG.
LCAOMinimize: 	Wrong curvature in test step, increasing alphaT to 3.176363e+00.
	FillingsUpdate:  mu: +0.367915326  nElectrons: 3.000000  magneticMoment: [ Abs: 0.54000  Tot: -0.54000 ]
LCAOMinimize: Iter:   2  F: -1.3102528269684846  |grad|_K:  5.460e-09  alpha: -1.473e+00  linmin:  9.726e-03  cgtest: -3.455e-01  t[s]:     16.08
LCAOMinimize: Converged (|Delta F|<1.000000e-06 for 2 iters).


---- Citations for features of the code used in this run ----

   Software package:
      R. Sundararaman, K. Letchworth-Weaver, K.A. Schwarz, D. Gunceler, Y. Ozhabes and T.A. Arias, 'JDFTx: software for joint density-functional theory', SoftwareX 6, 278 (2017)

   gga-PBE exchange-correlation functional:
      J.P. Perdew, K. Burke and M. Ernzerhof, Phys. Rev. Lett. 77, 3865 (1996)

   Pseudopotentials:
      M Schlipf and F Gygi, Comput. Phys. Commun. 196, 36 (2015)

   Truncated Coulomb potentials:
      R. Sundararaman and T.A. Arias, Phys. Rev. B 87, 165122 (2013)

This list may not be complete. Please suggest additional citations or
report any other bugs at https://github.com/shankar1729/jdftx/issues

Initialization completed successfully at t[s]:     16.22


-------- Electronic minimization -----------
Will mix electronic density at each iteration.
	FillingsUpdate:  mu: +0.367915326  nElectrons: 3.000000  magneticMoment: [ Abs: 0.54000  Tot: -0.54000 ]
	FillingsUpdate:  mu: -0.616374998  nElectrons: 3.000000  magneticMoment: [ Abs: 0.54000  Tot: -0.54000 ]
SCF: Cycle:  0   F: -6.875019362142895   dF: -5.565e+00   |Residual|: 1.229e+00   |deigs|: 4.155e+00  t[s]:     21.92
	FillingsUpdate:  mu: -0.487488421  nElectrons: 3.000000  magneticMoment: [ Abs: 0.93443  Tot: -0.54000 ]
SCF: Cycle:  1   F: -6.917200546598299   dF: -4.218e-02   |Residual|: 7.622e-01   |deigs|: 2.766e-01  t[s]:     26.56
	FillingsUpdate:  mu: -0.273183212  nElectrons: 3.000000  magneticMoment: [ Abs: 1.20555  Tot: -0.54000 ]
SCF: Cycle:  2   F: -7.036891753833969   dF: -1.197e-01   |Residual|: 3.212e-01   |deigs|: 7.045e-01  t[s]:     31.23
	FillingsUpdate:  mu: -0.281280838  nElectrons: 3.000000  magneticMoment: [ Abs: 1.09340  Tot: -0.54000 ]
SCF: Cycle:  3   F: -7.037195906480347   dF: -3.042e-04   |Residual|: 1.816e-01   |deigs|: 7.534e-02  t[s]:     36.06
	FillingsUpdate:  mu: -0.234211706  nElectrons: 3.000000  magneticMoment: [ Abs: 0.95797  Tot: -0.54000 ]
SCF: Cycle:  4   F: -7.039374277250173   dF: -2.178e-03   |Residual|: 5.288e-02   |deigs|: 3.933e-02  t[s]:     40.97
	FillingsUpdate:  mu: -0.221786660  nElectrons: 3.000000  magneticMoment: [ Abs: 0.95307  Tot: -0.54000 ]
SCF: Cycle:  5   F: -7.040444559177104   dF: -1.070e-03   |Residual|: 9.288e-02   |deigs|: 1.354e-02  t[s]:     46.03
	FillingsUpdate:  mu: -0.197739998  nElectrons: 3.000000  magneticMoment: [ Abs: 0.79055  Tot: -0.54000 ]
SCF: Cycle:  6   F: -7.043309249235945   dF: -2.865e-03   |Residual|: 2.150e-02   |deigs|: 5.881e-02  t[s]:     51.15
	FillingsUpdate:  mu: -0.184062369  nElectrons: 3.000000  magneticMoment: [ Abs: 0.68990  Tot: -0.54000 ]
SCF: Cycle:  7   F: -7.045000670964235   dF: -1.691e-03   |Residual|: 7.162e-02   |deigs|: 4.360e-02  t[s]:     56.43
	FillingsUpdate:  mu: -0.185383851  nElectrons: 3.000000  magneticMoment: [ Abs: 0.64733  Tot: -0.54000 ]
SCF: Cycle:  8   F: -7.045458201119933   dF: -4.575e-04   |Residual|: 4.194e-02   |deigs|: 1.069e-02  t[s]:     61.84
	FillingsUpdate:  mu: -0.182991843  nElectrons: 3.000000  magneticMoment: [ Abs: 0.61847  Tot: -0.54000 ]
SCF: Cycle:  9   F: -7.046250106269709   dF: -7.919e-04   |Residual|: 5.440e-02   |deigs|: 3.438e-02  t[s]:     67.30
	FillingsUpdate:  mu: -0.166387365  nElectrons: 3.000000  magneticMoment: [ Abs: 0.57778  Tot: -0.54000 ]
SCF: Cycle: 10   F: -7.046800274657238   dF: -5.502e-04   |Residual|: 1.256e-02   |deigs|: 2.879e-02  t[s]:     72.82
	FillingsUpdate:  mu: -0.155687861  nElectrons: 3.000000  magneticMoment: [ Abs: 0.61839  Tot: -0.54000 ]
SCF: Cycle: 11   F: -7.046915775323378   dF: -1.155e-04   |Residual|: 2.313e-02   |deigs|: 1.437e-02  t[s]:     78.39
	FillingsUpdate:  mu: -0.148917395  nElectrons: 3.000000  magneticMoment: [ Abs: 0.63036  Tot: -0.54000 ]
SCF: Cycle: 12   F: -7.047049401209049   dF: -1.336e-04   |Residual|: 1.221e-02   |deigs|: 8.687e-03  t[s]:     83.91
	FillingsUpdate:  mu: -0.127999914  nElectrons: 3.000000  magneticMoment: [ Abs: 0.68479  Tot: -0.54000 ]
SCF: Cycle: 13   F: -7.047160546769279   dF: -1.111e-04   |Residual|: 6.549e-03   |deigs|: 2.384e-02  t[s]:     89.41
	FillingsUpdate:  mu: -0.121926530  nElectrons: 3.000000  magneticMoment: [ Abs: 0.68516  Tot: -0.54000 ]
SCF: Cycle: 14   F: -7.047172612245423   dF: -1.207e-05   |Residual|: 5.792e-03   |deigs|: 6.896e-03  t[s]:     95.03
	FillingsUpdate:  mu: -0.115837004  nElectrons: 3.000000  magneticMoment: [ Abs: 0.65811  Tot: -0.54000 ]
SCF: Cycle: 15   F: -7.047202907220287   dF: -3.029e-05   |Residual|: 4.148e-03   |deigs|: 5.452e-03  t[s]:    100.58
	FillingsUpdate:  mu: -0.111965155  nElectrons: 3.000000  magneticMoment: [ Abs: 0.64016  Tot: -0.54000 ]
SCF: Cycle: 16   F: -7.047206405240363   dF: -3.498e-06   |Residual|: 3.415e-03   |deigs|: 3.643e-03  t[s]:    106.12
	FillingsUpdate:  mu: -0.108452748  nElectrons: 3.000000  magneticMoment: [ Abs: 0.61052  Tot: -0.54000 ]
SCF: Cycle: 17   F: -7.047192249750013   dF: +1.416e-05   |Residual|: 2.528e-03   |deigs|: 3.487e-03  t[s]:    111.65
	FillingsUpdate:  mu: -0.105780080  nElectrons: 3.000000  magneticMoment: [ Abs: 0.59401  Tot: -0.54000 ]
SCF: Cycle: 18   F: -7.047233189907207   dF: -4.094e-05   |Residual|: 1.779e-03   |deigs|: 3.333e-03  t[s]:    117.23
	FillingsUpdate:  mu: -0.104042084  nElectrons: 3.000000  magneticMoment: [ Abs: 0.58069  Tot: -0.54000 ]
SCF: Cycle: 19   F: -7.047274133835271   dF: -4.094e-05   |Residual|: 1.326e-03   |deigs|: 2.297e-03  t[s]:    122.88
	FillingsUpdate:  mu: -0.102978810  nElectrons: 3.000000  magneticMoment: [ Abs: 0.57098  Tot: -0.54000 ]
SCF: Cycle: 20   F: -7.047287428587783   dF: -1.329e-05   |Residual|: 9.905e-04   |deigs|: 1.528e-03  t[s]:    128.43
	FillingsUpdate:  mu: -0.102412995  nElectrons: 3.000000  magneticMoment: [ Abs: 0.56111  Tot: -0.54000 ]
SCF: Cycle: 21   F: -7.047309352544655   dF: -2.192e-05   |Residual|: 7.151e-04   |deigs|: 6.082e-04  t[s]:    133.99
	FillingsUpdate:  mu: -0.102908488  nElectrons: 3.000000  magneticMoment: [ Abs: 0.55285  Tot: -0.54000 ]
SCF: Cycle: 22   F: -7.047321466010944   dF: -1.211e-05   |Residual|: 4.563e-04   |deigs|: 7.398e-04  t[s]:    139.60
	FillingsUpdate:  mu: -0.103333731  nElectrons: 3.000000  magneticMoment: [ Abs: 0.54619  Tot: -0.54000 ]
SCF: Cycle: 23   F: -7.047325479746402   dF: -4.014e-06   |Residual|: 2.914e-04   |deigs|: 6.494e-04  t[s]:    145.26
	FillingsUpdate:  mu: -0.103491973  nElectrons: 3.000000  magneticMoment: [ Abs: 0.54289  Tot: -0.54000 ]
SCF: Cycle: 24   F: -7.047326354460737   dF: -8.747e-07   |Residual|: 2.091e-04   |deigs|: 2.775e-04  t[s]:    150.82
	FillingsUpdate:  mu: -0.103474628  nElectrons: 3.000000  magneticMoment: [ Abs: 0.54157  Tot: -0.54000 ]
SCF: Cycle: 25   F: -7.047327004005728   dF: -6.495e-07   |Residual|: 1.316e-04   |deigs|: 1.069e-04  t[s]:    156.36
	FillingsUpdate:  mu: -0.103486700  nElectrons: 3.000000  magneticMoment: [ Abs: 0.54148  Tot: -0.54000 ]
SCF: Cycle: 26   F: -7.047327252320142   dF: -2.483e-07   |Residual|: 8.899e-05   |deigs|: 8.250e-05  t[s]:    161.96
	FillingsUpdate:  mu: -0.103455790  nElectrons: 3.000000  magneticMoment: [ Abs: 0.54093  Tot: -0.54000 ]
SCF: Cycle: 27   F: -7.047327336552191   dF: -8.423e-08   |Residual|: 5.445e-05   |deigs|: 6.093e-05  t[s]:    167.51
	FillingsUpdate:  mu: -0.103445580  nElectrons: 3.000000  magneticMoment: [ Abs: 0.54075  Tot: -0.54000 ]
SCF: Cycle: 28   F: -7.047327360632311   dF: -2.408e-08   |Residual|: 4.057e-05   |deigs|: 4.927e-05  t[s]:    173.05
	FillingsUpdate:  mu: -0.103426599  nElectrons: 3.000000  magneticMoment: [ Abs: 0.54049  Tot: -0.54000 ]
SCF: Cycle: 29   F: -7.047327379822047   dF: -1.919e-08   |Residual|: 3.228e-05   |deigs|: 4.608e-05  t[s]:    178.76
	FillingsUpdate:  mu: -0.103417973  nElectrons: 3.000000  magneticMoment: [ Abs: 0.54029  Tot: -0.54000 ]
SCF: Cycle: 30   F: -7.047327403765430   dF: -2.394e-08   |Residual|: 2.305e-05   |deigs|: 4.125e-05  t[s]:    184.35
	FillingsUpdate:  mu: -0.103411629  nElectrons: 3.000000  magneticMoment: [ Abs: 0.54018  Tot: -0.54000 ]
SCF: Cycle: 31   F: -7.047327408785843   dF: -5.020e-09   |Residual|: 1.622e-05   |deigs|: 3.636e-05  t[s]:    189.89
	FillingsUpdate:  mu: -0.103412969  nElectrons: 3.000000  magneticMoment: [ Abs: 0.54010  Tot: -0.54000 ]
SCF: Cycle: 32   F: -7.047327416376176   dF: -7.590e-09   |Residual|: 1.296e-05   |deigs|: 3.409e-05  t[s]:    195.45
SCF: Converged (|Delta E|<1.000000e-08 for 2 iters).


# Ionic positions in lattice coordinates:
ion Li   0.000000000000000   0.000000000000000   0.000000000000000 0

# Forces in Lattice coordinates:
force Li   0.000000000000000  -0.000000000000000   0.000000000000000 0

# Energy components:
   Eewald =       -1.0026681166851483
       EH =        2.5524336804462653
     Eloc =       -8.2317093030654931
      Enl =       -3.6042622163927529
   Epulay =        0.0000051497655618
      Exc =       -1.5385179684299206
       KE =        4.7773931687629654
-------------------------------------
     Etot =       -7.0473256055985223
       TS =        0.0000018107776537
-------------------------------------
        F =       -7.0473274163761763

IonicMinimize: Iter:   0  F: -7.047327416376176  |grad|_K:  0.000e+00  t[s]:    195.70
IonicMinimize: Converged (|grad|_K<1.000000e-04).

#--- Lowdin population analysis ---
# oxidation-state Li +2.075
# magnetic-moments Li -0.500

End date and time: Sat Feb  5 22:58:32 2022  (Duration: 0-0:03:15.73)
Done!
