
*************** JDFTx 1.6.0 (git hash 42ebbcc2) ***************

Start date and time: Sat Feb  5 22:49:08 2022
Executable jdftx with command-line: -i Alkali.in
Running on hosts (process indices):  d-16-5-2 (0-18)
Divided in process groups (process indices):  0 (0)  1 (1)  2 (2)  3 (3)  4 (4)  5 (5)  6 (6)  7 (7)  8 (8)  9 (9)  10 (10)  11 (11)  12 (12)  13 (13)  14 (14)  15 (15)  16 (16)  17 (17)  18 (18)
Resource initialization completed at t[s]:      0.00
Run totals: 19 processes, 48 threads, 0 GPUs


Input parsed successfully to the following command list (including defaults):

basis kpoint-dependent
coords-type Lattice
core-overlap-check vector
coulomb-interaction Slab 001
davidson-band-ratio 1.1
dump End None
dump-name $INPUT.$VAR
elec-cutoff 20
elec-eigen-algo Davidson
elec-ex-corr gga-PBE
elec-initial-magnetization -0.640000 yes
elec-smearing Fermi 1e-05
electronic-minimize  \
	dirUpdateScheme      FletcherReeves \
	linminMethod         DirUpdateRecommended \
	nIterations          100 \
	history              15 \
	knormThreshold       0 \
	energyDiffThreshold  1e-08 \
	nEnergyDiff          2 \
	alphaTstart          1 \
	alphaTmin            1e-10 \
	updateTestStepSize   yes \
	alphaTreduceFactor   0.1 \
	alphaTincreaseFactor 3 \
	nAlphaAdjustMax      3 \
	wolfeEnergy          0.0001 \
	wolfeGradient        0.9 \
	fdTest               no
electronic-scf  \
	nIterations	10000 \
	energyDiffThreshold	1e-08 \
	residualThreshold	1e-07 \
	mixFraction	0.5 \
	qMetric	0.8 \
	history	10 \
	nEigSteps	2 \
	eigDiffThreshold	1e-08 \
	mixedVariable	Density \
	qKerker	0.8 \
	qKappa	-1 \
	verbose	no \
	mixFractionMag	1.5
exchange-regularization WignerSeitzTruncated
fluid None
fluid-ex-corr (null) lda-PZ
fluid-gummel-loop 10 1.000000e-05
fluid-minimize  \
	dirUpdateScheme      PolakRibiere \
	linminMethod         DirUpdateRecommended \
	nIterations          100 \
	history              15 \
	knormThreshold       0 \
	energyDiffThreshold  0 \
	nEnergyDiff          2 \
	alphaTstart          1 \
	alphaTmin            1e-10 \
	updateTestStepSize   yes \
	alphaTreduceFactor   0.1 \
	alphaTincreaseFactor 3 \
	nAlphaAdjustMax      3 \
	wolfeEnergy          0.0001 \
	wolfeGradient        0.9 \
	fdTest               no
fluid-solvent H2O 55.338 ScalarEOS \
	epsBulk 78.4 \
	pMol 0.92466 \
	epsInf 1.77 \
	Pvap 1.06736e-10 \
	sigmaBulk 4.62e-05 \
	Rvdw 2.61727 \
	Res 1.42 \
	tauNuc 343133 \
	poleEl 15 7 1
forces-output-coords Positions
ion Li   0.000000000000000   0.000000000000000   0.000000000000000 0
ion-species SG15/$ID_ONCV_PBE.upf
ion-width 0
ionic-minimize  \
	dirUpdateScheme      L-BFGS \
	linminMethod         DirUpdateRecommended \
	nIterations          0 \
	history              15 \
	knormThreshold       0.0001 \
	energyDiffThreshold  1e-06 \
	nEnergyDiff          2 \
	alphaTstart          1 \
	alphaTmin            1e-10 \
	updateTestStepSize   yes \
	alphaTreduceFactor   0.1 \
	alphaTincreaseFactor 3 \
	nAlphaAdjustMax      3 \
	wolfeEnergy          0.0001 \
	wolfeGradient        0.9 \
	fdTest               no
kpoint   0.000000000000   0.000000000000   0.000000000000  1.00000000000000
kpoint-folding 12 12 1 
latt-move-scale 1 1 1
latt-scale 4 4 1 
lattice  \
	   4.727486978767153   -2.363743489383575    0.000000000000000  \
	  -0.000000000000000    4.094123819672498    0.000000000000000  \
	   0.000000000000000    0.000000000000000   40.000000000000000 
lattice-minimize  \
	dirUpdateScheme      L-BFGS \
	linminMethod         DirUpdateRecommended \
	nIterations          0 \
	history              15 \
	knormThreshold       0 \
	energyDiffThreshold  1e-06 \
	nEnergyDiff          2 \
	alphaTstart          1 \
	alphaTmin            1e-10 \
	updateTestStepSize   yes \
	alphaTreduceFactor   0.1 \
	alphaTincreaseFactor 3 \
	nAlphaAdjustMax      3 \
	wolfeEnergy          0.0001 \
	wolfeGradient        0.9 \
	fdTest               no
lcao-params -1 1e-06 1e-05
pcm-variant GLSSA13
spintype z-spin
subspace-rotation-factor 1 yes
symmetries automatic
symmetry-threshold 0.0001



---------- Setting up symmetries ----------

Found 24 point-group symmetries of the bravais lattice
Found 24 space-group symmetries with basis
Applied RMS atom displacement 0 bohrs to make symmetries exact.

---------- Initializing the Grid ----------
R = 
[      18.9099     -9.45497            0  ]
[            0      16.3765            0  ]
[            0            0           40  ]
unit cell volume = 12387.1
G =
[   0.332269   0.191835         -0  ]
[          0   0.383671         -0  ]
[         -0         -0    0.15708  ]
Minimum fftbox size, Smin = [  80  80  164  ]
Chosen fftbox size, S = [  80  80  168  ]

---------- Exchange Correlation functional ----------
Initalized PBE GGA exchange.
Initalized PBE GGA correlation.

---------- Setting up pseudopotentials ----------
Width of ionic core gaussian charges (only for fluid interactions / plotting) set to 0

Reading pseudopotential file '/home/gridsan/aligho/DFT/build-Nov24/pseudopotentials/SG15/Li_ONCV_PBE.upf':
  'Li' pseudopotential, 'PBE' functional
  Generated using ONCVPSP code by D. R. Hamann
  Author: Martin Schlipf and Francois Gygi  Date: 150915.
  3 valence electrons, 2 orbitals, 4 projectors, 1328 radial grid points, with lMax = 1
  Transforming local potential to a uniform radial grid of dG=0.02 with 1489 points.
  Transforming nonlocal projectors to a uniform radial grid of dG=0.02 with 432 points.
    1S    l: 0   occupation:  2.0   eigenvalue: -1.905623
    2S    l: 0   occupation:  1.0   eigenvalue: -0.105624
  Transforming atomic orbitals to a uniform radial grid of dG=0.02 with 432 points.
  WARNING: large normalization error in atomic orbital 1s (integral: 0.000000).
  Core radius for overlap checks: 1.63 bohrs.
  Reading pulay file /home/gridsan/aligho/DFT/build-Nov24/pseudopotentials/SG15/Li_ONCV_PBE.pulay ... using dE_dnG = -1.230239e-02 computed for Ecut = 20.

Initialized 1 species with 1 total atoms.

Folded 1 k-points by 12x12x1 to 144 k-points.

---------- Setting up k-points, bands, fillings ----------
Reduced to 19 k-points under symmetry. 
Computing the number of bands and number of electrons
Calculating initial fillings.
nElectrons:   3.000000   nBands: 3   nStates: 38

----- Setting up reduced wavefunction bases (one per k-point) -----
average nbasis = 52924.021 , ideal nbasis = 52918.836

---------- Setting up coulomb interaction ----------
Initialized slab truncation along lattice direction 001

---------- Setting up 2D ewald sum ----------
Optimum gaussian width for ewald sums = 10.498040 bohr.
Real space sums over 289 unit cells with max indices [  8  8  0  ]
Reciprocal space sums over 81 terms with max indices [  4  4  0  ]

---------- Allocating electronic variables ----------
Initializing wave functions:  linear combination of atomic orbitals
Note: number of bands (3) exceeds available atomic orbitals (2)
Li pseudo-atom occupations:   s ( 2 1 )
	FillingsUpdate:  mu: +0.366388423  nElectrons: 3.000000  magneticMoment: [ Abs: 0.64000  Tot: -0.64000 ]
LCAOMinimize: Iter:   0  F: -1.3095120414143098  |grad|_K:  3.991e-05  alpha:  1.000e+00
	FillingsUpdate:  mu: +0.366388126  nElectrons: 3.000000  magneticMoment: [ Abs: 0.64000  Tot: -0.64000 ]
LCAOMinimize: Iter:   1  F: -1.3095123298507794  |grad|_K:  1.297e-07  alpha:  1.059e+00  linmin: -4.325e-03  cgtest:  1.706e-02  t[s]:     12.73
LCAOMinimize: Encountered beta<0, resetting CG.
	FillingsUpdate:  mu: +0.366388126  nElectrons: 3.000000  magneticMoment: [ Abs: 0.64000  Tot: -0.64000 ]
LCAOMinimize: Iter:   2  F: -1.3095123298533631  |grad|_K:  3.872e-08  alpha:  7.268e-01  linmin: -3.337e-02  cgtest:  9.994e-01  t[s]:     15.94
LCAOMinimize: Encountered beta<0, resetting CG.
LCAOMinimize: Converged (|Delta F|<1.000000e-06 for 2 iters).


---- Citations for features of the code used in this run ----

   Software package:
      R. Sundararaman, K. Letchworth-Weaver, K.A. Schwarz, D. Gunceler, Y. Ozhabes and T.A. Arias, 'JDFTx: software for joint density-functional theory', SoftwareX 6, 278 (2017)

   gga-PBE exchange-correlation functional:
      J.P. Perdew, K. Burke and M. Ernzerhof, Phys. Rev. Lett. 77, 3865 (1996)

   Pseudopotentials:
      M Schlipf and F Gygi, Comput. Phys. Commun. 196, 36 (2015)

   Truncated Coulomb potentials:
      R. Sundararaman and T.A. Arias, Phys. Rev. B 87, 165122 (2013)

This list may not be complete. Please suggest additional citations or
report any other bugs at https://github.com/shankar1729/jdftx/issues

Initialization completed successfully at t[s]:     16.08


-------- Electronic minimization -----------
Will mix electronic density at each iteration.
	FillingsUpdate:  mu: +0.366388126  nElectrons: 3.000000  magneticMoment: [ Abs: 0.64000  Tot: -0.64000 ]
	FillingsUpdate:  mu: -0.616266292  nElectrons: 3.000000  magneticMoment: [ Abs: 0.64000  Tot: -0.64000 ]
SCF: Cycle:  0   F: -6.877940937877004   dF: -5.568e+00   |Residual|: 1.229e+00   |deigs|: 4.155e+00  t[s]:     21.74
	FillingsUpdate:  mu: -0.486104032  nElectrons: 3.000000  magneticMoment: [ Abs: 1.10839  Tot: -0.64000 ]
SCF: Cycle:  1   F: -6.916689716725500   dF: -3.875e-02   |Residual|: 7.630e-01   |deigs|: 2.764e-01  t[s]:     26.28
	FillingsUpdate:  mu: -0.279629795  nElectrons: 3.000000  magneticMoment: [ Abs: 1.43204  Tot: -0.64000 ]
SCF: Cycle:  2   F: -7.037210224546143   dF: -1.205e-01   |Residual|: 3.215e-01   |deigs|: 7.039e-01  t[s]:     30.96
	FillingsUpdate:  mu: -0.286416477  nElectrons: 3.000000  magneticMoment: [ Abs: 1.27997  Tot: -0.64000 ]
SCF: Cycle:  3   F: -7.037448770195072   dF: -2.385e-04   |Residual|: 1.743e-01   |deigs|: 7.958e-02  t[s]:     35.76
	FillingsUpdate:  mu: -0.236588281  nElectrons: 3.000000  magneticMoment: [ Abs: 1.10818  Tot: -0.64000 ]
SCF: Cycle:  4   F: -7.040844657900143   dF: -3.396e-03   |Residual|: 4.666e-02   |deigs|: 4.283e-02  t[s]:     40.64
	FillingsUpdate:  mu: -0.222530695  nElectrons: 3.000000  magneticMoment: [ Abs: 1.09564  Tot: -0.64000 ]
SCF: Cycle:  5   F: -7.042093959175588   dF: -1.249e-03   |Residual|: 7.982e-02   |deigs|: 1.509e-02  t[s]:     45.65
	FillingsUpdate:  mu: -0.200322479  nElectrons: 3.000000  magneticMoment: [ Abs: 0.92786  Tot: -0.64000 ]
SCF: Cycle:  6   F: -7.044285041617580   dF: -2.191e-03   |Residual|: 2.497e-02   |deigs|: 5.051e-02  t[s]:     50.78
	FillingsUpdate:  mu: -0.184398758  nElectrons: 3.000000  magneticMoment: [ Abs: 0.83004  Tot: -0.64000 ]
SCF: Cycle:  7   F: -7.046185237636153   dF: -1.900e-03   |Residual|: 5.129e-02   |deigs|: 4.231e-02  t[s]:     55.98
	FillingsUpdate:  mu: -0.184287812  nElectrons: 3.000000  magneticMoment: [ Abs: 0.77532  Tot: -0.64000 ]
SCF: Cycle:  8   F: -7.046743028099419   dF: -5.578e-04   |Residual|: 3.686e-02   |deigs|: 4.748e-03  t[s]:     61.31
	FillingsUpdate:  mu: -0.181243117  nElectrons: 3.000000  magneticMoment: [ Abs: 0.73393  Tot: -0.64000 ]
SCF: Cycle:  9   F: -7.047522278395866   dF: -7.793e-04   |Residual|: 2.761e-02   |deigs|: 2.262e-02  t[s]:     66.77
	FillingsUpdate:  mu: -0.167998135  nElectrons: 3.000000  magneticMoment: [ Abs: 0.67776  Tot: -0.64000 ]
SCF: Cycle: 10   F: -7.047957738892100   dF: -4.355e-04   |Residual|: 2.638e-02   |deigs|: 1.251e-02  t[s]:     72.27
	FillingsUpdate:  mu: -0.157584790  nElectrons: 3.000000  magneticMoment: [ Abs: 0.71343  Tot: -0.64000 ]
SCF: Cycle: 11   F: -7.047997465925442   dF: -3.973e-05   |Residual|: 1.115e-02   |deigs|: 1.552e-02  t[s]:     77.76
	FillingsUpdate:  mu: -0.148133675  nElectrons: 3.000000  magneticMoment: [ Abs: 0.75133  Tot: -0.64000 ]
SCF: Cycle: 12   F: -7.048185156089663   dF: -1.877e-04   |Residual|: 1.280e-02   |deigs|: 8.143e-03  t[s]:     83.32
	FillingsUpdate:  mu: -0.128347705  nElectrons: 3.000000  magneticMoment: [ Abs: 0.79798  Tot: -0.64000 ]
SCF: Cycle: 13   F: -7.048316383337471   dF: -1.312e-04   |Residual|: 6.465e-03   |deigs|: 2.465e-02  t[s]:     88.82
	FillingsUpdate:  mu: -0.121427780  nElectrons: 3.000000  magneticMoment: [ Abs: 0.79811  Tot: -0.64000 ]
SCF: Cycle: 14   F: -7.048291771345046   dF: +2.461e-05   |Residual|: 5.684e-03   |deigs|: 7.125e-03  t[s]:     94.37
	FillingsUpdate:  mu: -0.114937297  nElectrons: 3.000000  magneticMoment: [ Abs: 0.77409  Tot: -0.64000 ]
SCF: Cycle: 15   F: -7.048339153634659   dF: -4.738e-05   |Residual|: 4.125e-03   |deigs|: 6.377e-03  t[s]:     99.94
	FillingsUpdate:  mu: -0.110559805  nElectrons: 3.000000  magneticMoment: [ Abs: 0.75260  Tot: -0.64000 ]
SCF: Cycle: 16   F: -7.048340141947437   dF: -9.883e-07   |Residual|: 3.244e-03   |deigs|: 4.241e-03  t[s]:    105.56
	FillingsUpdate:  mu: -0.107086829  nElectrons: 3.000000  magneticMoment: [ Abs: 0.72351  Tot: -0.64000 ]
SCF: Cycle: 17   F: -7.048322099091926   dF: +1.804e-05   |Residual|: 2.814e-03   |deigs|: 3.605e-03  t[s]:    111.12
	FillingsUpdate:  mu: -0.104205795  nElectrons: 3.000000  magneticMoment: [ Abs: 0.70449  Tot: -0.64000 ]
SCF: Cycle: 18   F: -7.048371179038780   dF: -4.908e-05   |Residual|: 2.020e-03   |deigs|: 3.375e-03  t[s]:    116.61
	FillingsUpdate:  mu: -0.102973676  nElectrons: 3.000000  magneticMoment: [ Abs: 0.68360  Tot: -0.64000 ]
SCF: Cycle: 19   F: -7.048424715428546   dF: -5.354e-05   |Residual|: 1.490e-03   |deigs|: 1.683e-03  t[s]:    122.11
	FillingsUpdate:  mu: -0.102071767  nElectrons: 3.000000  magneticMoment: [ Abs: 0.67438  Tot: -0.64000 ]
SCF: Cycle: 20   F: -7.048447266916366   dF: -2.255e-05   |Residual|: 1.109e-03   |deigs|: 9.699e-04  t[s]:    127.66
	FillingsUpdate:  mu: -0.101441183  nElectrons: 3.000000  magneticMoment: [ Abs: 0.66392  Tot: -0.64000 ]
SCF: Cycle: 21   F: -7.048466251078778   dF: -1.898e-05   |Residual|: 7.745e-04   |deigs|: 8.067e-04  t[s]:    133.16
	FillingsUpdate:  mu: -0.101852303  nElectrons: 3.000000  magneticMoment: [ Abs: 0.65584  Tot: -0.64000 ]
SCF: Cycle: 22   F: -7.048471076518138   dF: -4.825e-06   |Residual|: 5.847e-04   |deigs|: 4.788e-04  t[s]:    138.59
	FillingsUpdate:  mu: -0.101982869  nElectrons: 3.000000  magneticMoment: [ Abs: 0.64784  Tot: -0.64000 ]
SCF: Cycle: 23   F: -7.048478090292843   dF: -7.014e-06   |Residual|: 3.926e-04   |deigs|: 4.039e-04  t[s]:    144.12
	FillingsUpdate:  mu: -0.102352758  nElectrons: 3.000000  magneticMoment: [ Abs: 0.64382  Tot: -0.64000 ]
SCF: Cycle: 24   F: -7.048482219938157   dF: -4.130e-06   |Residual|: 2.588e-04   |deigs|: 5.211e-04  t[s]:    149.72
	FillingsUpdate:  mu: -0.102373358  nElectrons: 3.000000  magneticMoment: [ Abs: 0.64245  Tot: -0.64000 ]
SCF: Cycle: 25   F: -7.048483297122839   dF: -1.077e-06   |Residual|: 1.581e-04   |deigs|: 1.815e-04  t[s]:    155.26
	FillingsUpdate:  mu: -0.102399718  nElectrons: 3.000000  magneticMoment: [ Abs: 0.64147  Tot: -0.64000 ]
SCF: Cycle: 26   F: -7.048483509309447   dF: -2.122e-07   |Residual|: 8.336e-05   |deigs|: 1.184e-04  t[s]:    160.81
	FillingsUpdate:  mu: -0.102401381  nElectrons: 3.000000  magneticMoment: [ Abs: 0.64096  Tot: -0.64000 ]
SCF: Cycle: 27   F: -7.048483598900474   dF: -8.959e-08   |Residual|: 6.005e-05   |deigs|: 6.400e-05  t[s]:    166.38
	FillingsUpdate:  mu: -0.102426812  nElectrons: 3.000000  magneticMoment: [ Abs: 0.64071  Tot: -0.64000 ]
SCF: Cycle: 28   F: -7.048483605152351   dF: -6.252e-09   |Residual|: 4.432e-05   |deigs|: 6.595e-05  t[s]:    171.98
	FillingsUpdate:  mu: -0.102438695  nElectrons: 3.000000  magneticMoment: [ Abs: 0.64054  Tot: -0.64000 ]
SCF: Cycle: 29   F: -7.048483642012382   dF: -3.686e-08   |Residual|: 3.616e-05   |deigs|: 4.836e-05  t[s]:    177.56
	FillingsUpdate:  mu: -0.102453866  nElectrons: 3.000000  magneticMoment: [ Abs: 0.64044  Tot: -0.64000 ]
SCF: Cycle: 30   F: -7.048483676253773   dF: -3.424e-08   |Residual|: 2.857e-05   |deigs|: 4.251e-05  t[s]:    183.07
	FillingsUpdate:  mu: -0.102457287  nElectrons: 3.000000  magneticMoment: [ Abs: 0.64030  Tot: -0.64000 ]
SCF: Cycle: 31   F: -7.048483697408430   dF: -2.115e-08   |Residual|: 1.880e-05   |deigs|: 3.646e-05  t[s]:    188.58
	FillingsUpdate:  mu: -0.102452583  nElectrons: 3.000000  magneticMoment: [ Abs: 0.64013  Tot: -0.64000 ]
SCF: Cycle: 32   F: -7.048483690055865   dF: +7.353e-09   |Residual|: 1.367e-05   |deigs|: 3.472e-05  t[s]:    194.15
	FillingsUpdate:  mu: -0.102447027  nElectrons: 3.000000  magneticMoment: [ Abs: 0.64004  Tot: -0.64000 ]
SCF: Cycle: 33   F: -7.048483666447226   dF: +2.361e-08   |Residual|: 9.321e-06   |deigs|: 3.133e-05  t[s]:    199.77
	FillingsUpdate:  mu: -0.102443201  nElectrons: 3.000000  magneticMoment: [ Abs: 0.64001  Tot: -0.64000 ]
SCF: Cycle: 34   F: -7.048483690424311   dF: -2.398e-08   |Residual|: 6.780e-06   |deigs|: 2.820e-05  t[s]:    205.36
	FillingsUpdate:  mu: -0.102441488  nElectrons: 3.000000  magneticMoment: [ Abs: 0.64001  Tot: -0.64000 ]
SCF: Cycle: 35   F: -7.048483716950318   dF: -2.653e-08   |Residual|: 5.328e-06   |deigs|: 2.456e-05  t[s]:    210.93
	FillingsUpdate:  mu: -0.102440874  nElectrons: 3.000000  magneticMoment: [ Abs: 0.64001  Tot: -0.64000 ]
SCF: Cycle: 36   F: -7.048483719594205   dF: -2.644e-09   |Residual|: 4.087e-06   |deigs|: 2.135e-05  t[s]:    216.49
	FillingsUpdate:  mu: -0.102439766  nElectrons: 3.000000  magneticMoment: [ Abs: 0.64000  Tot: -0.64000 ]
SCF: Cycle: 37   F: -7.048483720905542   dF: -1.311e-09   |Residual|: 3.171e-06   |deigs|: 1.841e-05  t[s]:    222.07
SCF: Converged (|Delta E|<1.000000e-08 for 2 iters).


# Ionic positions in lattice coordinates:
ion Li   0.000000000000000   0.000000000000000   0.000000000000000 0

# Forces in Lattice coordinates:
force Li   0.000000000000000   0.000000000000000   0.000000000000000 0

# Energy components:
   Eewald =       -1.0026681166851483
       EH =        2.5552980561281413
     Eloc =       -8.2352709177644989
      Enl =       -3.6046987913304172
   Epulay =        0.0000051497655618
      Exc =       -1.5403887199079771
       KE =        4.7792412800254347
-------------------------------------
     Etot =       -7.0484820597689026
       TS =        0.0000016611366399
-------------------------------------
        F =       -7.0484837209055424

IonicMinimize: Iter:   0  F: -7.048483720905542  |grad|_K:  0.000e+00  t[s]:    222.33
IonicMinimize: Converged (|grad|_K<1.000000e-04).

#--- Lowdin population analysis ---
# oxidation-state Li +2.072
# magnetic-moments Li -0.593

End date and time: Sat Feb  5 22:52:51 2022  (Duration: 0-0:03:42.36)
Done!
