
*************** JDFTx 1.6.0 (git hash 42ebbcc2) ***************

Start date and time: Sat Feb  5 22:55:47 2022
Executable jdftx with command-line: -i Alkali.in
Running on hosts (process indices):  d-16-13-1 (0-18)
Divided in process groups (process indices):  0 (0)  1 (1)  2 (2)  3 (3)  4 (4)  5 (5)  6 (6)  7 (7)  8 (8)  9 (9)  10 (10)  11 (11)  12 (12)  13 (13)  14 (14)  15 (15)  16 (16)  17 (17)  18 (18)
Resource initialization completed at t[s]:      0.00
Run totals: 19 processes, 48 threads, 0 GPUs


Input parsed successfully to the following command list (including defaults):

basis kpoint-dependent
coords-type Lattice
core-overlap-check vector
coulomb-interaction Slab 001
davidson-band-ratio 1.1
dump End None
dump-name $INPUT.$VAR
elec-cutoff 20
elec-eigen-algo Davidson
elec-ex-corr gga-PBE
elec-initial-magnetization -0.360000 yes
elec-smearing Fermi 1e-05
electronic-minimize  \
	dirUpdateScheme      FletcherReeves \
	linminMethod         DirUpdateRecommended \
	nIterations          100 \
	history              15 \
	knormThreshold       0 \
	energyDiffThreshold  1e-08 \
	nEnergyDiff          2 \
	alphaTstart          1 \
	alphaTmin            1e-10 \
	updateTestStepSize   yes \
	alphaTreduceFactor   0.1 \
	alphaTincreaseFactor 3 \
	nAlphaAdjustMax      3 \
	wolfeEnergy          0.0001 \
	wolfeGradient        0.9 \
	fdTest               no
electronic-scf  \
	nIterations	10000 \
	energyDiffThreshold	1e-08 \
	residualThreshold	1e-07 \
	mixFraction	0.5 \
	qMetric	0.8 \
	history	10 \
	nEigSteps	2 \
	eigDiffThreshold	1e-08 \
	mixedVariable	Density \
	qKerker	0.8 \
	qKappa	-1 \
	verbose	no \
	mixFractionMag	1.5
exchange-regularization WignerSeitzTruncated
fluid None
fluid-ex-corr (null) lda-PZ
fluid-gummel-loop 10 1.000000e-05
fluid-minimize  \
	dirUpdateScheme      PolakRibiere \
	linminMethod         DirUpdateRecommended \
	nIterations          100 \
	history              15 \
	knormThreshold       0 \
	energyDiffThreshold  0 \
	nEnergyDiff          2 \
	alphaTstart          1 \
	alphaTmin            1e-10 \
	updateTestStepSize   yes \
	alphaTreduceFactor   0.1 \
	alphaTincreaseFactor 3 \
	nAlphaAdjustMax      3 \
	wolfeEnergy          0.0001 \
	wolfeGradient        0.9 \
	fdTest               no
fluid-solvent H2O 55.338 ScalarEOS \
	epsBulk 78.4 \
	pMol 0.92466 \
	epsInf 1.77 \
	Pvap 1.06736e-10 \
	sigmaBulk 4.62e-05 \
	Rvdw 2.61727 \
	Res 1.42 \
	tauNuc 343133 \
	poleEl 15 7 1
forces-output-coords Positions
ion Li   0.000000000000000   0.000000000000000   0.000000000000000 0
ion-species SG15/$ID_ONCV_PBE.upf
ion-width 0
ionic-minimize  \
	dirUpdateScheme      L-BFGS \
	linminMethod         DirUpdateRecommended \
	nIterations          0 \
	history              15 \
	knormThreshold       0.0001 \
	energyDiffThreshold  1e-06 \
	nEnergyDiff          2 \
	alphaTstart          1 \
	alphaTmin            1e-10 \
	updateTestStepSize   yes \
	alphaTreduceFactor   0.1 \
	alphaTincreaseFactor 3 \
	nAlphaAdjustMax      3 \
	wolfeEnergy          0.0001 \
	wolfeGradient        0.9 \
	fdTest               no
kpoint   0.000000000000   0.000000000000   0.000000000000  1.00000000000000
kpoint-folding 12 12 1 
latt-move-scale 1 1 1
latt-scale 4 4 1 
lattice  \
	   4.727486978767153   -2.363743489383575    0.000000000000000  \
	  -0.000000000000000    4.094123819672498    0.000000000000000  \
	   0.000000000000000    0.000000000000000   40.000000000000000 
lattice-minimize  \
	dirUpdateScheme      L-BFGS \
	linminMethod         DirUpdateRecommended \
	nIterations          0 \
	history              15 \
	knormThreshold       0 \
	energyDiffThreshold  1e-06 \
	nEnergyDiff          2 \
	alphaTstart          1 \
	alphaTmin            1e-10 \
	updateTestStepSize   yes \
	alphaTreduceFactor   0.1 \
	alphaTincreaseFactor 3 \
	nAlphaAdjustMax      3 \
	wolfeEnergy          0.0001 \
	wolfeGradient        0.9 \
	fdTest               no
lcao-params -1 1e-06 1e-05
pcm-variant GLSSA13
spintype z-spin
subspace-rotation-factor 1 yes
symmetries automatic
symmetry-threshold 0.0001



---------- Setting up symmetries ----------

Found 24 point-group symmetries of the bravais lattice
Found 24 space-group symmetries with basis
Applied RMS atom displacement 0 bohrs to make symmetries exact.

---------- Initializing the Grid ----------
R = 
[      18.9099     -9.45497            0  ]
[            0      16.3765            0  ]
[            0            0           40  ]
unit cell volume = 12387.1
G =
[   0.332269   0.191835         -0  ]
[          0   0.383671         -0  ]
[         -0         -0    0.15708  ]
Minimum fftbox size, Smin = [  80  80  164  ]
Chosen fftbox size, S = [  80  80  168  ]

---------- Exchange Correlation functional ----------
Initalized PBE GGA exchange.
Initalized PBE GGA correlation.

---------- Setting up pseudopotentials ----------
Width of ionic core gaussian charges (only for fluid interactions / plotting) set to 0

Reading pseudopotential file '/home/gridsan/aligho/DFT/build-Nov24/pseudopotentials/SG15/Li_ONCV_PBE.upf':
  'Li' pseudopotential, 'PBE' functional
  Generated using ONCVPSP code by D. R. Hamann
  Author: Martin Schlipf and Francois Gygi  Date: 150915.
  3 valence electrons, 2 orbitals, 4 projectors, 1328 radial grid points, with lMax = 1
  Transforming local potential to a uniform radial grid of dG=0.02 with 1489 points.
  Transforming nonlocal projectors to a uniform radial grid of dG=0.02 with 432 points.
    1S    l: 0   occupation:  2.0   eigenvalue: -1.905623
    2S    l: 0   occupation:  1.0   eigenvalue: -0.105624
  Transforming atomic orbitals to a uniform radial grid of dG=0.02 with 432 points.
  WARNING: large normalization error in atomic orbital 1s (integral: 0.000000).
  Core radius for overlap checks: 1.63 bohrs.
  Reading pulay file /home/gridsan/aligho/DFT/build-Nov24/pseudopotentials/SG15/Li_ONCV_PBE.pulay ... using dE_dnG = -1.230239e-02 computed for Ecut = 20.

Initialized 1 species with 1 total atoms.

Folded 1 k-points by 12x12x1 to 144 k-points.

---------- Setting up k-points, bands, fillings ----------
Reduced to 19 k-points under symmetry. 
Computing the number of bands and number of electrons
Calculating initial fillings.
nElectrons:   3.000000   nBands: 3   nStates: 38

----- Setting up reduced wavefunction bases (one per k-point) -----
average nbasis = 52924.021 , ideal nbasis = 52918.836

---------- Setting up coulomb interaction ----------
Initialized slab truncation along lattice direction 001

---------- Setting up 2D ewald sum ----------
Optimum gaussian width for ewald sums = 10.498040 bohr.
Real space sums over 289 unit cells with max indices [  8  8  0  ]
Reciprocal space sums over 81 terms with max indices [  4  4  0  ]

---------- Allocating electronic variables ----------
Initializing wave functions:  linear combination of atomic orbitals
Note: number of bands (3) exceeds available atomic orbitals (2)
Li pseudo-atom occupations:   s ( 2 1 )
	FillingsUpdate:  mu: +0.365248845  nElectrons: 3.000000  magneticMoment: [ Abs: 0.36000  Tot: -0.36000 ]
LCAOMinimize: Iter:   0  F: -1.3113047988326501  |grad|_K:  4.145e-05  alpha:  1.000e+00
	FillingsUpdate:  mu: +0.365248330  nElectrons: 3.000000  magneticMoment: [ Abs: 0.36000  Tot: -0.36000 ]
LCAOMinimize: Iter:   1  F: -1.3113051007235477  |grad|_K:  1.264e-06  alpha:  1.026e+00  linmin: -6.662e-01  cgtest:  9.575e-01  t[s]:     12.75
LCAOMinimize: Encountered beta<0, resetting CG.
	FillingsUpdate:  mu: +0.365248314  nElectrons: 3.000000  magneticMoment: [ Abs: 0.36000  Tot: -0.36000 ]
LCAOMinimize: Iter:   2  F: -1.3113051010125345  |grad|_K:  1.521e-08  alpha:  1.046e+00  linmin: -6.985e-01  cgtest:  9.768e-01  t[s]:     16.01
LCAOMinimize: Encountered beta<0, resetting CG.
LCAOMinimize: Converged (|Delta F|<1.000000e-06 for 2 iters).


---- Citations for features of the code used in this run ----

   Software package:
      R. Sundararaman, K. Letchworth-Weaver, K.A. Schwarz, D. Gunceler, Y. Ozhabes and T.A. Arias, 'JDFTx: software for joint density-functional theory', SoftwareX 6, 278 (2017)

   gga-PBE exchange-correlation functional:
      J.P. Perdew, K. Burke and M. Ernzerhof, Phys. Rev. Lett. 77, 3865 (1996)

   Pseudopotentials:
      M Schlipf and F Gygi, Comput. Phys. Commun. 196, 36 (2015)

   Truncated Coulomb potentials:
      R. Sundararaman and T.A. Arias, Phys. Rev. B 87, 165122 (2013)

This list may not be complete. Please suggest additional citations or
report any other bugs at https://github.com/shankar1729/jdftx/issues

Initialization completed successfully at t[s]:     16.15


-------- Electronic minimization -----------
Will mix electronic density at each iteration.
	FillingsUpdate:  mu: +0.365248314  nElectrons: 3.000000  magneticMoment: [ Abs: 0.36000  Tot: -0.36000 ]
	FillingsUpdate:  mu: -0.615742662  nElectrons: 3.000000  magneticMoment: [ Abs: 0.36000  Tot: -0.36000 ]
SCF: Cycle:  0   F: -6.870828072855825   dF: -5.560e+00   |Residual|: 1.229e+00   |deigs|: 4.155e+00  t[s]:     21.77
	FillingsUpdate:  mu: -0.491468522  nElectrons: 3.000000  magneticMoment: [ Abs: 0.62305  Tot: -0.36000 ]
SCF: Cycle:  1   F: -6.916119882116376   dF: -4.529e-02   |Residual|: 7.613e-01   |deigs|: 2.765e-01  t[s]:     26.28
	FillingsUpdate:  mu: -0.258188988  nElectrons: 3.000000  magneticMoment: [ Abs: 0.80276  Tot: -0.36000 ]
SCF: Cycle:  2   F: -7.036730865512263   dF: -1.206e-01   |Residual|: 3.206e-01   |deigs|: 7.074e-01  t[s]:     30.90
	FillingsUpdate:  mu: -0.270477998  nElectrons: 3.000000  magneticMoment: [ Abs: 0.75051  Tot: -0.36000 ]
SCF: Cycle:  3   F: -7.037231683930371   dF: -5.008e-04   |Residual|: 1.882e-01   |deigs|: 7.181e-02  t[s]:     35.68
	FillingsUpdate:  mu: -0.235382741  nElectrons: 3.000000  magneticMoment: [ Abs: 0.70343  Tot: -0.36000 ]
SCF: Cycle:  4   F: -7.036590634467092   dF: +6.410e-04   |Residual|: 6.291e-02   |deigs|: 3.034e-02  t[s]:     40.56
	FillingsUpdate:  mu: -0.221933104  nElectrons: 3.000000  magneticMoment: [ Abs: 0.69517  Tot: -0.36000 ]
SCF: Cycle:  5   F: -7.037946593621866   dF: -1.356e-03   |Residual|: 1.186e-01   |deigs|: 1.209e-02  t[s]:     45.50
	FillingsUpdate:  mu: -0.197121915  nElectrons: 3.000000  magneticMoment: [ Abs: 0.56433  Tot: -0.36000 ]
SCF: Cycle:  6   F: -7.041921705569312   dF: -3.975e-03   |Residual|: 2.362e-02   |deigs|: 7.310e-02  t[s]:     50.52
	FillingsUpdate:  mu: -0.180333014  nElectrons: 3.000000  magneticMoment: [ Abs: 0.46364  Tot: -0.36000 ]
SCF: Cycle:  7   F: -7.043475302417421   dF: -1.554e-03   |Residual|: 1.070e-01   |deigs|: 5.159e-02  t[s]:     55.71
	FillingsUpdate:  mu: -0.185548271  nElectrons: 3.000000  magneticMoment: [ Abs: 0.41395  Tot: -0.36000 ]
SCF: Cycle:  8   F: -7.043698867145279   dF: -2.236e-04   |Residual|: 5.753e-02   |deigs|: 2.155e-02  t[s]:     61.15
	FillingsUpdate:  mu: -0.189291109  nElectrons: 3.000000  magneticMoment: [ Abs: 0.44870  Tot: -0.36000 ]
SCF: Cycle:  9   F: -7.044170742260539   dF: -4.719e-04   |Residual|: 1.028e-01   |deigs|: 6.269e-02  t[s]:     66.58
	FillingsUpdate:  mu: -0.162161135  nElectrons: 3.000000  magneticMoment: [ Abs: 0.44680  Tot: -0.36000 ]
SCF: Cycle: 10   F: -7.045194733703135   dF: -1.024e-03   |Residual|: 2.971e-02   |deigs|: 4.794e-02  t[s]:     72.05
	FillingsUpdate:  mu: -0.151185085  nElectrons: 3.000000  magneticMoment: [ Abs: 0.47579  Tot: -0.36000 ]
SCF: Cycle: 11   F: -7.045261870547351   dF: -6.714e-05   |Residual|: 4.614e-02   |deigs|: 2.985e-02  t[s]:     77.61
	FillingsUpdate:  mu: -0.147239551  nElectrons: 3.000000  magneticMoment: [ Abs: 0.42677  Tot: -0.36000 ]
SCF: Cycle: 12   F: -7.045406191274235   dF: -1.443e-04   |Residual|: 1.389e-02   |deigs|: 1.805e-02  t[s]:     83.18
	FillingsUpdate:  mu: -0.130025270  nElectrons: 3.000000  magneticMoment: [ Abs: 0.47876  Tot: -0.36000 ]
SCF: Cycle: 13   F: -7.045602495841584   dF: -1.963e-04   |Residual|: 6.957e-03   |deigs|: 2.008e-02  t[s]:     88.75
	FillingsUpdate:  mu: -0.119839741  nElectrons: 3.000000  magneticMoment: [ Abs: 0.47287  Tot: -0.36000 ]
SCF: Cycle: 14   F: -7.045621706905493   dF: -1.921e-05   |Residual|: 5.577e-03   |deigs|: 1.127e-02  t[s]:     94.25
	FillingsUpdate:  mu: -0.113204298  nElectrons: 3.000000  magneticMoment: [ Abs: 0.45201  Tot: -0.36000 ]
SCF: Cycle: 15   F: -7.045617060794790   dF: +4.646e-06   |Residual|: 3.959e-03   |deigs|: 6.735e-03  t[s]:     99.76
	FillingsUpdate:  mu: -0.110844553  nElectrons: 3.000000  magneticMoment: [ Abs: 0.44451  Tot: -0.36000 ]
SCF: Cycle: 16   F: -7.045665838516340   dF: -4.878e-05   |Residual|: 3.154e-03   |deigs|: 2.316e-03  t[s]:    105.23
	FillingsUpdate:  mu: -0.108280695  nElectrons: 3.000000  magneticMoment: [ Abs: 0.41855  Tot: -0.36000 ]
SCF: Cycle: 17   F: -7.045638299234287   dF: +2.754e-05   |Residual|: 2.288e-03   |deigs|: 2.240e-03  t[s]:    110.76
	FillingsUpdate:  mu: -0.106764671  nElectrons: 3.000000  magneticMoment: [ Abs: 0.40925  Tot: -0.36000 ]
SCF: Cycle: 18   F: -7.045673053675079   dF: -3.475e-05   |Residual|: 1.651e-03   |deigs|: 1.357e-03  t[s]:    116.34
	FillingsUpdate:  mu: -0.106297899  nElectrons: 3.000000  magneticMoment: [ Abs: 0.39384  Tot: -0.36000 ]
SCF: Cycle: 19   F: -7.045693203502791   dF: -2.015e-05   |Residual|: 1.267e-03   |deigs|: 8.318e-04  t[s]:    121.90
	FillingsUpdate:  mu: -0.105959568  nElectrons: 3.000000  magneticMoment: [ Abs: 0.38143  Tot: -0.36000 ]
SCF: Cycle: 20   F: -7.045724164572823   dF: -3.096e-05   |Residual|: 8.896e-04   |deigs|: 7.752e-04  t[s]:    127.45
	FillingsUpdate:  mu: -0.105402980  nElectrons: 3.000000  magneticMoment: [ Abs: 0.37493  Tot: -0.36000 ]
SCF: Cycle: 21   F: -7.045741084813073   dF: -1.692e-05   |Residual|: 7.423e-04   |deigs|: 7.129e-04  t[s]:    133.03
	FillingsUpdate:  mu: -0.104800199  nElectrons: 3.000000  magneticMoment: [ Abs: 0.36853  Tot: -0.36000 ]
SCF: Cycle: 22   F: -7.045751591664585   dF: -1.051e-05   |Residual|: 4.826e-04   |deigs|: 6.018e-04  t[s]:    138.51
	FillingsUpdate:  mu: -0.104598030  nElectrons: 3.000000  magneticMoment: [ Abs: 0.36678  Tot: -0.36000 ]
SCF: Cycle: 23   F: -7.045753961718776   dF: -2.370e-06   |Residual|: 3.461e-04   |deigs|: 1.921e-04  t[s]:    144.03
	FillingsUpdate:  mu: -0.104567944  nElectrons: 3.000000  magneticMoment: [ Abs: 0.36399  Tot: -0.36000 ]
SCF: Cycle: 24   F: -7.045754652279763   dF: -6.906e-07   |Residual|: 2.131e-04   |deigs|: 1.438e-04  t[s]:    149.56
	FillingsUpdate:  mu: -0.104577356  nElectrons: 3.000000  magneticMoment: [ Abs: 0.36253  Tot: -0.36000 ]
SCF: Cycle: 25   F: -7.045755634764722   dF: -9.825e-07   |Residual|: 1.272e-04   |deigs|: 1.081e-04  t[s]:    155.12
	FillingsUpdate:  mu: -0.104594328  nElectrons: 3.000000  magneticMoment: [ Abs: 0.36217  Tot: -0.36000 ]
SCF: Cycle: 26   F: -7.045755832215439   dF: -1.975e-07   |Residual|: 8.728e-05   |deigs|: 7.613e-05  t[s]:    160.68
	FillingsUpdate:  mu: -0.104602194  nElectrons: 3.000000  magneticMoment: [ Abs: 0.36168  Tot: -0.36000 ]
SCF: Cycle: 27   F: -7.045755972727676   dF: -1.405e-07   |Residual|: 6.140e-05   |deigs|: 6.680e-05  t[s]:    166.19
	FillingsUpdate:  mu: -0.104606036  nElectrons: 3.000000  magneticMoment: [ Abs: 0.36125  Tot: -0.36000 ]
SCF: Cycle: 28   F: -7.045756019980604   dF: -4.725e-08   |Residual|: 4.328e-05   |deigs|: 5.520e-05  t[s]:    171.69
	FillingsUpdate:  mu: -0.104613693  nElectrons: 3.000000  magneticMoment: [ Abs: 0.36084  Tot: -0.36000 ]
SCF: Cycle: 29   F: -7.045756077753571   dF: -5.777e-08   |Residual|: 3.022e-05   |deigs|: 4.540e-05  t[s]:    177.22
	FillingsUpdate:  mu: -0.104628226  nElectrons: 3.000000  magneticMoment: [ Abs: 0.36054  Tot: -0.36000 ]
SCF: Cycle: 30   F: -7.045756050411912   dF: +2.734e-08   |Residual|: 2.218e-05   |deigs|: 4.563e-05  t[s]:    182.76
	FillingsUpdate:  mu: -0.104644259  nElectrons: 3.000000  magneticMoment: [ Abs: 0.36031  Tot: -0.36000 ]
SCF: Cycle: 31   F: -7.045756056352776   dF: -5.941e-09   |Residual|: 1.438e-05   |deigs|: 4.352e-05  t[s]:    188.20
	FillingsUpdate:  mu: -0.104650860  nElectrons: 3.000000  magneticMoment: [ Abs: 0.36020  Tot: -0.36000 ]
SCF: Cycle: 32   F: -7.045756065584549   dF: -9.232e-09   |Residual|: 1.125e-05   |deigs|: 3.523e-05  t[s]:    193.79
SCF: Converged (|Delta E|<1.000000e-08 for 2 iters).


# Ionic positions in lattice coordinates:
ion Li   0.000000000000000   0.000000000000000   0.000000000000000 0

# Forces in Lattice coordinates:
force Li  -0.000000000000000  -0.000000000000000   0.000000000000000 0

# Energy components:
   Eewald =       -1.0026681166851483
       EH =        2.5484783271020088
     Eloc =       -8.2267758684829460
      Enl =       -3.6036554616587493
   Epulay =        0.0000051497655618
      Exc =       -1.5359757183946718
       KE =        4.7748373263199202
-------------------------------------
     Etot =       -7.0457543620340264
       TS =        0.0000017035505225
-------------------------------------
        F =       -7.0457560655845493

IonicMinimize: Iter:   0  F: -7.045756065584549  |grad|_K:  0.000e+00  t[s]:    194.04
IonicMinimize: Converged (|grad|_K<1.000000e-04).

#--- Lowdin population analysis ---
# oxidation-state Li +2.079
# magnetic-moments Li -0.333

End date and time: Sat Feb  5 22:59:02 2022  (Duration: 0-0:03:14.07)
Done!
