--------------------------------------------------------------------------
The library attempted to open the following supporting CUDA libraries,
but each of them failed.  CUDA-aware support is disabled.
libcuda.so.1: cannot open shared object file: No such file or directory
libcuda.dylib: cannot open shared object file: No such file or directory
/usr/lib64/libcuda.so.1: cannot open shared object file: No such file or directory
/usr/lib64/libcuda.dylib: cannot open shared object file: No such file or directory
If you are not interested in CUDA-aware support, then run with
--mca opal_warn_on_missing_libcuda 0 to suppress this message.  If you are interested
in CUDA-aware support, then try setting LD_LIBRARY_PATH to the location
of libcuda.so.1 to get passed this issue.
--------------------------------------------------------------------------
--------------------------------------------------------------------------
No OpenFabrics connection schemes reported that they were able to be
used on a specific port.  As such, the openib BTL (OpenFabrics
support) will be disabled for this port.

  Local host:           d-5-1-1
  Local device:         mlx5_1
  Local port:           1
  CPCs attempted:       rdmacm, udcm
--------------------------------------------------------------------------

*************** JDFTx 1.6.0 (git hash 42ebbcc2) ***************

Start date and time: Mon Jan 31 13:47:23 2022
Executable jdftx with command-line: -i BN22BC.in
Running on hosts (process indices):  d-5-1-1 (0-3)
Divided in process groups (process indices):  0 (0)  1 (1)  2 (2)  3 (3)
Resource initialization completed at t[s]:      0.00
Run totals: 4 processes, 40 threads, 0 GPUs


Input parsed successfully to the following command list (including defaults):

basis kpoint-dependent
coords-type Lattice
core-overlap-check vector
coulomb-interaction Slab 001
davidson-band-ratio 1.1
dump End State ElecDensity BandEigs
dump-name $INPUT.$VAR
elec-cutoff 20
elec-eigen-algo Davidson
elec-ex-corr hyb-HSE06
elec-initial-magnetization 1.000000 no
elec-smearing Fermi 1e-05
electronic-minimize  \
	dirUpdateScheme      FletcherReeves \
	linminMethod         DirUpdateRecommended \
	nIterations          100 \
	history              15 \
	knormThreshold       0 \
	energyDiffThreshold  1e-08 \
	nEnergyDiff          2 \
	alphaTstart          1 \
	alphaTmin            1e-10 \
	updateTestStepSize   yes \
	alphaTreduceFactor   0.1 \
	alphaTincreaseFactor 3 \
	nAlphaAdjustMax      3 \
	wolfeEnergy          0.0001 \
	wolfeGradient        0.9 \
	fdTest               no
electronic-scf  \
	nIterations	1000 \
	energyDiffThreshold	1e-08 \
	residualThreshold	1e-07 \
	mixFraction	0.5 \
	qMetric	0.8 \
	history	10 \
	nEigSteps	2 \
	eigDiffThreshold	1e-08 \
	mixedVariable	Density \
	qKerker	0.8 \
	qKappa	-1 \
	verbose	no \
	mixFractionMag	1.5
exchange-regularization WignerSeitzTruncated
fluid None
fluid-ex-corr (null) lda-PZ
fluid-gummel-loop 10 1.000000e-05
fluid-minimize  \
	dirUpdateScheme      PolakRibiere \
	linminMethod         DirUpdateRecommended \
	nIterations          100 \
	history              15 \
	knormThreshold       0 \
	energyDiffThreshold  0 \
	nEnergyDiff          2 \
	alphaTstart          1 \
	alphaTmin            1e-10 \
	updateTestStepSize   yes \
	alphaTreduceFactor   0.1 \
	alphaTincreaseFactor 3 \
	nAlphaAdjustMax      3 \
	wolfeEnergy          0.0001 \
	wolfeGradient        0.9 \
	fdTest               no
fluid-solvent H2O 55.338 ScalarEOS \
	epsBulk 78.4 \
	pMol 0.92466 \
	epsInf 1.77 \
	Pvap 1.06736e-10 \
	sigmaBulk 4.62e-05 \
	Rvdw 2.61727 \
	Res 1.42 \
	tauNuc 343133 \
	poleEl 15 7 1
forces-output-coords Positions
ion C   0.000000000000000  -0.000000000000000   0.000000000000000 1
ion N   0.164313074529992   0.328626149059985   0.000000000000000 1
ion N   0.164313074529992   0.835686925470008   0.000000000000000 1
ion N   0.666666666666667   0.333333333333333   0.000000000000000 1
ion N   0.671373850940015   0.835686925470008   0.000000000000000 1
ion B  -0.001576660817548   0.499211669591226   0.000000000000000 1
ion B   0.500788330408774   0.001576660817548   0.000000000000000 1
ion B   0.500788330408774   0.499211669591226   0.000000000000000 1
ion-species SG15/$ID_ONCV_PBE.upf
ion-width 0
ionic-minimize  \
	dirUpdateScheme      L-BFGS \
	linminMethod         DirUpdateRecommended \
	nIterations          0 \
	history              15 \
	knormThreshold       0.0001 \
	energyDiffThreshold  1e-06 \
	nEnergyDiff          2 \
	alphaTstart          1 \
	alphaTmin            1e-10 \
	updateTestStepSize   yes \
	alphaTreduceFactor   0.1 \
	alphaTincreaseFactor 3 \
	nAlphaAdjustMax      3 \
	wolfeEnergy          0.0001 \
	wolfeGradient        0.9 \
	fdTest               no
kpoint   0.000000000000   0.000000000000   0.000000000000  1.00000000000000
kpoint-folding 2 2 1 
latt-move-scale 1 1 1
latt-scale 1 1 1 
lattice  \
	   9.356640512437433   -4.678320256218713    0.000000000000000  \
	  -0.000000000000000    8.103088377849462    0.000000000000000  \
	   0.000000000000000    0.000000000000000   40.000000000000000 
lattice-minimize  \
	dirUpdateScheme      L-BFGS \
	linminMethod         DirUpdateRecommended \
	nIterations          0 \
	history              15 \
	knormThreshold       0 \
	energyDiffThreshold  1e-06 \
	nEnergyDiff          2 \
	alphaTstart          1 \
	alphaTmin            1e-10 \
	updateTestStepSize   yes \
	alphaTreduceFactor   0.1 \
	alphaTincreaseFactor 3 \
	nAlphaAdjustMax      3 \
	wolfeEnergy          0.0001 \
	wolfeGradient        0.9 \
	fdTest               no
lcao-params -1 1e-06 1e-05
pcm-variant GLSSA13
spintype z-spin
subspace-rotation-factor 1 yes
symmetries automatic
symmetry-threshold 0.0001



---------- Setting up symmetries ----------

Found 24 point-group symmetries of the bravais lattice
Found 12 space-group symmetries with basis
Applied RMS atom displacement 3.80214e-15 bohrs to make symmetries exact.

---------- Initializing the Grid ----------
R = 
[      9.35664     -4.67832            0  ]
[            0      8.10309            0  ]
[            0            0           40  ]
unit cell volume = 3032.71
G =
[   0.671522   0.387703         -0  ]
[          0   0.775406         -0  ]
[         -0         -0    0.15708  ]
Minimum fftbox size, Smin = [  40  40  164  ]
Chosen fftbox size, S = [  40  40  168  ]

---------- Exchange Correlation functional ----------
Initalized omega-PBE short-ranged GGA exchange.
Initalized PBE GGA exchange.
Initalized PBE GGA correlation.
Will include 0.25 x screened exact exchange with range-parameter 0.11

---------- Setting up pseudopotentials ----------
Width of ionic core gaussian charges (only for fluid interactions / plotting) set to 0

Reading pseudopotential file '/home/gridsan/aligho/DFT/build-Nov24/pseudopotentials/SG15/C_ONCV_PBE.upf':
  'C' pseudopotential, 'PBE' functional
  Generated using ONCVPSP code by D. R. Hamann
  Author: Martin Schlipf and Francois Gygi  Date: 150915.
  4 valence electrons, 2 orbitals, 4 projectors, 1248 radial grid points, with lMax = 1
  Transforming local potential to a uniform radial grid of dG=0.02 with 1502 points.
  Transforming nonlocal projectors to a uniform radial grid of dG=0.02 with 432 points.
    2S    l: 0   occupation:  2.0   eigenvalue: -0.505335
    2P    l: 1   occupation:  2.0   eigenvalue: -0.194238
  Transforming atomic orbitals to a uniform radial grid of dG=0.02 with 432 points.
  Core radius for overlap checks: 1.23 bohrs.
  Reading pulay file /home/gridsan/aligho/DFT/build-Nov24/pseudopotentials/SG15/C_ONCV_PBE.pulay ... using dE_dnG = -9.239532e-03 computed for Ecut = 20.

Reading pseudopotential file '/home/gridsan/aligho/DFT/build-Nov24/pseudopotentials/SG15/N_ONCV_PBE.upf':
  'N' pseudopotential, 'PBE' functional
  Generated using ONCVPSP code by D. R. Hamann
  Author: Martin Schlipf and Francois Gygi  Date: 150915.
  5 valence electrons, 2 orbitals, 4 projectors, 1058 radial grid points, with lMax = 1
  Transforming local potential to a uniform radial grid of dG=0.02 with 1502 points.
  Transforming nonlocal projectors to a uniform radial grid of dG=0.02 with 432 points.
    2S    l: 0   occupation:  2.0   eigenvalue: -0.682907
    2P    l: 1   occupation:  3.0   eigenvalue: -0.260548
  Transforming atomic orbitals to a uniform radial grid of dG=0.02 with 432 points.
  Core radius for overlap checks: 1.35 bohrs.
  Reading pulay file /home/gridsan/aligho/DFT/build-Nov24/pseudopotentials/SG15/N_ONCV_PBE.pulay ... using dE_dnG = -2.956256e-02 computed for Ecut = 20.

Reading pseudopotential file '/home/gridsan/aligho/DFT/build-Nov24/pseudopotentials/SG15/B_ONCV_PBE.upf':
  'B' pseudopotential, 'PBE' functional
  Generated using ONCVPSP code by D. R. Hamann
  Author: Martin Schlipf and Francois Gygi  Date: 150915.
  3 valence electrons, 2 orbitals, 4 projectors, 1534 radial grid points, with lMax = 1
  Transforming local potential to a uniform radial grid of dG=0.02 with 1502 points.
  Transforming nonlocal projectors to a uniform radial grid of dG=0.02 with 432 points.
    2S    l: 0   occupation:  2.0   eigenvalue: -0.347027
    2P    l: 1   occupation:  1.0   eigenvalue: -0.132548
  Transforming atomic orbitals to a uniform radial grid of dG=0.02 with 432 points.
  Core radius for overlap checks: 1.60 bohrs.
  Reading pulay file /home/gridsan/aligho/DFT/build-Nov24/pseudopotentials/SG15/B_ONCV_PBE.pulay ... using dE_dnG = -3.748568e-04 computed for Ecut = 20.

Initialized 3 species with 8 total atoms.

Folded 1 k-points by 2x2x1 to 4 k-points.

---------- Setting up k-points, bands, fillings ----------
Reduced to 2 k-points under symmetry. 
Computing the number of bands and number of electrons
Calculating initial fillings.
nElectrons:  33.000000   nBands: 32   nStates: 4

----- Setting up reduced wavefunction bases (one per k-point) -----
average nbasis = 12951.750 , ideal nbasis = 12955.957

----- Initializing Supercell corresponding to k-point mesh -----
Lattice vector linear combinations in supercell:
[   2   0   0  ]
[   0   2   0  ]
[   0   0   1  ]
Supercell lattice vectors:
[  18.7133  -9.35664  0  ]
[  0  16.2062  0  ]
[  0  0  40  ]

---------- Setting up coulomb interaction ----------
Initialized slab truncation along lattice direction 001

--- Setting up screened exchange kernel (omega = 0.11) ---
Creating Wigner-Seitz truncated kernel on k-point supercell with sample count [  84 84 170 ]
Constructing Wigner-Seitz cell: 8 faces (6 quadrilaterals, 2 hexagons)
Gaussian width for range separation: 0.985903 bohrs.
FFT grid for long-range part: [ 84 84 180 ].
Planning fourier transform ... Done.
Computing truncated long-range part in real space ... Done.
Adding short-range part in reciprocal space ... Done.
Splitting supercell kernel to unit-cell with k-points ... Done.

---------- Setting up exact exchange ----------
Optimizing transforms to minimize k-point pairs ... done (200 steps).
Reduced 16 k-pairs to 10 under symmetries.
Transforms per reduced k-pair: 1 min, 3 max, 2.5 mean.
Per-iteration cost relative to semi-local calculation ~ 50

---------- Setting up 2D ewald sum ----------
Optimum gaussian width for ewald sums = 5.194429 bohr.
Real space sums over 289 unit cells with max indices [  8  8  0  ]
Reciprocal space sums over 81 terms with max indices [  4  4  0  ]

---------- Allocating electronic variables ----------
Initializing wave functions:  linear combination of atomic orbitals
Initializing semi-local functional for LCAO:
Initalized PBE GGA exchange.
Initalized PBE GGA correlation.
C pseudo-atom occupations:   s ( 2 )  p ( 2 )
N pseudo-atom occupations:   s ( 2 )  p ( 3 )
B pseudo-atom occupations:   s ( 2 )  p ( 1 )
[d-5-1-1:58018] 3 more processes have sent help message help-mpi-common-cuda.txt / dlopen failed
[d-5-1-1:58018] Set MCA parameter "orte_base_help_aggregate" to 0 to see all help / error messages
[d-5-1-1:58018] 3 more processes have sent help message help-mpi-btl-openib-cpc-base.txt / no cpcs for port
	FillingsUpdate:  mu: -0.169728443  nElectrons: 33.000000  magneticMoment: [ Abs: 1.02389  Tot: +1.00000 ]
LCAOMinimize: Iter:   0  F: -53.3639160503421266  |grad|_K:  1.554e-02  alpha:  1.000e+00
	FillingsUpdate:  mu: -0.156358882  nElectrons: 33.000000  magneticMoment: [ Abs: 1.02479  Tot: +1.00000 ]
LCAOMinimize: Iter:   1  F: -53.5578867004343024  |grad|_K:  2.544e-03  alpha:  4.329e-01  linmin:  3.137e-01  cgtest: -7.558e-01  t[s]:     12.03
	FillingsUpdate:  mu: -0.151909247  nElectrons: 33.000000  magneticMoment: [ Abs: 1.02672  Tot: +1.00000 ]
LCAOMinimize: Iter:   2  F: -53.5593484463220761  |grad|_K:  1.997e-03  alpha:  2.604e-01  linmin:  9.509e-04  cgtest:  8.393e-01  t[s]:     15.62
LCAOMinimize: Encountered beta<0, resetting CG.
	FillingsUpdate:  mu: -0.154267119  nElectrons: 33.000000  magneticMoment: [ Abs: 1.02916  Tot: +1.00000 ]
LCAOMinimize: Iter:   3  F: -53.5626945188707566  |grad|_K:  2.599e-04  alpha:  3.884e-01  linmin:  6.723e-02  cgtest: -1.376e-01  t[s]:     19.22
	FillingsUpdate:  mu: -0.154749004  nElectrons: 33.000000  magneticMoment: [ Abs: 1.03104  Tot: +1.00000 ]
LCAOMinimize: Iter:   4  F: -53.5627473923091344  |grad|_K:  6.165e-05  alpha:  3.745e-01  linmin:  3.221e-03  cgtest:  1.606e-01  t[s]:     22.83
	FillingsUpdate:  mu: -0.154569331  nElectrons: 33.000000  magneticMoment: [ Abs: 1.03331  Tot: +1.00000 ]
LCAOMinimize: Iter:   5  F: -53.5627527123346567  |grad|_K:  3.581e-05  alpha:  6.426e-01  linmin: -6.239e-04  cgtest:  3.342e-03  t[s]:     26.27
	FillingsUpdate:  mu: -0.154392582  nElectrons: 33.000000  magneticMoment: [ Abs: 1.03539  Tot: +1.00000 ]
LCAOMinimize: Iter:   6  F: -53.5627545717880693  |grad|_K:  1.456e-05  alpha:  6.647e-01  linmin: -5.604e-04  cgtest: -5.104e-03  t[s]:     30.34
	FillingsUpdate:  mu: -0.154390064  nElectrons: 33.000000  magneticMoment: [ Abs: 1.03587  Tot: +1.00000 ]
LCAOMinimize: Iter:   7  F: -53.5627547795338330  |grad|_K:  3.107e-06  alpha:  4.492e-01  linmin:  8.364e-07  cgtest: -4.885e-03  t[s]:     34.47
	FillingsUpdate:  mu: -0.154396586  nElectrons: 33.000000  magneticMoment: [ Abs: 1.03606  Tot: +1.00000 ]
LCAOMinimize: Iter:   8  F: -53.5627547962080754  |grad|_K:  1.118e-06  alpha:  7.929e-01  linmin: -4.002e-04  cgtest:  1.552e-03  t[s]:     38.64
LCAOMinimize: Converged (|Delta F|<1.000000e-06 for 2 iters).


---- Citations for features of the code used in this run ----

   Software package:
      R. Sundararaman, K. Letchworth-Weaver, K.A. Schwarz, D. Gunceler, Y. Ozhabes and T.A. Arias, 'JDFTx: software for joint density-functional theory', SoftwareX 6, 278 (2017)

   hyb-HSE06 exchange-correlation functional:
      A.V. Krukau, O.A. Vydrov, A.F. Izmaylov and G.E. Scuseria, J. Chem. Phys. 125, 224106 (2006)

   Pseudopotentials:
      M Schlipf and F Gygi, Comput. Phys. Commun. 196, 36 (2015)

   Truncated Coulomb potentials:
   Wigner-Seitz truncated method for exact exchange:
      R. Sundararaman and T.A. Arias, Phys. Rev. B 87, 165122 (2013)

   gga-PBE exchange-correlation functional:
      J.P. Perdew, K. Burke and M. Ernzerhof, Phys. Rev. Lett. 77, 3865 (1996)

This list may not be complete. Please suggest additional citations or
report any other bugs at https://github.com/shankar1729/jdftx/issues

Initialization completed successfully at t[s]:     38.94


-------- Electronic minimization -----------
Will mix electronic density at each iteration.
Constructing ACE exchange operator ... 10% 13% 43% 50% 60% 63% 93% 100% done.

	FillingsUpdate:  mu: -0.154396586  nElectrons: 33.000000  magneticMoment: [ Abs: 1.03606  Tot: +1.00000 ]
	FillingsUpdate:  mu: -0.152791849  nElectrons: 33.000000  magneticMoment: [ Abs: 1.03606  Tot: +1.00000 ]
SCF: Cycle:  0   F: -53.954536537736061   dF: -3.766e-01   |Residual|: 2.271e-01   |deigs|: 2.069e-01  t[s]:    360.39
	FillingsUpdate:  mu: -0.126827597  nElectrons: 33.000000  magneticMoment: [ Abs: 1.11033  Tot: +1.00000 ]
SCF: Cycle:  1   F: -53.987911684474554   dF: -3.338e-02   |Residual|: 1.260e-01   |deigs|: 3.143e-02  t[s]:    368.36
	FillingsUpdate:  mu: -0.102374501  nElectrons: 33.000000  magneticMoment: [ Abs: 1.11956  Tot: +1.00000 ]
SCF: Cycle:  2   F: -54.005405234576244   dF: -1.749e-02   |Residual|: 2.889e-02   |deigs|: 3.022e-02  t[s]:    376.31
	FillingsUpdate:  mu: -0.095368322  nElectrons: 33.000000  magneticMoment: [ Abs: 1.11968  Tot: +1.00000 ]
SCF: Cycle:  3   F: -54.007261949686267   dF: -1.857e-03   |Residual|: 1.770e-02   |deigs|: 1.439e-02  t[s]:    383.55
	FillingsUpdate:  mu: -0.088470433  nElectrons: 33.000000  magneticMoment: [ Abs: 1.11224  Tot: +1.00000 ]
SCF: Cycle:  4   F: -54.008616292357758   dF: -1.354e-03   |Residual|: 9.393e-03   |deigs|: 8.230e-03  t[s]:    391.98
	FillingsUpdate:  mu: -0.081583177  nElectrons: 33.000000  magneticMoment: [ Abs: 1.11292  Tot: +1.00000 ]
SCF: Cycle:  5   F: -54.009843439795709   dF: -1.227e-03   |Residual|: 6.797e-03   |deigs|: 6.498e-03  t[s]:    400.27
	FillingsUpdate:  mu: -0.075635355  nElectrons: 33.000000  magneticMoment: [ Abs: 1.11274  Tot: +1.00000 ]
SCF: Cycle:  6   F: -54.010488247234434   dF: -6.448e-04   |Residual|: 4.460e-03   |deigs|: 5.089e-03  t[s]:    408.64
	FillingsUpdate:  mu: -0.070583456  nElectrons: 33.000000  magneticMoment: [ Abs: 1.11084  Tot: +1.00000 ]
SCF: Cycle:  7   F: -54.010539079284683   dF: -5.083e-05   |Residual|: 3.447e-03   |deigs|: 6.137e-03  t[s]:    418.04
	FillingsUpdate:  mu: -0.066134992  nElectrons: 33.000000  magneticMoment: [ Abs: 1.11178  Tot: +1.00000 ]
SCF: Cycle:  8   F: -54.010611319415162   dF: -7.224e-05   |Residual|: 2.753e-03   |deigs|: 4.720e-03  t[s]:    427.55
	FillingsUpdate:  mu: -0.062575676  nElectrons: 33.000000  magneticMoment: [ Abs: 1.11063  Tot: +1.00000 ]
SCF: Cycle:  9   F: -54.010727898145682   dF: -1.166e-04   |Residual|: 2.173e-03   |deigs|: 3.730e-03  t[s]:    437.42
	FillingsUpdate:  mu: -0.060074975  nElectrons: 33.000000  magneticMoment: [ Abs: 1.11081  Tot: +1.00000 ]
SCF: Cycle: 10   F: -54.010757053456587   dF: -2.916e-05   |Residual|: 1.792e-03   |deigs|: 2.528e-03  t[s]:    447.36
	FillingsUpdate:  mu: -0.057316573  nElectrons: 33.000000  magneticMoment: [ Abs: 1.11062  Tot: +1.00000 ]
SCF: Cycle: 11   F: -54.010794680028866   dF: -3.763e-05   |Residual|: 1.536e-03   |deigs|: 2.635e-03  t[s]:    456.48
	FillingsUpdate:  mu: -0.054627908  nElectrons: 33.000000  magneticMoment: [ Abs: 1.11022  Tot: +1.00000 ]
SCF: Cycle: 12   F: -54.010838259619064   dF: -4.358e-05   |Residual|: 1.304e-03   |deigs|: 2.623e-03  t[s]:    465.67
	FillingsUpdate:  mu: -0.052122584  nElectrons: 33.000000  magneticMoment: [ Abs: 1.11065  Tot: +1.00000 ]
SCF: Cycle: 13   F: -54.010862529121496   dF: -2.427e-05   |Residual|: 1.245e-03   |deigs|: 2.495e-03  t[s]:    475.35
	FillingsUpdate:  mu: -0.048608393  nElectrons: 33.000000  magneticMoment: [ Abs: 1.11054  Tot: +1.00000 ]
SCF: Cycle: 14   F: -54.010845006293735   dF: +1.752e-05   |Residual|: 1.096e-03   |deigs|: 3.292e-03  t[s]:    485.02
	FillingsUpdate:  mu: -0.044866460  nElectrons: 33.000000  magneticMoment: [ Abs: 1.11043  Tot: +1.00000 ]
SCF: Cycle: 15   F: -54.010852700888407   dF: -7.695e-06   |Residual|: 1.066e-03   |deigs|: 3.238e-03  t[s]:    494.20
	FillingsUpdate:  mu: -0.040368134  nElectrons: 33.000000  magneticMoment: [ Abs: 1.11068  Tot: +1.00000 ]
SCF: Cycle: 16   F: -54.010909965699980   dF: -5.726e-05   |Residual|: 8.745e-04   |deigs|: 4.339e-03  t[s]:    503.98
	FillingsUpdate:  mu: -0.037304399  nElectrons: 33.000000  magneticMoment: [ Abs: 1.11038  Tot: +1.00000 ]
SCF: Cycle: 17   F: -54.010961784222246   dF: -5.182e-05   |Residual|: 6.949e-04   |deigs|: 2.925e-03  t[s]:    513.09
	FillingsUpdate:  mu: -0.035723550  nElectrons: 33.000000  magneticMoment: [ Abs: 1.11016  Tot: +1.00000 ]
SCF: Cycle: 18   F: -54.010986218545696   dF: -2.443e-05   |Residual|: 4.627e-04   |deigs|: 1.646e-03  t[s]:    522.34
	FillingsUpdate:  mu: -0.035000701  nElectrons: 33.000000  magneticMoment: [ Abs: 1.11014  Tot: +1.00000 ]
SCF: Cycle: 19   F: -54.011004386371916   dF: -1.817e-05   |Residual|: 2.554e-04   |deigs|: 9.788e-04  t[s]:    532.17
	FillingsUpdate:  mu: -0.034677600  nElectrons: 33.000000  magneticMoment: [ Abs: 1.10987  Tot: +1.00000 ]
SCF: Cycle: 20   F: -54.011021869907381   dF: -1.748e-05   |Residual|: 1.531e-04   |deigs|: 6.599e-04  t[s]:    541.70
	FillingsUpdate:  mu: -0.034544905  nElectrons: 33.000000  magneticMoment: [ Abs: 1.10994  Tot: +1.00000 ]
SCF: Cycle: 21   F: -54.011036592253049   dF: -1.472e-05   |Residual|: 7.612e-05   |deigs|: 3.603e-04  t[s]:    551.18
	FillingsUpdate:  mu: -0.034454984  nElectrons: 33.000000  magneticMoment: [ Abs: 1.10991  Tot: +1.00000 ]
SCF: Cycle: 22   F: -54.011041763208809   dF: -5.171e-06   |Residual|: 3.658e-05   |deigs|: 3.867e-04  t[s]:    560.92
	FillingsUpdate:  mu: -0.034426632  nElectrons: 33.000000  magneticMoment: [ Abs: 1.10990  Tot: +1.00000 ]
SCF: Cycle: 23   F: -54.011043889191328   dF: -2.126e-06   |Residual|: 1.800e-05   |deigs|: 4.299e-04  t[s]:    570.70
	FillingsUpdate:  mu: -0.034418032  nElectrons: 33.000000  magneticMoment: [ Abs: 1.10989  Tot: +1.00000 ]
SCF: Cycle: 24   F: -54.011044868705142   dF: -9.795e-07   |Residual|: 1.038e-05   |deigs|: 5.873e-04  t[s]:    580.09
	FillingsUpdate:  mu: -0.034414346  nElectrons: 33.000000  magneticMoment: [ Abs: 1.10989  Tot: +1.00000 ]
SCF: Cycle: 25   F: -54.011045531757965   dF: -6.631e-07   |Residual|: 5.206e-06   |deigs|: 2.828e-04  t[s]:    589.77
	FillingsUpdate:  mu: -0.034411972  nElectrons: 33.000000  magneticMoment: [ Abs: 1.10989  Tot: +1.00000 ]
SCF: Cycle: 26   F: -54.011045672601817   dF: -1.408e-07   |Residual|: 2.998e-06   |deigs|: 9.878e-05  t[s]:    599.76
	FillingsUpdate:  mu: -0.034411221  nElectrons: 33.000000  magneticMoment: [ Abs: 1.10989  Tot: +1.00000 ]
SCF: Cycle: 27   F: -54.011045556690441   dF: +1.159e-07   |Residual|: 1.624e-06   |deigs|: 7.926e-05  t[s]:    610.39
	FillingsUpdate:  mu: -0.034411025  nElectrons: 33.000000  magneticMoment: [ Abs: 1.10989  Tot: +1.00000 ]
SCF: Cycle: 28   F: -54.011045567158128   dF: -1.047e-08   |Residual|: 1.035e-06   |deigs|: 4.179e-05  t[s]:    620.28
	FillingsUpdate:  mu: -0.034411570  nElectrons: 33.000000  magneticMoment: [ Abs: 1.10989  Tot: +1.00000 ]
SCF: Cycle: 29   F: -54.011045554772608   dF: +1.239e-08   |Residual|: 7.190e-07   |deigs|: 3.796e-05  t[s]:    629.24
	FillingsUpdate:  mu: -0.034411936  nElectrons: 33.000000  magneticMoment: [ Abs: 1.10989  Tot: +1.00000 ]
SCF: Cycle: 30   F: -54.011045534296045   dF: +2.048e-08   |Residual|: 5.597e-07   |deigs|: 1.804e-05  t[s]:    637.84
	FillingsUpdate:  mu: -0.034412954  nElectrons: 33.000000  magneticMoment: [ Abs: 1.10989  Tot: +1.00000 ]
SCF: Cycle: 31   F: -54.011045534866930   dF: -5.709e-10   |Residual|: 5.041e-07   |deigs|: 1.949e-05  t[s]:    647.20
	FillingsUpdate:  mu: -0.034413639  nElectrons: 33.000000  magneticMoment: [ Abs: 1.10989  Tot: +1.00000 ]
SCF: Cycle: 32   F: -54.011045533880065   dF: +9.869e-10   |Residual|: 4.467e-07   |deigs|: 1.191e-05  t[s]:    657.09
	FillingsUpdate:  mu: -0.034415721  nElectrons: 33.000000  magneticMoment: [ Abs: 1.10989  Tot: +1.00000 ]
SCF: Cycle: 33   F: -54.011045512990719   dF: +2.089e-08   |Residual|: 3.762e-07   |deigs|: 1.751e-05  t[s]:    667.03
	FillingsUpdate:  mu: -0.034417097  nElectrons: 33.000000  magneticMoment: [ Abs: 1.10989  Tot: +1.00000 ]
SCF: Cycle: 34   F: -54.011045496927416   dF: +1.606e-08   |Residual|: 3.211e-07   |deigs|: 1.017e-05  t[s]:    675.62
	FillingsUpdate:  mu: -0.034418490  nElectrons: 33.000000  magneticMoment: [ Abs: 1.10989  Tot: +1.00000 ]
SCF: Cycle: 35   F: -54.011045464069241   dF: +3.286e-08   |Residual|: 2.388e-07   |deigs|: 4.920e-06  t[s]:    684.79
	FillingsUpdate:  mu: -0.034419101  nElectrons: 33.000000  magneticMoment: [ Abs: 1.10989  Tot: +1.00000 ]
SCF: Cycle: 36   F: -54.011045457312562   dF: +6.757e-09   |Residual|: 1.515e-07   |deigs|: 2.342e-06  t[s]:    693.26
	FillingsUpdate:  mu: -0.034419474  nElectrons: 33.000000  magneticMoment: [ Abs: 1.10989  Tot: +1.00000 ]
SCF: Cycle: 37   F: -54.011045452055427   dF: +5.257e-09   |Residual|: 1.003e-07   |deigs|: 1.658e-06  t[s]:    702.62
	FillingsUpdate:  mu: -0.034419600  nElectrons: 33.000000  magneticMoment: [ Abs: 1.10989  Tot: +1.00000 ]
SCF: Cycle: 38   F: -54.011045449128090   dF: +2.927e-09   |Residual|: 5.318e-08   |deigs|: 1.516e-06  t[s]:    711.93
	FillingsUpdate:  mu: -0.034419648  nElectrons: 33.000000  magneticMoment: [ Abs: 1.10989  Tot: +1.00000 ]
SCF: Cycle: 39   F: -54.011045450530311   dF: -1.402e-09   |Residual|: 3.291e-08   |deigs|: 6.734e-07  t[s]:    721.13
SCF: Converged (|Residual|<1.000000e-07 for 2 iters).

	FillingsUpdate:  mu: -0.034419648  nElectrons: 33.000000  magneticMoment: [ Abs: 1.10989  Tot: +1.00000 ]
VxxLoop: Iter:  0   F: -54.011045450530311   dF: -4.331e-01
Constructing ACE exchange operator ... 10% 13% 43% 50% 60% 63% 93% 100% done.

	FillingsUpdate:  mu: -0.035162893  nElectrons: 33.000000  magneticMoment: [ Abs: 1.10989  Tot: +1.00000 ]
SCF: Cycle:  0   F: -54.089381005130022   dF: -7.834e-02   |Residual|: 2.046e-02   |deigs|: 1.334e-01  t[s]:   1013.02
	FillingsUpdate:  mu: -0.035165737  nElectrons: 33.000000  magneticMoment: [ Abs: 1.10989  Tot: +1.00000 ]
SCF: Cycle:  1   F: -54.089259981184611   dF: +1.210e-04   |Residual|: 2.183e-02   |deigs|: 4.999e-06  t[s]:   1022.14
	FillingsUpdate:  mu: -0.035165822  nElectrons: 33.000000  magneticMoment: [ Abs: 1.10989  Tot: +1.00000 ]
SCF: Cycle:  2   F: -54.089269109524565   dF: -9.128e-06   |Residual|: 2.210e-02   |deigs|: 1.944e-06  t[s]:   1031.62
	FillingsUpdate:  mu: -0.035165872  nElectrons: 33.000000  magneticMoment: [ Abs: 1.10989  Tot: +1.00000 ]
SCF: Cycle:  3   F: -54.089279128143488   dF: -1.002e-05   |Residual|: 2.217e-02   |deigs|: 1.126e-06  t[s]:   1041.21
	FillingsUpdate:  mu: -0.035165910  nElectrons: 33.000000  magneticMoment: [ Abs: 1.10989  Tot: +1.00000 ]
SCF: Cycle:  4   F: -54.089284366657083   dF: -5.239e-06   |Residual|: 2.221e-02   |deigs|: 7.244e-07  t[s]:   1051.47
	FillingsUpdate:  mu: -0.035165926  nElectrons: 33.000000  magneticMoment: [ Abs: 1.10989  Tot: +1.00000 ]
SCF: Cycle:  5   F: -54.089287873514479   dF: -3.507e-06   |Residual|: 2.222e-02   |deigs|: 5.981e-07  t[s]:   1060.78
	FillingsUpdate:  mu: -0.035165956  nElectrons: 33.000000  magneticMoment: [ Abs: 1.10989  Tot: +1.00000 ]
SCF: Cycle:  6   F: -54.089289677541871   dF: -1.804e-06   |Residual|: 2.223e-02   |deigs|: 5.204e-07  t[s]:   1070.31
	FillingsUpdate:  mu: -0.035165923  nElectrons: 33.000000  magneticMoment: [ Abs: 1.10989  Tot: +1.00000 ]
SCF: Cycle:  7   F: -54.089290852635465   dF: -1.175e-06   |Residual|: 2.224e-02   |deigs|: 4.055e-07  t[s]:   1079.92
	FillingsUpdate:  mu: -0.035165623  nElectrons: 33.000000  magneticMoment: [ Abs: 1.10989  Tot: +1.00000 ]
SCF: Cycle:  8   F: -54.089291573001574   dF: -7.204e-07   |Residual|: 2.224e-02   |deigs|: 6.636e-07  t[s]:   1089.23
	FillingsUpdate:  mu: -0.035165842  nElectrons: 33.000000  magneticMoment: [ Abs: 1.10989  Tot: +1.00000 ]
SCF: Cycle:  9   F: -54.089291996927628   dF: -4.239e-07   |Residual|: 2.224e-02   |deigs|: 3.941e-07  t[s]:   1098.28
	FillingsUpdate:  mu: -0.035901339  nElectrons: 33.000000  magneticMoment: [ Abs: 1.12363  Tot: +1.00000 ]
SCF: Cycle: 10   F: -54.089560348328519   dF: -2.684e-04   |Residual|: 2.160e-02   |deigs|: 9.396e-04  t[s]:   1107.51
	FillingsUpdate:  mu: -0.035519963  nElectrons: 33.000000  magneticMoment: [ Abs: 1.13959  Tot: +1.00000 ]
SCF: Cycle: 11   F: -54.090323377621452   dF: -7.630e-04   |Residual|: 1.968e-02   |deigs|: 1.558e-03  t[s]:   1116.74
	FillingsUpdate:  mu: -0.034256063  nElectrons: 33.000000  magneticMoment: [ Abs: 1.13737  Tot: +1.00000 ]
SCF: Cycle: 12   F: -54.090712637603744   dF: -3.893e-04   |Residual|: 1.827e-02   |deigs|: 1.176e-03  t[s]:   1126.50
	FillingsUpdate:  mu: -0.033361096  nElectrons: 33.000000  magneticMoment: [ Abs: 1.14072  Tot: +1.00000 ]
SCF: Cycle: 13   F: -54.091038941490325   dF: -3.263e-04   |Residual|: 1.828e-02   |deigs|: 1.005e-03  t[s]:   1135.60
	FillingsUpdate:  mu: -0.033285140  nElectrons: 33.000000  magneticMoment: [ Abs: 1.12581  Tot: +1.00000 ]
SCF: Cycle: 14   F: -54.091166292823942   dF: -1.274e-04   |Residual|: 1.719e-02   |deigs|: 9.543e-04  t[s]:   1146.41
	FillingsUpdate:  mu: -0.032712470  nElectrons: 33.000000  magneticMoment: [ Abs: 1.13522  Tot: +1.00000 ]
SCF: Cycle: 15   F: -54.091335125768190   dF: -1.688e-04   |Residual|: 1.728e-02   |deigs|: 1.585e-03  t[s]:   1156.14
	FillingsUpdate:  mu: -0.033372283  nElectrons: 33.000000  magneticMoment: [ Abs: 1.13460  Tot: +1.00000 ]
SCF: Cycle: 16   F: -54.091745221562377   dF: -4.101e-04   |Residual|: 1.452e-02   |deigs|: 8.853e-04  t[s]:   1165.22
	FillingsUpdate:  mu: -0.034004702  nElectrons: 33.000000  magneticMoment: [ Abs: 1.13239  Tot: +1.00000 ]
SCF: Cycle: 17   F: -54.092142683385788   dF: -3.975e-04   |Residual|: 1.447e-02   |deigs|: 1.018e-03  t[s]:   1174.72
	FillingsUpdate:  mu: -0.034463753  nElectrons: 33.000000  magneticMoment: [ Abs: 1.13352  Tot: +1.00000 ]
SCF: Cycle: 18   F: -54.092258088888144   dF: -1.154e-04   |Residual|: 1.457e-02   |deigs|: 8.277e-04  t[s]:   1183.50
	FillingsUpdate:  mu: -0.035220043  nElectrons: 33.000000  magneticMoment: [ Abs: 1.12607  Tot: +1.00000 ]
SCF: Cycle: 19   F: -54.091134321963381   dF: +1.124e-03   |Residual|: 5.135e-03   |deigs|: 1.760e-03  t[s]:   1193.08
	FillingsUpdate:  mu: -0.034929797  nElectrons: 33.000000  magneticMoment: [ Abs: 1.12814  Tot: +1.00000 ]
SCF: Cycle: 20   F: -54.091122630407540   dF: +1.169e-05   |Residual|: 1.318e-03   |deigs|: 1.309e-03  t[s]:   1202.73
	FillingsUpdate:  mu: -0.034902573  nElectrons: 33.000000  magneticMoment: [ Abs: 1.12813  Tot: +1.00000 ]
SCF: Cycle: 21   F: -54.091203314990437   dF: -8.068e-05   |Residual|: 6.610e-04   |deigs|: 5.730e-04  t[s]:   1211.84
	FillingsUpdate:  mu: -0.035000746  nElectrons: 33.000000  magneticMoment: [ Abs: 1.12813  Tot: +1.00000 ]
SCF: Cycle: 22   F: -54.091245194739827   dF: -4.188e-05   |Residual|: 3.564e-04   |deigs|: 6.400e-04  t[s]:   1221.06
	FillingsUpdate:  mu: -0.035067877  nElectrons: 33.000000  magneticMoment: [ Abs: 1.12812  Tot: +1.00000 ]
SCF: Cycle: 23   F: -54.091252423298322   dF: -7.229e-06   |Residual|: 2.220e-04   |deigs|: 2.652e-04  t[s]:   1230.89
	FillingsUpdate:  mu: -0.035032522  nElectrons: 33.000000  magneticMoment: [ Abs: 1.12812  Tot: +1.00000 ]
SCF: Cycle: 24   F: -54.091258179870664   dF: -5.757e-06   |Residual|: 1.424e-04   |deigs|: 4.177e-04  t[s]:   1240.53
	FillingsUpdate:  mu: -0.034786635  nElectrons: 33.000000  magneticMoment: [ Abs: 1.12800  Tot: +1.00000 ]
SCF: Cycle: 25   F: -54.091271687676056   dF: -1.351e-05   |Residual|: 9.190e-05   |deigs|: 5.504e-04  t[s]:   1250.78
	FillingsUpdate:  mu: -0.034477807  nElectrons: 33.000000  magneticMoment: [ Abs: 1.12791  Tot: +1.00000 ]
SCF: Cycle: 26   F: -54.091278356987353   dF: -6.669e-06   |Residual|: 6.517e-05   |deigs|: 3.953e-04  t[s]:   1259.96
	FillingsUpdate:  mu: -0.034101405  nElectrons: 33.000000  magneticMoment: [ Abs: 1.12775  Tot: +1.00000 ]
SCF: Cycle: 27   F: -54.091275639990982   dF: +2.717e-06   |Residual|: 4.933e-05   |deigs|: 3.328e-04  t[s]:   1269.24
	FillingsUpdate:  mu: -0.033772925  nElectrons: 33.000000  magneticMoment: [ Abs: 1.12765  Tot: +1.00000 ]
SCF: Cycle: 28   F: -54.091274261835807   dF: +1.378e-06   |Residual|: 4.141e-05   |deigs|: 2.965e-04  t[s]:   1278.80
	FillingsUpdate:  mu: -0.033336731  nElectrons: 33.000000  magneticMoment: [ Abs: 1.12755  Tot: +1.00000 ]
SCF: Cycle: 29   F: -54.091274465501463   dF: -2.037e-07   |Residual|: 3.431e-05   |deigs|: 5.123e-04  t[s]:   1287.40
	FillingsUpdate:  mu: -0.032722131  nElectrons: 33.000000  magneticMoment: [ Abs: 1.12747  Tot: +1.00000 ]
SCF: Cycle: 30   F: -54.091273914174792   dF: +5.513e-07   |Residual|: 3.161e-05   |deigs|: 5.278e-04  t[s]:   1296.37
	FillingsUpdate:  mu: -0.032713572  nElectrons: 33.000000  magneticMoment: [ Abs: 1.12743  Tot: +1.00000 ]
SCF: Cycle: 31   F: -54.091271056490783   dF: +2.858e-06   |Residual|: 2.601e-05   |deigs|: 9.858e-04  t[s]:   1306.06
	FillingsUpdate:  mu: -0.032937339  nElectrons: 33.000000  magneticMoment: [ Abs: 1.12743  Tot: +1.00000 ]
SCF: Cycle: 32   F: -54.091270387152946   dF: +6.693e-07   |Residual|: 2.189e-05   |deigs|: 7.263e-04  t[s]:   1315.18
	FillingsUpdate:  mu: -0.033219839  nElectrons: 33.000000  magneticMoment: [ Abs: 1.12744  Tot: +1.00000 ]
SCF: Cycle: 33   F: -54.091270487494832   dF: -1.003e-07   |Residual|: 1.889e-05   |deigs|: 2.812e-04  t[s]:   1325.03
	FillingsUpdate:  mu: -0.033401859  nElectrons: 33.000000  magneticMoment: [ Abs: 1.12745  Tot: +1.00000 ]
SCF: Cycle: 34   F: -54.091268267675190   dF: +2.220e-06   |Residual|: 1.693e-05   |deigs|: 2.844e-04  t[s]:   1335.01
	FillingsUpdate:  mu: -0.033607110  nElectrons: 33.000000  magneticMoment: [ Abs: 1.12744  Tot: +1.00000 ]
SCF: Cycle: 35   F: -54.091265616655527   dF: +2.651e-06   |Residual|: 1.672e-05   |deigs|: 4.618e-04  t[s]:   1345.56
	FillingsUpdate:  mu: -0.033701288  nElectrons: 33.000000  magneticMoment: [ Abs: 1.12744  Tot: +1.00000 ]
SCF: Cycle: 36   F: -54.091265624919373   dF: -8.264e-09   |Residual|: 1.353e-05   |deigs|: 2.908e-04  t[s]:   1354.95
	FillingsUpdate:  mu: -0.033738380  nElectrons: 33.000000  magneticMoment: [ Abs: 1.12743  Tot: +1.00000 ]
SCF: Cycle: 37   F: -54.091266586513981   dF: -9.616e-07   |Residual|: 1.077e-05   |deigs|: 5.491e-04  t[s]:   1364.29
	FillingsUpdate:  mu: -0.033776249  nElectrons: 33.000000  magneticMoment: [ Abs: 1.12743  Tot: +1.00000 ]
SCF: Cycle: 38   F: -54.091266347783417   dF: +2.387e-07   |Residual|: 6.396e-06   |deigs|: 3.564e-04  t[s]:   1373.33
	FillingsUpdate:  mu: -0.033781864  nElectrons: 33.000000  magneticMoment: [ Abs: 1.12742  Tot: +1.00000 ]
SCF: Cycle: 39   F: -54.091266024960873   dF: +3.228e-07   |Residual|: 4.614e-06   |deigs|: 4.980e-04  t[s]:   1382.61
	FillingsUpdate:  mu: -0.033788718  nElectrons: 33.000000  magneticMoment: [ Abs: 1.12742  Tot: +1.00000 ]
SCF: Cycle: 40   F: -54.091266385619022   dF: -3.607e-07   |Residual|: 2.402e-06   |deigs|: 1.971e-04  t[s]:   1392.23
	FillingsUpdate:  mu: -0.033785173  nElectrons: 33.000000  magneticMoment: [ Abs: 1.12741  Tot: +1.00000 ]
SCF: Cycle: 41   F: -54.091266455705359   dF: -7.009e-08   |Residual|: 2.209e-06   |deigs|: 9.515e-05  t[s]:   1401.56
	FillingsUpdate:  mu: -0.033788617  nElectrons: 33.000000  magneticMoment: [ Abs: 1.12741  Tot: +1.00000 ]
SCF: Cycle: 42   F: -54.091266117089027   dF: +3.386e-07   |Residual|: 1.890e-06   |deigs|: 5.530e-05  t[s]:   1411.10
	FillingsUpdate:  mu: -0.033788524  nElectrons: 33.000000  magneticMoment: [ Abs: 1.12740  Tot: +1.00000 ]
SCF: Cycle: 43   F: -54.091266119085702   dF: -1.997e-09   |Residual|: 1.419e-06   |deigs|: 4.925e-05  t[s]:   1421.20
	FillingsUpdate:  mu: -0.033789291  nElectrons: 33.000000  magneticMoment: [ Abs: 1.12740  Tot: +1.00000 ]
SCF: Cycle: 44   F: -54.091266152294494   dF: -3.321e-08   |Residual|: 1.432e-06   |deigs|: 3.377e-05  t[s]:   1431.76
	FillingsUpdate:  mu: -0.033785035  nElectrons: 33.000000  magneticMoment: [ Abs: 1.12740  Tot: +1.00000 ]
SCF: Cycle: 45   F: -54.091266045140024   dF: +1.072e-07   |Residual|: 8.067e-07   |deigs|: 1.802e-05  t[s]:   1440.67
	FillingsUpdate:  mu: -0.033780992  nElectrons: 33.000000  magneticMoment: [ Abs: 1.12740  Tot: +1.00000 ]
SCF: Cycle: 46   F: -54.091266001114747   dF: +4.403e-08   |Residual|: 6.363e-07   |deigs|: 1.968e-05  t[s]:   1449.52
	FillingsUpdate:  mu: -0.033778937  nElectrons: 33.000000  magneticMoment: [ Abs: 1.12740  Tot: +1.00000 ]
SCF: Cycle: 47   F: -54.091266073075374   dF: -7.196e-08   |Residual|: 3.237e-07   |deigs|: 4.839e-06  t[s]:   1458.28
	FillingsUpdate:  mu: -0.033777870  nElectrons: 33.000000  magneticMoment: [ Abs: 1.12740  Tot: +1.00000 ]
SCF: Cycle: 48   F: -54.091266078889696   dF: -5.814e-09   |Residual|: 2.116e-07   |deigs|: 6.254e-06  t[s]:   1467.21
	FillingsUpdate:  mu: -0.033776217  nElectrons: 33.000000  magneticMoment: [ Abs: 1.12740  Tot: +1.00000 ]
SCF: Cycle: 49   F: -54.091266096508789   dF: -1.762e-08   |Residual|: 1.396e-07   |deigs|: 4.246e-06  t[s]:   1476.30
	FillingsUpdate:  mu: -0.033775893  nElectrons: 33.000000  magneticMoment: [ Abs: 1.12740  Tot: +1.00000 ]
SCF: Cycle: 50   F: -54.091266098726216   dF: -2.217e-09   |Residual|: 8.767e-08   |deigs|: 2.073e-06  t[s]:   1485.89
	FillingsUpdate:  mu: -0.033775265  nElectrons: 33.000000  magneticMoment: [ Abs: 1.12740  Tot: +1.00000 ]
SCF: Cycle: 51   F: -54.091266101078332   dF: -2.352e-09   |Residual|: 5.209e-08   |deigs|: 1.854e-06  t[s]:   1494.82
SCF: Converged (|Delta E|<1.000000e-08 for 2 iters).

	FillingsUpdate:  mu: -0.033775265  nElectrons: 33.000000  magneticMoment: [ Abs: 1.12740  Tot: +1.00000 ]
VxxLoop: Iter:  1   F: -54.091266101077892   dF: -8.022e-02
Constructing ACE exchange operator ... 10% 13% 43% 50% 60% 63% 93% 100% done.

	FillingsUpdate:  mu: -0.033655707  nElectrons: 33.000000  magneticMoment: [ Abs: 1.12740  Tot: +1.00000 ]
SCF: Cycle:  0   F: -54.096133942300682   dF: -4.868e-03   |Residual|: 2.504e-03   |deigs|: 1.337e-01  t[s]:   1822.82
	FillingsUpdate:  mu: -0.033657375  nElectrons: 33.000000  magneticMoment: [ Abs: 1.12740  Tot: +1.00000 ]
SCF: Cycle:  1   F: -54.096118498878781   dF: +1.544e-05   |Residual|: 2.643e-03   |deigs|: 3.771e-06  t[s]:   1832.00
	FillingsUpdate:  mu: -0.033657358  nElectrons: 33.000000  magneticMoment: [ Abs: 1.12740  Tot: +1.00000 ]
SCF: Cycle:  2   F: -54.096117551116890   dF: +9.478e-07   |Residual|: 2.669e-03   |deigs|: 3.322e-07  t[s]:   1840.37
	FillingsUpdate:  mu: -0.033657379  nElectrons: 33.000000  magneticMoment: [ Abs: 1.12740  Tot: +1.00000 ]
SCF: Cycle:  3   F: -54.096117829618990   dF: -2.785e-07   |Residual|: 2.692e-03   |deigs|: 3.822e-07  t[s]:   1849.55
	FillingsUpdate:  mu: -0.033657324  nElectrons: 33.000000  magneticMoment: [ Abs: 1.12740  Tot: +1.00000 ]
SCF: Cycle:  4   F: -54.096118605196523   dF: -7.756e-07   |Residual|: 2.702e-03   |deigs|: 2.277e-07  t[s]:   1859.39
	FillingsUpdate:  mu: -0.033657277  nElectrons: 33.000000  magneticMoment: [ Abs: 1.12740  Tot: +1.00000 ]
SCF: Cycle:  5   F: -54.096118810500485   dF: -2.053e-07   |Residual|: 2.706e-03   |deigs|: 1.818e-07  t[s]:   1869.12
	FillingsUpdate:  mu: -0.033657256  nElectrons: 33.000000  magneticMoment: [ Abs: 1.12740  Tot: +1.00000 ]
SCF: Cycle:  6   F: -54.096118897308472   dF: -8.681e-08   |Residual|: 2.708e-03   |deigs|: 5.280e-07  t[s]:   1878.01
	FillingsUpdate:  mu: -0.033657364  nElectrons: 33.000000  magneticMoment: [ Abs: 1.12740  Tot: +1.00000 ]
SCF: Cycle:  7   F: -54.096118954063982   dF: -5.676e-08   |Residual|: 2.710e-03   |deigs|: 2.534e-07  t[s]:   1888.10
	FillingsUpdate:  mu: -0.033657456  nElectrons: 33.000000  magneticMoment: [ Abs: 1.12740  Tot: +1.00000 ]
SCF: Cycle:  8   F: -54.096118981780734   dF: -2.772e-08   |Residual|: 2.710e-03   |deigs|: 3.788e-07  t[s]:   1897.41
	FillingsUpdate:  mu: -0.033657217  nElectrons: 33.000000  magneticMoment: [ Abs: 1.12740  Tot: +1.00000 ]
SCF: Cycle:  9   F: -54.096118993376855   dF: -1.160e-08   |Residual|: 2.711e-03   |deigs|: 5.659e-07  t[s]:   1907.44
	FillingsUpdate:  mu: -0.032368329  nElectrons: 33.000000  magneticMoment: [ Abs: 1.12927  Tot: +1.00000 ]
SCF: Cycle: 10   F: -54.096163967532647   dF: -4.497e-05   |Residual|: 2.475e-03   |deigs|: 9.504e-04  t[s]:   1917.30
	FillingsUpdate:  mu: -0.032176635  nElectrons: 33.000000  magneticMoment: [ Abs: 1.13102  Tot: +1.00000 ]
SCF: Cycle: 11   F: -54.096171197565653   dF: -7.230e-06   |Residual|: 2.448e-03   |deigs|: 6.695e-04  t[s]:   1926.87
	FillingsUpdate:  mu: -0.033027165  nElectrons: 33.000000  magneticMoment: [ Abs: 1.13140  Tot: +1.00000 ]
SCF: Cycle: 12   F: -54.096216885464770   dF: -4.569e-05   |Residual|: 2.268e-03   |deigs|: 8.044e-04  t[s]:   1935.75
	FillingsUpdate:  mu: -0.033653044  nElectrons: 33.000000  magneticMoment: [ Abs: 1.12884  Tot: +1.00000 ]
SCF: Cycle: 13   F: -54.096288532022847   dF: -7.165e-05   |Residual|: 1.979e-03   |deigs|: 5.140e-04  t[s]:   1945.01
	FillingsUpdate:  mu: -0.033873880  nElectrons: 33.000000  magneticMoment: [ Abs: 1.12792  Tot: +1.00000 ]
SCF: Cycle: 14   F: -54.096329712738005   dF: -4.118e-05   |Residual|: 1.923e-03   |deigs|: 2.381e-04  t[s]:   1954.09
	FillingsUpdate:  mu: -0.033695009  nElectrons: 33.000000  magneticMoment: [ Abs: 1.12746  Tot: +1.00000 ]
SCF: Cycle: 15   F: -54.096338634076361   dF: -8.921e-06   |Residual|: 1.936e-03   |deigs|: 3.034e-04  t[s]:   1963.41
	FillingsUpdate:  mu: -0.033418736  nElectrons: 33.000000  magneticMoment: [ Abs: 1.12726  Tot: +1.00000 ]
SCF: Cycle: 16   F: -54.096341775396567   dF: -3.141e-06   |Residual|: 1.938e-03   |deigs|: 3.245e-04  t[s]:   1973.23
	FillingsUpdate:  mu: -0.033143989  nElectrons: 33.000000  magneticMoment: [ Abs: 1.12739  Tot: +1.00000 ]
SCF: Cycle: 17   F: -54.096342837206706   dF: -1.062e-06   |Residual|: 1.938e-03   |deigs|: 6.781e-04  t[s]:   1982.82
	FillingsUpdate:  mu: -0.033505820  nElectrons: 33.000000  magneticMoment: [ Abs: 1.12737  Tot: +1.00000 ]
SCF: Cycle: 18   F: -54.096338570156057   dF: +4.267e-06   |Residual|: 1.878e-03   |deigs|: 8.108e-04  t[s]:   1992.44
	FillingsUpdate:  mu: -0.034589573  nElectrons: 33.000000  magneticMoment: [ Abs: 1.13213  Tot: +1.00000 ]
SCF: Cycle: 19   F: -54.096232640893348   dF: +1.059e-04   |Residual|: 6.345e-04   |deigs|: 1.039e-03  t[s]:   2002.76
	FillingsUpdate:  mu: -0.034710052  nElectrons: 33.000000  magneticMoment: [ Abs: 1.13211  Tot: +1.00000 ]
SCF: Cycle: 20   F: -54.096234671140223   dF: -2.030e-06   |Residual|: 2.292e-04   |deigs|: 1.689e-04  t[s]:   2012.28
	FillingsUpdate:  mu: -0.034574687  nElectrons: 33.000000  magneticMoment: [ Abs: 1.13220  Tot: +1.00000 ]
SCF: Cycle: 21   F: -54.096237670168364   dF: -2.999e-06   |Residual|: 1.034e-04   |deigs|: 2.359e-04  t[s]:   2022.65
	FillingsUpdate:  mu: -0.034399170  nElectrons: 33.000000  magneticMoment: [ Abs: 1.13211  Tot: +1.00000 ]
SCF: Cycle: 22   F: -54.096243581413290   dF: -5.911e-06   |Residual|: 4.300e-05   |deigs|: 3.916e-04  t[s]:   2032.50
	FillingsUpdate:  mu: -0.034282137  nElectrons: 33.000000  magneticMoment: [ Abs: 1.13212  Tot: +1.00000 ]
SCF: Cycle: 23   F: -54.096243575453855   dF: +5.959e-09   |Residual|: 3.290e-05   |deigs|: 1.262e-04  t[s]:   2041.78
	FillingsUpdate:  mu: -0.034076257  nElectrons: 33.000000  magneticMoment: [ Abs: 1.13212  Tot: +1.00000 ]
SCF: Cycle: 24   F: -54.096243154501522   dF: +4.210e-07   |Residual|: 2.860e-05   |deigs|: 4.099e-04  t[s]:   2051.36
	FillingsUpdate:  mu: -0.033784132  nElectrons: 33.000000  magneticMoment: [ Abs: 1.13207  Tot: +1.00000 ]
SCF: Cycle: 25   F: -54.096244381855527   dF: -1.227e-06   |Residual|: 1.778e-05   |deigs|: 2.459e-04  t[s]:   2061.04
	FillingsUpdate:  mu: -0.033591294  nElectrons: 33.000000  magneticMoment: [ Abs: 1.13203  Tot: +1.00000 ]
SCF: Cycle: 26   F: -54.096244036802560   dF: +3.451e-07   |Residual|: 1.242e-05   |deigs|: 1.528e-04  t[s]:   2070.02
	FillingsUpdate:  mu: -0.033488280  nElectrons: 33.000000  magneticMoment: [ Abs: 1.13202  Tot: +1.00000 ]
SCF: Cycle: 27   F: -54.096243286985086   dF: +7.498e-07   |Residual|: 7.683e-06   |deigs|: 1.857e-04  t[s]:   2079.11
	FillingsUpdate:  mu: -0.033446232  nElectrons: 33.000000  magneticMoment: [ Abs: 1.13201  Tot: +1.00000 ]
SCF: Cycle: 28   F: -54.096242719216555   dF: +5.678e-07   |Residual|: 4.965e-06   |deigs|: 2.132e-04  t[s]:   2088.25
	FillingsUpdate:  mu: -0.033498794  nElectrons: 33.000000  magneticMoment: [ Abs: 1.13201  Tot: +1.00000 ]
SCF: Cycle: 29   F: -54.096242495026956   dF: +2.242e-07   |Residual|: 3.270e-06   |deigs|: 7.105e-05  t[s]:   2097.85
	FillingsUpdate:  mu: -0.033553147  nElectrons: 33.000000  magneticMoment: [ Abs: 1.13201  Tot: +1.00000 ]
SCF: Cycle: 30   F: -54.096241988593547   dF: +5.064e-07   |Residual|: 2.526e-06   |deigs|: 7.128e-05  t[s]:   2107.61
	FillingsUpdate:  mu: -0.033609955  nElectrons: 33.000000  magneticMoment: [ Abs: 1.13201  Tot: +1.00000 ]
SCF: Cycle: 31   F: -54.096241911937604   dF: +7.666e-08   |Residual|: 1.674e-06   |deigs|: 9.496e-05  t[s]:   2117.01
	FillingsUpdate:  mu: -0.033639991  nElectrons: 33.000000  magneticMoment: [ Abs: 1.13200  Tot: +1.00000 ]
SCF: Cycle: 32   F: -54.096241970174262   dF: -5.824e-08   |Residual|: 1.613e-06   |deigs|: 8.845e-05  t[s]:   2126.70
	FillingsUpdate:  mu: -0.033648370  nElectrons: 33.000000  magneticMoment: [ Abs: 1.13200  Tot: +1.00000 ]
SCF: Cycle: 33   F: -54.096242063493008   dF: -9.332e-08   |Residual|: 1.322e-06   |deigs|: 1.045e-04  t[s]:   2136.05
	FillingsUpdate:  mu: -0.033644169  nElectrons: 33.000000  magneticMoment: [ Abs: 1.13200  Tot: +1.00000 ]
SCF: Cycle: 34   F: -54.096242067605509   dF: -4.113e-09   |Residual|: 1.180e-06   |deigs|: 3.486e-05  t[s]:   2145.00
	FillingsUpdate:  mu: -0.033629163  nElectrons: 33.000000  magneticMoment: [ Abs: 1.13200  Tot: +1.00000 ]
SCF: Cycle: 35   F: -54.096242095095107   dF: -2.749e-08   |Residual|: 1.653e-06   |deigs|: 2.826e-05  t[s]:   2153.98
	FillingsUpdate:  mu: -0.033619976  nElectrons: 33.000000  magneticMoment: [ Abs: 1.13200  Tot: +1.00000 ]
SCF: Cycle: 36   F: -54.096242148168727   dF: -5.307e-08   |Residual|: 1.218e-06   |deigs|: 1.693e-05  t[s]:   2162.79
	FillingsUpdate:  mu: -0.033605130  nElectrons: 33.000000  magneticMoment: [ Abs: 1.13201  Tot: +1.00000 ]
SCF: Cycle: 37   F: -54.096242210180456   dF: -6.201e-08   |Residual|: 8.084e-07   |deigs|: 3.295e-05  t[s]:   2171.80
	FillingsUpdate:  mu: -0.033599850  nElectrons: 33.000000  magneticMoment: [ Abs: 1.13201  Tot: +1.00000 ]
SCF: Cycle: 38   F: -54.096242182961873   dF: +2.722e-08   |Residual|: 6.124e-07   |deigs|: 1.562e-05  t[s]:   2181.04
	FillingsUpdate:  mu: -0.033599292  nElectrons: 33.000000  magneticMoment: [ Abs: 1.13201  Tot: +1.00000 ]
SCF: Cycle: 39   F: -54.096242161143174   dF: +2.182e-08   |Residual|: 5.152e-07   |deigs|: 1.544e-05  t[s]:   2190.50
	FillingsUpdate:  mu: -0.033601426  nElectrons: 33.000000  magneticMoment: [ Abs: 1.13201  Tot: +1.00000 ]
SCF: Cycle: 40   F: -54.096242159007730   dF: +2.135e-09   |Residual|: 4.929e-07   |deigs|: 1.355e-05  t[s]:   2199.81
	FillingsUpdate:  mu: -0.033602275  nElectrons: 33.000000  magneticMoment: [ Abs: 1.13201  Tot: +1.00000 ]
SCF: Cycle: 41   F: -54.096242178377679   dF: -1.937e-08   |Residual|: 4.285e-07   |deigs|: 9.514e-06  t[s]:   2209.05
	FillingsUpdate:  mu: -0.033598772  nElectrons: 33.000000  magneticMoment: [ Abs: 1.13201  Tot: +1.00000 ]
SCF: Cycle: 42   F: -54.096242178650009   dF: -2.723e-10   |Residual|: 3.777e-07   |deigs|: 7.331e-06  t[s]:   2218.75
	FillingsUpdate:  mu: -0.033596238  nElectrons: 33.000000  magneticMoment: [ Abs: 1.13201  Tot: +1.00000 ]
SCF: Cycle: 43   F: -54.096242192167821   dF: -1.352e-08   |Residual|: 2.810e-07   |deigs|: 4.153e-06  t[s]:   2228.11
	FillingsUpdate:  mu: -0.033593381  nElectrons: 33.000000  magneticMoment: [ Abs: 1.13200  Tot: +1.00000 ]
SCF: Cycle: 44   F: -54.096242197688241   dF: -5.520e-09   |Residual|: 2.132e-07   |deigs|: 5.238e-06  t[s]:   2237.43
	FillingsUpdate:  mu: -0.033590110  nElectrons: 33.000000  magneticMoment: [ Abs: 1.13200  Tot: +1.00000 ]
SCF: Cycle: 45   F: -54.096242196679270   dF: +1.009e-09   |Residual|: 1.501e-07   |deigs|: 4.303e-06  t[s]:   2246.65
	FillingsUpdate:  mu: -0.033587585  nElectrons: 33.000000  magneticMoment: [ Abs: 1.13200  Tot: +1.00000 ]
SCF: Cycle: 46   F: -54.096242188698042   dF: +7.981e-09   |Residual|: 1.255e-07   |deigs|: 3.902e-06  t[s]:   2256.11
	FillingsUpdate:  mu: -0.033586142  nElectrons: 33.000000  magneticMoment: [ Abs: 1.13200  Tot: +1.00000 ]
SCF: Cycle: 47   F: -54.096242184979296   dF: +3.719e-09   |Residual|: 9.533e-08   |deigs|: 2.946e-06  t[s]:   2265.19
	FillingsUpdate:  mu: -0.033585264  nElectrons: 33.000000  magneticMoment: [ Abs: 1.13200  Tot: +1.00000 ]
SCF: Cycle: 48   F: -54.096242181883227   dF: +3.096e-09   |Residual|: 6.626e-08   |deigs|: 2.631e-06  t[s]:   2274.75
SCF: Converged (|Residual|<1.000000e-07 for 2 iters).

	FillingsUpdate:  mu: -0.033585264  nElectrons: 33.000000  magneticMoment: [ Abs: 1.13200  Tot: +1.00000 ]
VxxLoop: Iter:  2   F: -54.096242181883468   dF: -4.976e-03
Constructing ACE exchange operator ... 10% 13% 43% 50% 60% 63% 93% 100% done.

	FillingsUpdate:  mu: -0.033581591  nElectrons: 33.000000  magneticMoment: [ Abs: 1.13200  Tot: +1.00000 ]
SCF: Cycle:  0   F: -54.096701446912775   dF: -4.593e-04   |Residual|: 5.105e-04   |deigs|: 1.337e-01  t[s]:   2576.57
	FillingsUpdate:  mu: -0.033582087  nElectrons: 33.000000  magneticMoment: [ Abs: 1.13200  Tot: +1.00000 ]
SCF: Cycle:  1   F: -54.096703275939134   dF: -1.829e-06   |Residual|: 5.314e-04   |deigs|: 2.892e-06  t[s]:   2585.20
	FillingsUpdate:  mu: -0.033582088  nElectrons: 33.000000  magneticMoment: [ Abs: 1.13200  Tot: +1.00000 ]
SCF: Cycle:  2   F: -54.096700631164254   dF: +2.645e-06   |Residual|: 5.518e-04   |deigs|: 1.232e-07  t[s]:   2594.55
	FillingsUpdate:  mu: -0.033582048  nElectrons: 33.000000  magneticMoment: [ Abs: 1.13200  Tot: +1.00000 ]
SCF: Cycle:  3   F: -54.096700978789130   dF: -3.476e-07   |Residual|: 5.561e-04   |deigs|: 1.477e-07  t[s]:   2603.24
	FillingsUpdate:  mu: -0.033582027  nElectrons: 33.000000  magneticMoment: [ Abs: 1.13200  Tot: +1.00000 ]
SCF: Cycle:  4   F: -54.096700422727110   dF: +5.561e-07   |Residual|: 5.609e-04   |deigs|: 5.901e-08  t[s]:   2613.10
	FillingsUpdate:  mu: -0.033582232  nElectrons: 33.000000  magneticMoment: [ Abs: 1.13200  Tot: +1.00000 ]
SCF: Cycle:  5   F: -54.096700449147789   dF: -2.642e-08   |Residual|: 5.629e-04   |deigs|: 3.733e-07  t[s]:   2622.02
	FillingsUpdate:  mu: -0.033582102  nElectrons: 33.000000  magneticMoment: [ Abs: 1.13200  Tot: +1.00000 ]
SCF: Cycle:  6   F: -54.096700252750423   dF: +1.964e-07   |Residual|: 5.648e-04   |deigs|: 3.403e-07  t[s]:   2630.51
	FillingsUpdate:  mu: -0.033582008  nElectrons: 33.000000  magneticMoment: [ Abs: 1.13200  Tot: +1.00000 ]
SCF: Cycle:  7   F: -54.096700219847875   dF: +3.290e-08   |Residual|: 5.655e-04   |deigs|: 9.176e-08  t[s]:   2639.12
	FillingsUpdate:  mu: -0.033582781  nElectrons: 33.000000  magneticMoment: [ Abs: 1.13200  Tot: +1.00000 ]
SCF: Cycle:  8   F: -54.096700174111717   dF: +4.574e-08   |Residual|: 5.661e-04   |deigs|: 1.528e-06  t[s]:   2648.63
	FillingsUpdate:  mu: -0.033582159  nElectrons: 33.000000  magneticMoment: [ Abs: 1.13200  Tot: +1.00000 ]
SCF: Cycle:  9   F: -54.096700154970875   dF: +1.914e-08   |Residual|: 5.664e-04   |deigs|: 1.496e-06  t[s]:   2657.71
	FillingsUpdate:  mu: -0.033471373  nElectrons: 33.000000  magneticMoment: [ Abs: 1.13189  Tot: +1.00000 ]
SCF: Cycle: 10   F: -54.096704943074300   dF: -4.788e-06   |Residual|: 5.215e-04   |deigs|: 5.849e-04  t[s]:   2667.03
	FillingsUpdate:  mu: -0.033497068  nElectrons: 33.000000  magneticMoment: [ Abs: 1.13201  Tot: +1.00000 ]
SCF: Cycle: 11   F: -54.096705724960081   dF: -7.819e-07   |Residual|: 5.101e-04   |deigs|: 2.534e-04  t[s]:   2676.65
	FillingsUpdate:  mu: -0.033783794  nElectrons: 33.000000  magneticMoment: [ Abs: 1.13189  Tot: +1.00000 ]
SCF: Cycle: 12   F: -54.096706156739913   dF: -4.318e-07   |Residual|: 5.058e-04   |deigs|: 5.966e-04  t[s]:   2686.72
	FillingsUpdate:  mu: -0.033716573  nElectrons: 33.000000  magneticMoment: [ Abs: 1.13191  Tot: +1.00000 ]
SCF: Cycle: 13   F: -54.096705925402503   dF: +2.313e-07   |Residual|: 5.005e-04   |deigs|: 3.122e-04  t[s]:   2696.22
	FillingsUpdate:  mu: -0.033073215  nElectrons: 33.000000  magneticMoment: [ Abs: 1.13208  Tot: +1.00000 ]
SCF: Cycle: 14   F: -54.096705059072143   dF: +8.663e-07   |Residual|: 4.822e-04   |deigs|: 1.133e-03  t[s]:   2706.31
	FillingsUpdate:  mu: -0.032699949  nElectrons: 33.000000  magneticMoment: [ Abs: 1.13197  Tot: +1.00000 ]
SCF: Cycle: 15   F: -54.096703339652265   dF: +1.719e-06   |Residual|: 4.611e-04   |deigs|: 4.797e-04  t[s]:   2715.80
	FillingsUpdate:  mu: -0.032308342  nElectrons: 33.000000  magneticMoment: [ Abs: 1.13199  Tot: +1.00000 ]
SCF: Cycle: 16   F: -54.096704996551793   dF: -1.657e-06   |Residual|: 4.425e-04   |deigs|: 4.707e-04  t[s]:   2725.82
	FillingsUpdate:  mu: -0.032279256  nElectrons: 33.000000  magneticMoment: [ Abs: 1.13188  Tot: +1.00000 ]
SCF: Cycle: 17   F: -54.096702731521461   dF: +2.265e-06   |Residual|: 4.201e-04   |deigs|: 3.971e-04  t[s]:   2735.07
	FillingsUpdate:  mu: -0.032591251  nElectrons: 33.000000  magneticMoment: [ Abs: 1.13182  Tot: +1.00000 ]
SCF: Cycle: 18   F: -54.096705281529552   dF: -2.550e-06   |Residual|: 4.260e-04   |deigs|: 4.154e-04  t[s]:   2744.59
	FillingsUpdate:  mu: -0.032719967  nElectrons: 33.000000  magneticMoment: [ Abs: 1.13345  Tot: +1.00000 ]
SCF: Cycle: 19   F: -54.096707223855205   dF: -1.942e-06   |Residual|: 1.195e-04   |deigs|: 1.424e-03  t[s]:   2754.34
	FillingsUpdate:  mu: -0.032877909  nElectrons: 33.000000  magneticMoment: [ Abs: 1.13339  Tot: +1.00000 ]
SCF: Cycle: 20   F: -54.096709531579904   dF: -2.308e-06   |Residual|: 5.146e-05   |deigs|: 2.161e-04  t[s]:   2765.48
	FillingsUpdate:  mu: -0.033122779  nElectrons: 33.000000  magneticMoment: [ Abs: 1.13350  Tot: +1.00000 ]
SCF: Cycle: 21   F: -54.096709553458702   dF: -2.188e-08   |Residual|: 1.640e-05   |deigs|: 4.311e-04  t[s]:   2775.34
	FillingsUpdate:  mu: -0.033236773  nElectrons: 33.000000  magneticMoment: [ Abs: 1.13353  Tot: +1.00000 ]
SCF: Cycle: 22   F: -54.096709536142967   dF: +1.732e-08   |Residual|: 1.031e-05   |deigs|: 2.889e-04  t[s]:   2784.27
	FillingsUpdate:  mu: -0.033340063  nElectrons: 33.000000  magneticMoment: [ Abs: 1.13354  Tot: +1.00000 ]
SCF: Cycle: 23   F: -54.096709667771250   dF: -1.316e-07   |Residual|: 5.812e-06   |deigs|: 2.891e-04  t[s]:   2794.04
	FillingsUpdate:  mu: -0.033443127  nElectrons: 33.000000  magneticMoment: [ Abs: 1.13355  Tot: +1.00000 ]
SCF: Cycle: 24   F: -54.096709726404455   dF: -5.863e-08   |Residual|: 4.768e-06   |deigs|: 2.016e-04  t[s]:   2803.10
	FillingsUpdate:  mu: -0.033492497  nElectrons: 33.000000  magneticMoment: [ Abs: 1.13353  Tot: +1.00000 ]
SCF: Cycle: 25   F: -54.096709699162190   dF: +2.724e-08   |Residual|: 5.034e-06   |deigs|: 4.536e-05  t[s]:   2813.02
	FillingsUpdate:  mu: -0.033525170  nElectrons: 33.000000  magneticMoment: [ Abs: 1.13352  Tot: +1.00000 ]
SCF: Cycle: 26   F: -54.096709589112322   dF: +1.100e-07   |Residual|: 4.249e-06   |deigs|: 2.896e-05  t[s]:   2822.40
	FillingsUpdate:  mu: -0.033534678  nElectrons: 33.000000  magneticMoment: [ Abs: 1.13353  Tot: +1.00000 ]
SCF: Cycle: 27   F: -54.096709571966322   dF: +1.715e-08   |Residual|: 3.032e-06   |deigs|: 3.060e-05  t[s]:   2832.46
	FillingsUpdate:  mu: -0.033543203  nElectrons: 33.000000  magneticMoment: [ Abs: 1.13352  Tot: +1.00000 ]
SCF: Cycle: 28   F: -54.096709648834896   dF: -7.687e-08   |Residual|: 2.169e-06   |deigs|: 2.960e-05  t[s]:   2842.04
	FillingsUpdate:  mu: -0.033547930  nElectrons: 33.000000  magneticMoment: [ Abs: 1.13352  Tot: +1.00000 ]
SCF: Cycle: 29   F: -54.096709653008844   dF: -4.174e-09   |Residual|: 1.645e-06   |deigs|: 2.155e-05  t[s]:   2851.14
	FillingsUpdate:  mu: -0.033554095  nElectrons: 33.000000  magneticMoment: [ Abs: 1.13351  Tot: +1.00000 ]
SCF: Cycle: 30   F: -54.096709605467758   dF: +4.754e-08   |Residual|: 1.446e-06   |deigs|: 2.298e-05  t[s]:   2860.63
	FillingsUpdate:  mu: -0.033558063  nElectrons: 33.000000  magneticMoment: [ Abs: 1.13352  Tot: +1.00000 ]
SCF: Cycle: 31   F: -54.096709612924109   dF: -7.456e-09   |Residual|: 1.212e-06   |deigs|: 1.553e-05  t[s]:   2869.34
	FillingsUpdate:  mu: -0.033559559  nElectrons: 33.000000  magneticMoment: [ Abs: 1.13351  Tot: +1.00000 ]
SCF: Cycle: 32   F: -54.096709644651810   dF: -3.173e-08   |Residual|: 1.098e-06   |deigs|: 1.322e-05  t[s]:   2879.29
	FillingsUpdate:  mu: -0.033562472  nElectrons: 33.000000  magneticMoment: [ Abs: 1.13351  Tot: +1.00000 ]
SCF: Cycle: 33   F: -54.096709638408576   dF: +6.243e-09   |Residual|: 1.006e-06   |deigs|: 1.226e-05  t[s]:   2887.73
	FillingsUpdate:  mu: -0.033566949  nElectrons: 33.000000  magneticMoment: [ Abs: 1.13351  Tot: +1.00000 ]
SCF: Cycle: 34   F: -54.096709617227958   dF: +2.118e-08   |Residual|: 7.856e-07   |deigs|: 1.567e-05  t[s]:   2896.92
	FillingsUpdate:  mu: -0.033568800  nElectrons: 33.000000  magneticMoment: [ Abs: 1.13351  Tot: +1.00000 ]
SCF: Cycle: 35   F: -54.096709614698796   dF: +2.529e-09   |Residual|: 6.166e-07   |deigs|: 7.211e-06  t[s]:   2905.77
	FillingsUpdate:  mu: -0.033572340  nElectrons: 33.000000  magneticMoment: [ Abs: 1.13352  Tot: +1.00000 ]
SCF: Cycle: 36   F: -54.096709625836716   dF: -1.114e-08   |Residual|: 4.262e-07   |deigs|: 7.449e-06  t[s]:   2915.02
	FillingsUpdate:  mu: -0.033574044  nElectrons: 33.000000  magneticMoment: [ Abs: 1.13351  Tot: +1.00000 ]
SCF: Cycle: 37   F: -54.096709628369723   dF: -2.533e-09   |Residual|: 2.881e-07   |deigs|: 3.129e-06  t[s]:   2923.37
	FillingsUpdate:  mu: -0.033576267  nElectrons: 33.000000  magneticMoment: [ Abs: 1.13351  Tot: +1.00000 ]
SCF: Cycle: 38   F: -54.096709618154577   dF: +1.022e-08   |Residual|: 1.951e-07   |deigs|: 3.840e-06  t[s]:   2932.30
	FillingsUpdate:  mu: -0.033577580  nElectrons: 33.000000  magneticMoment: [ Abs: 1.13351  Tot: +1.00000 ]
SCF: Cycle: 39   F: -54.096709630410416   dF: -1.226e-08   |Residual|: 1.418e-07   |deigs|: 1.996e-06  t[s]:   2940.88
	FillingsUpdate:  mu: -0.033578638  nElectrons: 33.000000  magneticMoment: [ Abs: 1.13352  Tot: +1.00000 ]
SCF: Cycle: 40   F: -54.096709637259536   dF: -6.849e-09   |Residual|: 9.601e-08   |deigs|: 1.503e-06  t[s]:   2949.69
	FillingsUpdate:  mu: -0.033578974  nElectrons: 33.000000  magneticMoment: [ Abs: 1.13352  Tot: +1.00000 ]
SCF: Cycle: 41   F: -54.096709631530459   dF: +5.729e-09   |Residual|: 7.869e-08   |deigs|: 6.667e-07  t[s]:   2958.58
SCF: Converged (|Residual|<1.000000e-07 for 2 iters).

	FillingsUpdate:  mu: -0.033578974  nElectrons: 33.000000  magneticMoment: [ Abs: 1.13351  Tot: +1.00000 ]
VxxLoop: Iter:  3   F: -54.096709631530373   dF: -4.674e-04
Constructing ACE exchange operator ... 10% 13% 43% 50% 60% 63% 93% 100% done.

	FillingsUpdate:  mu: -0.033580133  nElectrons: 33.000000  magneticMoment: [ Abs: 1.13351  Tot: +1.00000 ]
SCF: Cycle:  0   F: -54.096766115784192   dF: -5.648e-05   |Residual|: 1.532e-04   |deigs|: 1.337e-01  t[s]:   3238.94
	FillingsUpdate:  mu: -0.033579704  nElectrons: 33.000000  magneticMoment: [ Abs: 1.13352  Tot: +1.00000 ]
SCF: Cycle:  1   F: -54.096767080918369   dF: -9.651e-07   |Residual|: 1.580e-04   |deigs|: 1.928e-06  t[s]:   3247.03
	FillingsUpdate:  mu: -0.033579819  nElectrons: 33.000000  magneticMoment: [ Abs: 1.13352  Tot: +1.00000 ]
SCF: Cycle:  2   F: -54.096766758002914   dF: +3.229e-07   |Residual|: 1.669e-04   |deigs|: 1.789e-07  t[s]:   3255.89
	FillingsUpdate:  mu: -0.033579861  nElectrons: 33.000000  magneticMoment: [ Abs: 1.13352  Tot: +1.00000 ]
SCF: Cycle:  3   F: -54.096766706006946   dF: +5.200e-08   |Residual|: 1.699e-04   |deigs|: 1.550e-07  t[s]:   3265.31
	FillingsUpdate:  mu: -0.033579802  nElectrons: 33.000000  magneticMoment: [ Abs: 1.13352  Tot: +1.00000 ]
SCF: Cycle:  4   F: -54.096766567755608   dF: +1.383e-07   |Residual|: 1.720e-04   |deigs|: 1.989e-07  t[s]:   3275.21
	FillingsUpdate:  mu: -0.033579895  nElectrons: 33.000000  magneticMoment: [ Abs: 1.13352  Tot: +1.00000 ]
SCF: Cycle:  5   F: -54.096766548223911   dF: +1.953e-08   |Residual|: 1.726e-04   |deigs|: 1.775e-07  t[s]:   3283.89
	FillingsUpdate:  mu: -0.033579879  nElectrons: 33.000000  magneticMoment: [ Abs: 1.13352  Tot: +1.00000 ]
SCF: Cycle:  6   F: -54.096766513600855   dF: +3.462e-08   |Residual|: 1.733e-04   |deigs|: 6.789e-08  t[s]:   3293.80
	FillingsUpdate:  mu: -0.033579854  nElectrons: 33.000000  magneticMoment: [ Abs: 1.13352  Tot: +1.00000 ]
SCF: Cycle:  7   F: -54.096766499896475   dF: +1.370e-08   |Residual|: 1.735e-04   |deigs|: 1.732e-07  t[s]:   3302.66
	FillingsUpdate:  mu: -0.033579633  nElectrons: 33.000000  magneticMoment: [ Abs: 1.13351  Tot: +1.00000 ]
SCF: Cycle:  8   F: -54.096766490016037   dF: +9.880e-09   |Residual|: 1.737e-04   |deigs|: 3.677e-07  t[s]:   3311.14
	FillingsUpdate:  mu: -0.033579976  nElectrons: 33.000000  magneticMoment: [ Abs: 1.13352  Tot: +1.00000 ]
SCF: Cycle:  9   F: -54.096766481553651   dF: +8.462e-09   |Residual|: 1.739e-04   |deigs|: 5.582e-07  t[s]:   3320.14
	FillingsUpdate:  mu: -0.033561512  nElectrons: 33.000000  magneticMoment: [ Abs: 1.13354  Tot: +1.00000 ]
SCF: Cycle: 10   F: -54.096767622880357   dF: -1.141e-06   |Residual|: 1.708e-04   |deigs|: 1.330e-04  t[s]:   3329.46
	FillingsUpdate:  mu: -0.033560044  nElectrons: 33.000000  magneticMoment: [ Abs: 1.13349  Tot: +1.00000 ]
SCF: Cycle: 11   F: -54.096767787707407   dF: -1.648e-07   |Residual|: 1.746e-04   |deigs|: 1.230e-04  t[s]:   3337.95
	FillingsUpdate:  mu: -0.033557467  nElectrons: 33.000000  magneticMoment: [ Abs: 1.13361  Tot: +1.00000 ]
SCF: Cycle: 12   F: -54.096767228610673   dF: +5.591e-07   |Residual|: 1.683e-04   |deigs|: 1.486e-04  t[s]:   3347.19
	FillingsUpdate:  mu: -0.033542819  nElectrons: 33.000000  magneticMoment: [ Abs: 1.13357  Tot: +1.00000 ]
SCF: Cycle: 13   F: -54.096766830383032   dF: +3.982e-07   |Residual|: 1.601e-04   |deigs|: 5.731e-05  t[s]:   3357.01
	FillingsUpdate:  mu: -0.033511243  nElectrons: 33.000000  magneticMoment: [ Abs: 1.13357  Tot: +1.00000 ]
SCF: Cycle: 14   F: -54.096766767093669   dF: +6.329e-08   |Residual|: 1.584e-04   |deigs|: 4.358e-05  t[s]:   3366.87
	FillingsUpdate:  mu: -0.033499783  nElectrons: 33.000000  magneticMoment: [ Abs: 1.13356  Tot: +1.00000 ]
SCF: Cycle: 15   F: -54.096766374128137   dF: +3.930e-07   |Residual|: 1.562e-04   |deigs|: 7.020e-05  t[s]:   3376.73
	FillingsUpdate:  mu: -0.033562249  nElectrons: 33.000000  magneticMoment: [ Abs: 1.13353  Tot: +1.00000 ]
SCF: Cycle: 16   F: -54.096767075970718   dF: -7.018e-07   |Residual|: 1.489e-04   |deigs|: 9.926e-05  t[s]:   3385.58
	FillingsUpdate:  mu: -0.033565099  nElectrons: 33.000000  magneticMoment: [ Abs: 1.13354  Tot: +1.00000 ]
SCF: Cycle: 17   F: -54.096767353042885   dF: -2.771e-07   |Residual|: 1.433e-04   |deigs|: 6.964e-05  t[s]:   3394.45
	FillingsUpdate:  mu: -0.033252550  nElectrons: 33.000000  magneticMoment: [ Abs: 1.13370  Tot: +1.00000 ]
SCF: Cycle: 18   F: -54.096769184320110   dF: -1.831e-06   |Residual|: 1.261e-04   |deigs|: 5.629e-04  t[s]:   3404.65
	FillingsUpdate:  mu: -0.033062018  nElectrons: 33.000000  magneticMoment: [ Abs: 1.13405  Tot: +1.00000 ]
SCF: Cycle: 19   F: -54.096769731185795   dF: -5.469e-07   |Residual|: 2.930e-05   |deigs|: 4.449e-04  t[s]:   3414.93
	FillingsUpdate:  mu: -0.033280975  nElectrons: 33.000000  magneticMoment: [ Abs: 1.13408  Tot: +1.00000 ]
SCF: Cycle: 20   F: -54.096769247772571   dF: +4.834e-07   |Residual|: 1.505e-05   |deigs|: 2.584e-04  t[s]:   3424.68
	FillingsUpdate:  mu: -0.033433793  nElectrons: 33.000000  magneticMoment: [ Abs: 1.13406  Tot: +1.00000 ]
SCF: Cycle: 21   F: -54.096768814123891   dF: +4.336e-07   |Residual|: 7.363e-06   |deigs|: 3.893e-04  t[s]:   3433.99
	FillingsUpdate:  mu: -0.033495318  nElectrons: 33.000000  magneticMoment: [ Abs: 1.13403  Tot: +1.00000 ]
SCF: Cycle: 22   F: -54.096768559791045   dF: +2.543e-07   |Residual|: 5.923e-06   |deigs|: 2.021e-04  t[s]:   3444.63
	FillingsUpdate:  mu: -0.033508016  nElectrons: 33.000000  magneticMoment: [ Abs: 1.13403  Tot: +1.00000 ]
SCF: Cycle: 23   F: -54.096768043427218   dF: +5.164e-07   |Residual|: 4.982e-06   |deigs|: 1.612e-04  t[s]:   3454.50
	FillingsUpdate:  mu: -0.033523529  nElectrons: 33.000000  magneticMoment: [ Abs: 1.13405  Tot: +1.00000 ]
SCF: Cycle: 24   F: -54.096767935096324   dF: +1.083e-07   |Residual|: 4.269e-06   |deigs|: 9.352e-05  t[s]:   3463.85
	FillingsUpdate:  mu: -0.033537965  nElectrons: 33.000000  magneticMoment: [ Abs: 1.13404  Tot: +1.00000 ]
SCF: Cycle: 25   F: -54.096767930535577   dF: +4.561e-09   |Residual|: 3.219e-06   |deigs|: 6.136e-05  t[s]:   3473.45
	FillingsUpdate:  mu: -0.033545376  nElectrons: 33.000000  magneticMoment: [ Abs: 1.13405  Tot: +1.00000 ]
SCF: Cycle: 26   F: -54.096767862487809   dF: +6.805e-08   |Residual|: 2.070e-06   |deigs|: 1.647e-05  t[s]:   3482.91
	FillingsUpdate:  mu: -0.033554198  nElectrons: 33.000000  magneticMoment: [ Abs: 1.13405  Tot: +1.00000 ]
SCF: Cycle: 27   F: -54.096767794508452   dF: +6.798e-08   |Residual|: 1.889e-06   |deigs|: 2.074e-05  t[s]:   3492.41
	FillingsUpdate:  mu: -0.033564370  nElectrons: 33.000000  magneticMoment: [ Abs: 1.13404  Tot: +1.00000 ]
SCF: Cycle: 28   F: -54.096767770798522   dF: +2.371e-08   |Residual|: 1.749e-06   |deigs|: 1.253e-05  t[s]:   3501.83
	FillingsUpdate:  mu: -0.033571623  nElectrons: 33.000000  magneticMoment: [ Abs: 1.13405  Tot: +1.00000 ]
SCF: Cycle: 29   F: -54.096767731042831   dF: +3.976e-08   |Residual|: 1.412e-06   |deigs|: 1.190e-05  t[s]:   3511.67
	FillingsUpdate:  mu: -0.033574007  nElectrons: 33.000000  magneticMoment: [ Abs: 1.13405  Tot: +1.00000 ]
SCF: Cycle: 30   F: -54.096767715785774   dF: +1.526e-08   |Residual|: 1.204e-06   |deigs|: 1.048e-05  t[s]:   3521.03
	FillingsUpdate:  mu: -0.033575372  nElectrons: 33.000000  magneticMoment: [ Abs: 1.13405  Tot: +1.00000 ]
SCF: Cycle: 31   F: -54.096767699743751   dF: +1.604e-08   |Residual|: 1.098e-06   |deigs|: 6.767e-06  t[s]:   3530.46
	FillingsUpdate:  mu: -0.033575945  nElectrons: 33.000000  magneticMoment: [ Abs: 1.13405  Tot: +1.00000 ]
SCF: Cycle: 32   F: -54.096767724502932   dF: -2.476e-08   |Residual|: 8.543e-07   |deigs|: 5.799e-06  t[s]:   3540.21
	FillingsUpdate:  mu: -0.033576317  nElectrons: 33.000000  magneticMoment: [ Abs: 1.13405  Tot: +1.00000 ]
SCF: Cycle: 33   F: -54.096767747027698   dF: -2.252e-08   |Residual|: 5.753e-07   |deigs|: 5.820e-06  t[s]:   3549.19
	FillingsUpdate:  mu: -0.033575994  nElectrons: 33.000000  magneticMoment: [ Abs: 1.13405  Tot: +1.00000 ]
SCF: Cycle: 34   F: -54.096767749503201   dF: -2.476e-09   |Residual|: 3.546e-07   |deigs|: 7.148e-06  t[s]:   3557.70
	FillingsUpdate:  mu: -0.033575392  nElectrons: 33.000000  magneticMoment: [ Abs: 1.13405  Tot: +1.00000 ]
SCF: Cycle: 35   F: -54.096767744132343   dF: +5.371e-09   |Residual|: 2.953e-07   |deigs|: 4.980e-06  t[s]:   3567.48
	FillingsUpdate:  mu: -0.033575697  nElectrons: 33.000000  magneticMoment: [ Abs: 1.13405  Tot: +1.00000 ]
SCF: Cycle: 36   F: -54.096767746594551   dF: -2.462e-09   |Residual|: 2.095e-07   |deigs|: 4.920e-06  t[s]:   3576.21
	FillingsUpdate:  mu: -0.033576289  nElectrons: 33.000000  magneticMoment: [ Abs: 1.13405  Tot: +1.00000 ]
SCF: Cycle: 37   F: -54.096767743470508   dF: +3.124e-09   |Residual|: 1.443e-07   |deigs|: 2.738e-06  t[s]:   3586.25
	FillingsUpdate:  mu: -0.033577087  nElectrons: 33.000000  magneticMoment: [ Abs: 1.13405  Tot: +1.00000 ]
SCF: Cycle: 38   F: -54.096767743911116   dF: -4.406e-10   |Residual|: 1.062e-07   |deigs|: 1.529e-06  t[s]:   3595.67
	FillingsUpdate:  mu: -0.033577989  nElectrons: 33.000000  magneticMoment: [ Abs: 1.13405  Tot: +1.00000 ]
SCF: Cycle: 39   F: -54.096767730037470   dF: +1.387e-08   |Residual|: 8.580e-08   |deigs|: 1.436e-06  t[s]:   3604.57
	FillingsUpdate:  mu: -0.033578464  nElectrons: 33.000000  magneticMoment: [ Abs: 1.13405  Tot: +1.00000 ]
SCF: Cycle: 40   F: -54.096767724594237   dF: +5.443e-09   |Residual|: 7.179e-08   |deigs|: 1.180e-06  t[s]:   3613.86
SCF: Converged (|Residual|<1.000000e-07 for 2 iters).

	FillingsUpdate:  mu: -0.033578464  nElectrons: 33.000000  magneticMoment: [ Abs: 1.13405  Tot: +1.00000 ]
VxxLoop: Iter:  4   F: -54.096767724594237   dF: -5.809e-05
Constructing ACE exchange operator ... 10% 13% 43% 50% 60% 63% 93% 100% done.

	FillingsUpdate:  mu: -0.033580872  nElectrons: 33.000000  magneticMoment: [ Abs: 1.13405  Tot: +1.00000 ]
SCF: Cycle:  0   F: -54.096777492360182   dF: -9.768e-06   |Residual|: 4.779e-05   |deigs|: 1.337e-01  t[s]:   3932.37
	FillingsUpdate:  mu: -0.033578826  nElectrons: 33.000000  magneticMoment: [ Abs: 1.13405  Tot: +1.00000 ]
SCF: Cycle:  1   F: -54.096777481548585   dF: +1.081e-08   |Residual|: 4.789e-05   |deigs|: 3.453e-06  t[s]:   3939.88
	FillingsUpdate:  mu: -0.033579864  nElectrons: 33.000000  magneticMoment: [ Abs: 1.13405  Tot: +1.00000 ]
SCF: Cycle:  2   F: -54.096777384731134   dF: +9.682e-08   |Residual|: 5.563e-05   |deigs|: 1.737e-06  t[s]:   3949.27
	FillingsUpdate:  mu: -0.033580054  nElectrons: 33.000000  magneticMoment: [ Abs: 1.13405  Tot: +1.00000 ]
SCF: Cycle:  3   F: -54.096777370784665   dF: +1.395e-08   |Residual|: 5.710e-05   |deigs|: 4.974e-07  t[s]:   3957.92
	FillingsUpdate:  mu: -0.033580052  nElectrons: 33.000000  magneticMoment: [ Abs: 1.13405  Tot: +1.00000 ]
SCF: Cycle:  4   F: -54.096777374319700   dF: -3.535e-09   |Residual|: 5.795e-05   |deigs|: 2.899e-07  t[s]:   3967.13
	FillingsUpdate:  mu: -0.033580106  nElectrons: 33.000000  magneticMoment: [ Abs: 1.13405  Tot: +1.00000 ]
SCF: Cycle:  5   F: -54.096777339525190   dF: +3.479e-08   |Residual|: 5.856e-05   |deigs|: 3.990e-07  t[s]:   3976.49
	FillingsUpdate:  mu: -0.033580154  nElectrons: 33.000000  magneticMoment: [ Abs: 1.13405  Tot: +1.00000 ]
SCF: Cycle:  6   F: -54.096777336649758   dF: +2.875e-09   |Residual|: 5.869e-05   |deigs|: 1.958e-07  t[s]:   3985.01
	FillingsUpdate:  mu: -0.033580343  nElectrons: 33.000000  magneticMoment: [ Abs: 1.13405  Tot: +1.00000 ]
SCF: Cycle:  7   F: -54.096777328358378   dF: +8.291e-09   |Residual|: 5.894e-05   |deigs|: 4.274e-07  t[s]:   3994.70
	FillingsUpdate:  mu: -0.033580232  nElectrons: 33.000000  magneticMoment: [ Abs: 1.13405  Tot: +1.00000 ]
SCF: Cycle:  8   F: -54.096777332672445   dF: -4.314e-09   |Residual|: 5.901e-05   |deigs|: 8.989e-07  t[s]:   4003.47
	FillingsUpdate:  mu: -0.033580425  nElectrons: 33.000000  magneticMoment: [ Abs: 1.13405  Tot: +1.00000 ]
SCF: Cycle:  9   F: -54.096777326210095   dF: +6.462e-09   |Residual|: 5.909e-05   |deigs|: 7.356e-07  t[s]:   4012.18
	FillingsUpdate:  mu: -0.033535642  nElectrons: 33.000000  magneticMoment: [ Abs: 1.13398  Tot: +1.00000 ]
SCF: Cycle: 10   F: -54.096775733329636   dF: +1.593e-06   |Residual|: 6.757e-05   |deigs|: 2.656e-04  t[s]:   4021.76
	FillingsUpdate:  mu: -0.033540223  nElectrons: 33.000000  magneticMoment: [ Abs: 1.13402  Tot: +1.00000 ]
SCF: Cycle: 11   F: -54.096776038232278   dF: -3.049e-07   |Residual|: 6.213e-05   |deigs|: 1.258e-04  t[s]:   4030.98
	FillingsUpdate:  mu: -0.033561466  nElectrons: 33.000000  magneticMoment: [ Abs: 1.13404  Tot: +1.00000 ]
SCF: Cycle: 12   F: -54.096776321843549   dF: -2.836e-07   |Residual|: 5.921e-05   |deigs|: 5.719e-05  t[s]:   4040.46
	FillingsUpdate:  mu: -0.033568611  nElectrons: 33.000000  magneticMoment: [ Abs: 1.13404  Tot: +1.00000 ]
SCF: Cycle: 13   F: -54.096777114148907   dF: -7.923e-07   |Residual|: 5.613e-05   |deigs|: 7.357e-05  t[s]:   4049.31
	FillingsUpdate:  mu: -0.033570036  nElectrons: 33.000000  magneticMoment: [ Abs: 1.13403  Tot: +1.00000 ]
SCF: Cycle: 14   F: -54.096776648949898   dF: +4.652e-07   |Residual|: 5.825e-05   |deigs|: 7.948e-05  t[s]:   4057.99
	FillingsUpdate:  mu: -0.033573741  nElectrons: 33.000000  magneticMoment: [ Abs: 1.13403  Tot: +1.00000 ]
SCF: Cycle: 15   F: -54.096776731788992   dF: -8.284e-08   |Residual|: 5.965e-05   |deigs|: 1.890e-05  t[s]:   4067.27
	FillingsUpdate:  mu: -0.033582064  nElectrons: 33.000000  magneticMoment: [ Abs: 1.13403  Tot: +1.00000 ]
SCF: Cycle: 16   F: -54.096776825446000   dF: -9.366e-08   |Residual|: 5.874e-05   |deigs|: 2.414e-05  t[s]:   4076.48
	FillingsUpdate:  mu: -0.033574124  nElectrons: 33.000000  magneticMoment: [ Abs: 1.13400  Tot: +1.00000 ]
SCF: Cycle: 17   F: -54.096776845298621   dF: -1.985e-08   |Residual|: 5.938e-05   |deigs|: 2.378e-05  t[s]:   4085.77
	FillingsUpdate:  mu: -0.033530816  nElectrons: 33.000000  magneticMoment: [ Abs: 1.13400  Tot: +1.00000 ]
SCF: Cycle: 18   F: -54.096778387213767   dF: -1.542e-06   |Residual|: 6.360e-05   |deigs|: 1.266e-04  t[s]:   4095.41
	FillingsUpdate:  mu: -0.033623866  nElectrons: 33.000000  magneticMoment: [ Abs: 1.13411  Tot: +1.00000 ]
SCF: Cycle: 19   F: -54.096779963773443   dF: -1.577e-06   |Residual|: 5.093e-05   |deigs|: 1.837e-04  t[s]:   4105.01
	FillingsUpdate:  mu: -0.033675247  nElectrons: 33.000000  magneticMoment: [ Abs: 1.13414  Tot: +1.00000 ]
SCF: Cycle: 20   F: -54.096778864674498   dF: +1.099e-06   |Residual|: 4.336e-05   |deigs|: 8.804e-05  t[s]:   4114.37
	FillingsUpdate:  mu: -0.033682949  nElectrons: 33.000000  magneticMoment: [ Abs: 1.13418  Tot: +1.00000 ]
SCF: Cycle: 21   F: -54.096778724724636   dF: +1.399e-07   |Residual|: 3.306e-05   |deigs|: 3.842e-05  t[s]:   4123.07
	FillingsUpdate:  mu: -0.033661894  nElectrons: 33.000000  magneticMoment: [ Abs: 1.13420  Tot: +1.00000 ]
SCF: Cycle: 22   F: -54.096778085961461   dF: +6.388e-07   |Residual|: 2.329e-05   |deigs|: 2.984e-05  t[s]:   4133.12
	FillingsUpdate:  mu: -0.033618756  nElectrons: 33.000000  magneticMoment: [ Abs: 1.13424  Tot: +1.00000 ]
SCF: Cycle: 23   F: -54.096777702892837   dF: +3.831e-07   |Residual|: 8.473e-06   |deigs|: 5.898e-05  t[s]:   4142.17
	FillingsUpdate:  mu: -0.033594407  nElectrons: 33.000000  magneticMoment: [ Abs: 1.13423  Tot: +1.00000 ]
SCF: Cycle: 24   F: -54.096777558984343   dF: +1.439e-07   |Residual|: 3.999e-06   |deigs|: 4.883e-05  t[s]:   4151.92
	FillingsUpdate:  mu: -0.033586972  nElectrons: 33.000000  magneticMoment: [ Abs: 1.13423  Tot: +1.00000 ]
SCF: Cycle: 25   F: -54.096777540673230   dF: +1.831e-08   |Residual|: 2.637e-06   |deigs|: 2.421e-05  t[s]:   4161.37
	FillingsUpdate:  mu: -0.033587681  nElectrons: 33.000000  magneticMoment: [ Abs: 1.13424  Tot: +1.00000 ]
SCF: Cycle: 26   F: -54.096777602998614   dF: -6.233e-08   |Residual|: 2.845e-06   |deigs|: 1.038e-05  t[s]:   4171.00
	FillingsUpdate:  mu: -0.033585301  nElectrons: 33.000000  magneticMoment: [ Abs: 1.13423  Tot: +1.00000 ]
SCF: Cycle: 27   F: -54.096777586375502   dF: +1.662e-08   |Residual|: 2.782e-06   |deigs|: 7.060e-06  t[s]:   4180.61
	FillingsUpdate:  mu: -0.033585318  nElectrons: 33.000000  magneticMoment: [ Abs: 1.13423  Tot: +1.00000 ]
SCF: Cycle: 28   F: -54.096777572742035   dF: +1.363e-08   |Residual|: 2.026e-06   |deigs|: 1.202e-05  t[s]:   4189.49
	FillingsUpdate:  mu: -0.033582223  nElectrons: 33.000000  magneticMoment: [ Abs: 1.13423  Tot: +1.00000 ]
SCF: Cycle: 29   F: -54.096777562638628   dF: +1.010e-08   |Residual|: 1.369e-06   |deigs|: 1.021e-05  t[s]:   4198.91
	FillingsUpdate:  mu: -0.033585668  nElectrons: 33.000000  magneticMoment: [ Abs: 1.13424  Tot: +1.00000 ]
SCF: Cycle: 30   F: -54.096777603313832   dF: -4.068e-08   |Residual|: 6.651e-07   |deigs|: 9.740e-06  t[s]:   4207.59
	FillingsUpdate:  mu: -0.033585736  nElectrons: 33.000000  magneticMoment: [ Abs: 1.13424  Tot: +1.00000 ]
SCF: Cycle: 31   F: -54.096777621359671   dF: -1.805e-08   |Residual|: 3.895e-07   |deigs|: 5.001e-06  t[s]:   4216.89
	FillingsUpdate:  mu: -0.033585045  nElectrons: 33.000000  magneticMoment: [ Abs: 1.13424  Tot: +1.00000 ]
SCF: Cycle: 32   F: -54.096777647090249   dF: -2.573e-08   |Residual|: 3.709e-07   |deigs|: 3.041e-06  t[s]:   4226.22
	FillingsUpdate:  mu: -0.033584315  nElectrons: 33.000000  magneticMoment: [ Abs: 1.13424  Tot: +1.00000 ]
SCF: Cycle: 33   F: -54.096777622236075   dF: +2.485e-08   |Residual|: 1.933e-07   |deigs|: 7.793e-07  t[s]:   4234.33
	FillingsUpdate:  mu: -0.033583908  nElectrons: 33.000000  magneticMoment: [ Abs: 1.13424  Tot: +1.00000 ]
SCF: Cycle: 34   F: -54.096777622627400   dF: -3.913e-10   |Residual|: 1.470e-07   |deigs|: 3.960e-06  t[s]:   4243.49
	FillingsUpdate:  mu: -0.033583485  nElectrons: 33.000000  magneticMoment: [ Abs: 1.13424  Tot: +1.00000 ]
SCF: Cycle: 35   F: -54.096777630287448   dF: -7.660e-09   |Residual|: 2.215e-07   |deigs|: 1.547e-06  t[s]:   4252.64
SCF: Converged (|Delta E|<1.000000e-08 for 2 iters).

	FillingsUpdate:  mu: -0.033583485  nElectrons: 33.000000  magneticMoment: [ Abs: 1.13424  Tot: +1.00000 ]
VxxLoop: Iter:  5   F: -54.096777630287448   dF: -9.906e-06
Constructing ACE exchange operator ... 10% 13% 43% 50% 60% 63% 93% 100% done.

	FillingsUpdate:  mu: -0.033581271  nElectrons: 33.000000  magneticMoment: [ Abs: 1.13424  Tot: +1.00000 ]
SCF: Cycle:  0   F: -54.096779964158145   dF: -2.334e-06   |Residual|: 9.914e-06   |deigs|: 1.337e-01  t[s]:   4569.98
	FillingsUpdate:  mu: -0.033583600  nElectrons: 33.000000  magneticMoment: [ Abs: 1.13424  Tot: +1.00000 ]
SCF: Cycle:  1   F: -54.096779873416850   dF: +9.074e-08   |Residual|: 1.540e-05   |deigs|: 4.527e-06  t[s]:   4577.89
	FillingsUpdate:  mu: -0.033583597  nElectrons: 33.000000  magneticMoment: [ Abs: 1.13424  Tot: +1.00000 ]
SCF: Cycle:  2   F: -54.096779777969402   dF: +9.545e-08   |Residual|: 1.911e-05   |deigs|: 1.426e-06  t[s]:   4586.62
	FillingsUpdate:  mu: -0.033583554  nElectrons: 33.000000  magneticMoment: [ Abs: 1.13424  Tot: +1.00000 ]
SCF: Cycle:  3   F: -54.096779779859013   dF: -1.890e-09   |Residual|: 1.956e-05   |deigs|: 8.611e-07  t[s]:   4595.31
	FillingsUpdate:  mu: -0.033583462  nElectrons: 33.000000  magneticMoment: [ Abs: 1.13424  Tot: +1.00000 ]
SCF: Cycle:  4   F: -54.096779754625373   dF: +2.523e-08   |Residual|: 2.030e-05   |deigs|: 3.480e-07  t[s]:   4605.68
	FillingsUpdate:  mu: -0.033583441  nElectrons: 33.000000  magneticMoment: [ Abs: 1.13424  Tot: +1.00000 ]
SCF: Cycle:  5   F: -54.096779736465095   dF: +1.816e-08   |Residual|: 2.037e-05   |deigs|: 5.913e-07  t[s]:   4614.16
	FillingsUpdate:  mu: -0.033584026  nElectrons: 33.000000  magneticMoment: [ Abs: 1.13424  Tot: +1.00000 ]
SCF: Cycle:  6   F: -54.096779719247905   dF: +1.722e-08   |Residual|: 2.037e-05   |deigs|: 1.100e-06  t[s]:   4622.52
	FillingsUpdate:  mu: -0.033584413  nElectrons: 33.000000  magneticMoment: [ Abs: 1.13424  Tot: +1.00000 ]
SCF: Cycle:  7   F: -54.096779719327429   dF: -7.952e-11   |Residual|: 2.042e-05   |deigs|: 1.086e-06  t[s]:   4631.22
	FillingsUpdate:  mu: -0.033584464  nElectrons: 33.000000  magneticMoment: [ Abs: 1.13424  Tot: +1.00000 ]
SCF: Cycle:  8   F: -54.096779700253833   dF: +1.907e-08   |Residual|: 2.062e-05   |deigs|: 1.463e-06  t[s]:   4641.07
	FillingsUpdate:  mu: -0.033584234  nElectrons: 33.000000  magneticMoment: [ Abs: 1.13424  Tot: +1.00000 ]
SCF: Cycle:  9   F: -54.096779705291780   dF: -5.038e-09   |Residual|: 2.062e-05   |deigs|: 9.193e-07  t[s]:   4648.46
	FillingsUpdate:  mu: -0.033582070  nElectrons: 33.000000  magneticMoment: [ Abs: 1.13422  Tot: +1.00000 ]
SCF: Cycle: 10   F: -54.096779721885632   dF: -1.659e-08   |Residual|: 1.976e-05   |deigs|: 9.003e-06  t[s]:   4657.82
	FillingsUpdate:  mu: -0.033565308  nElectrons: 33.000000  magneticMoment: [ Abs: 1.13423  Tot: +1.00000 ]
SCF: Cycle: 11   F: -54.096779545914011   dF: +1.760e-07   |Residual|: 1.919e-05   |deigs|: 2.870e-05  t[s]:   4668.52
	FillingsUpdate:  mu: -0.033570624  nElectrons: 33.000000  magneticMoment: [ Abs: 1.13423  Tot: +1.00000 ]
SCF: Cycle: 12   F: -54.096779651043121   dF: -1.051e-07   |Residual|: 2.016e-05   |deigs|: 1.225e-05  t[s]:   4678.20
	FillingsUpdate:  mu: -0.033573451  nElectrons: 33.000000  magneticMoment: [ Abs: 1.13423  Tot: +1.00000 ]
SCF: Cycle: 13   F: -54.096779747944105   dF: -9.690e-08   |Residual|: 2.131e-05   |deigs|: 8.466e-06  t[s]:   4687.81
	FillingsUpdate:  mu: -0.033571872  nElectrons: 33.000000  magneticMoment: [ Abs: 1.13426  Tot: +1.00000 ]
SCF: Cycle: 14   F: -54.096779020036102   dF: +7.279e-07   |Residual|: 1.521e-05   |deigs|: 2.643e-05  t[s]:   4697.63
	FillingsUpdate:  mu: -0.033573371  nElectrons: 33.000000  magneticMoment: [ Abs: 1.13427  Tot: +1.00000 ]
SCF: Cycle: 15   F: -54.096779075161841   dF: -5.513e-08   |Residual|: 1.519e-05   |deigs|: 1.012e-05  t[s]:   4707.29
	FillingsUpdate:  mu: -0.033568061  nElectrons: 33.000000  magneticMoment: [ Abs: 1.13428  Tot: +1.00000 ]
SCF: Cycle: 16   F: -54.096779217326016   dF: -1.422e-07   |Residual|: 1.683e-05   |deigs|: 1.042e-05  t[s]:   4716.99
[...]
	FillingsUpdate:  mu: -0.033573171  nElectrons: 33.000000  magneticMoment: [ Abs: 1.13431  Tot: +1.00000 ]
SCF: Cycle: 26   F: -54.096779799024247   dF: -3.091e-09   |Residual|: 2.420e-07   |deigs|: 1.979e-06  t[s]:   4807.39
	FillingsUpdate:  mu: -0.033572991  nElectrons: 33.000000  magneticMoment: [ Abs: 1.13431  Tot: +1.00000 ]
SCF: Cycle: 27   F: -54.096779798875403   dF: +1.488e-10   |Residual|: 2.305e-07   |deigs|: 8.967e-07  t[s]:   4816.57
	FillingsUpdate:  mu: -0.033573248  nElectrons: 33.000000  magneticMoment: [ Abs: 1.13431  Tot: +1.00000 ]
SCF: Cycle: 28   F: -54.096779802875716   dF: -4.000e-09   |Residual|: 2.247e-07   |deigs|: 8.830e-07  t[s]:   4825.70
	FillingsUpdate:  mu: -0.033574170  nElectrons: 33.000000  magneticMoment: [ Abs: 1.13431  Tot: +1.00000 ]
SCF: Cycle: 29   F: -54.096779805576006   dF: -2.700e-09   |Residual|: 1.781e-07   |deigs|: 1.215e-06  t[s]:   4834.73
SCF: Converged (|Delta E|<1.000000e-08 for 2 iters).

	FillingsUpdate:  mu: -0.033574170  nElectrons: 33.000000  magneticMoment: [ Abs: 1.13431  Tot: +1.00000 ]
VxxLoop: Iter:  6   F: -54.096779805576176   dF: -2.175e-06
Constructing ACE exchange operator ... 10% 13% 43% 50% 60% 63% 93% 100% done.

	FillingsUpdate:  mu: -0.033581303  nElectrons: 33.000000  magneticMoment: [ Abs: 1.13431  Tot: +1.00000 ]
SCF: Cycle:  0   F: -54.096780427970799   dF: -6.224e-07   |Residual|: 3.385e-06   |deigs|: 1.337e-01  t[s]:   5119.59
	FillingsUpdate:  mu: -0.033575360  nElectrons: 33.000000  magneticMoment: [ Abs: 1.13431  Tot: +1.00000 ]
SCF: Cycle:  1   F: -54.096780366175317   dF: +6.180e-08   |Residual|: 3.981e-06   |deigs|: 6.053e-06  t[s]:   5129.56
	FillingsUpdate:  mu: -0.033579871  nElectrons: 33.000000  magneticMoment: [ Abs: 1.13431  Tot: +1.00000 ]
SCF: Cycle:  2   F: -54.096780371016152   dF: -4.841e-09   |Residual|: 6.705e-06   |deigs|: 3.688e-06  t[s]:   5138.77
	FillingsUpdate:  mu: -0.033579794  nElectrons: 33.000000  magneticMoment: [ Abs: 1.13431  Tot: +1.00000 ]
SCF: Cycle:  3   F: -54.096780363860447   dF: +7.156e-09   |Residual|: 7.091e-06   |deigs|: 1.860e-07  t[s]:   5147.94
	FillingsUpdate:  mu: -0.033579836  nElectrons: 33.000000  magneticMoment: [ Abs: 1.13431  Tot: +1.00000 ]
SCF: Cycle:  4   F: -54.096780362771625   dF: +1.089e-09   |Residual|: 7.224e-06   |deigs|: 3.553e-07  t[s]:   5156.60
	FillingsUpdate:  mu: -0.033579894  nElectrons: 33.000000  magneticMoment: [ Abs: 1.13431  Tot: +1.00000 ]
SCF: Cycle:  5   F: -54.096780360340077   dF: +2.432e-09   |Residual|: 7.335e-06   |deigs|: 4.994e-07  t[s]:   5166.46
	FillingsUpdate:  mu: -0.033579936  nElectrons: 33.000000  magneticMoment: [ Abs: 1.13431  Tot: +1.00000 ]
SCF: Cycle:  6   F: -54.096780362904909   dF: -2.565e-09   |Residual|: 7.353e-06   |deigs|: 7.668e-07  t[s]:   5176.02
	FillingsUpdate:  mu: -0.033580480  nElectrons: 33.000000  magneticMoment: [ Abs: 1.13431  Tot: +1.00000 ]
SCF: Cycle:  7   F: -54.096780178977866   dF: +1.839e-07   |Residual|: 7.018e-06   |deigs|: 5.687e-06  t[s]:   5185.61
	FillingsUpdate:  mu: -0.033581392  nElectrons: 33.000000  magneticMoment: [ Abs: 1.13431  Tot: +1.00000 ]
SCF: Cycle:  8   F: -54.096780120536934   dF: +5.844e-08   |Residual|: 6.977e-06   |deigs|: 7.682e-06  t[s]:   5195.01
	FillingsUpdate:  mu: -0.033580631  nElectrons: 33.000000  magneticMoment: [ Abs: 1.13431  Tot: +1.00000 ]
SCF: Cycle:  9   F: -54.096780328954139   dF: -2.084e-07   |Residual|: 7.492e-06   |deigs|: 1.393e-05  t[s]:   5203.30
	FillingsUpdate:  mu: -0.033583333  nElectrons: 33.000000  magneticMoment: [ Abs: 1.13431  Tot: +1.00000 ]
SCF: Cycle: 10   F: -54.096780281391027   dF: +4.756e-08   |Residual|: 7.068e-06   |deigs|: 6.014e-06  t[s]:   5211.80
	FillingsUpdate:  mu: -0.033577061  nElectrons: 33.000000  magneticMoment: [ Abs: 1.13431  Tot: +1.00000 ]
SCF: Cycle: 11   F: -54.096780286062170   dF: -4.671e-09   |Residual|: 6.695e-06   |deigs|: 6.426e-06  t[s]:   5220.15
	FillingsUpdate:  mu: -0.033577173  nElectrons: 33.000000  magneticMoment: [ Abs: 1.13431  Tot: +1.00000 ]
SCF: Cycle: 12   F: -54.096780251619180   dF: +3.444e-08   |Residual|: 6.847e-06   |deigs|: 6.638e-06  t[s]:   5229.78
	FillingsUpdate:  mu: -0.033576138  nElectrons: 33.000000  magneticMoment: [ Abs: 1.13431  Tot: +1.00000 ]
SCF: Cycle: 13   F: -54.096780267781554   dF: -1.616e-08   |Residual|: 5.984e-06   |deigs|: 5.303e-06  t[s]:   5239.49
	FillingsUpdate:  mu: -0.033576369  nElectrons: 33.000000  magneticMoment: [ Abs: 1.13432  Tot: +1.00000 ]
SCF: Cycle: 14   F: -54.096780256854757   dF: +1.093e-08   |Residual|: 4.466e-06   |deigs|: 7.106e-06  t[s]:   5249.36
	FillingsUpdate:  mu: -0.033574668  nElectrons: 33.000000  magneticMoment: [ Abs: 1.13433  Tot: +1.00000 ]
SCF: Cycle: 15   F: -54.096780203528169   dF: +5.333e-08   |Residual|: 2.621e-06   |deigs|: 1.212e-05  t[s]:   5258.48
	FillingsUpdate:  mu: -0.033575452  nElectrons: 33.000000  magneticMoment: [ Abs: 1.13433  Tot: +1.00000 ]
SCF: Cycle: 16   F: -54.096780248429766   dF: -4.490e-08   |Residual|: 2.820e-06   |deigs|: 6.544e-06  t[s]:   5267.11
	FillingsUpdate:  mu: -0.033578061  nElectrons: 33.000000  magneticMoment: [ Abs: 1.13433  Tot: +1.00000 ]
SCF: Cycle: 17   F: -54.096780369125312   dF: -1.207e-07   |Residual|: 1.736e-06   |deigs|: 3.932e-06  t[s]:   5277.24
	FillingsUpdate:  mu: -0.033579738  nElectrons: 33.000000  magneticMoment: [ Abs: 1.13433  Tot: +1.00000 ]
SCF: Cycle: 18   F: -54.096780388732192   dF: -1.961e-08   |Residual|: 1.427e-06   |deigs|: 3.115e-06  t[s]:   5286.69
	FillingsUpdate:  mu: -0.033581568  nElectrons: 33.000000  magneticMoment: [ Abs: 1.13433  Tot: +1.00000 ]
SCF: Cycle: 19   F: -54.096780375597177   dF: +1.314e-08   |Residual|: 6.255e-07   |deigs|: 6.835e-06  t[s]:   5295.78
	FillingsUpdate:  mu: -0.033581540  nElectrons: 33.000000  magneticMoment: [ Abs: 1.13433  Tot: +1.00000 ]
SCF: Cycle: 20   F: -54.096780373141669   dF: +2.456e-09   |Residual|: 2.873e-07   |deigs|: 2.601e-06  t[s]:   5305.25
	FillingsUpdate:  mu: -0.033581216  nElectrons: 33.000000  magneticMoment: [ Abs: 1.13433  Tot: +1.00000 ]
SCF: Cycle: 21   F: -54.096780376049260   dF: -2.908e-09   |Residual|: 2.729e-07   |deigs|: 1.461e-06  t[s]:   5315.40
	FillingsUpdate:  mu: -0.033581350  nElectrons: 33.000000  magneticMoment: [ Abs: 1.13433  Tot: +1.00000 ]
SCF: Cycle: 22   F: -54.096780360102358   dF: +1.595e-08   |Residual|: 1.605e-07   |deigs|: 1.054e-06  t[s]:   5324.29
	FillingsUpdate:  mu: -0.033581413  nElectrons: 33.000000  magneticMoment: [ Abs: 1.13433  Tot: +1.00000 ]
SCF: Cycle: 23   F: -54.096780364506216   dF: -4.404e-09   |Residual|: 1.046e-07   |deigs|: 5.804e-07  t[s]:   5331.86
	FillingsUpdate:  mu: -0.033581336  nElectrons: 33.000000  magneticMoment: [ Abs: 1.13433  Tot: +1.00000 ]
SCF: Cycle: 24   F: -54.096780376106963   dF: -1.160e-08   |Residual|: 6.339e-08   |deigs|: 4.813e-07  t[s]:   5340.95
	FillingsUpdate:  mu: -0.033581313  nElectrons: 33.000000  magneticMoment: [ Abs: 1.13433  Tot: +1.00000 ]
SCF: Cycle: 25   F: -54.096780373824473   dF: +2.282e-09   |Residual|: 7.564e-08   |deigs|: 2.151e-07  t[s]:   5349.34
SCF: Converged (|Residual|<1.000000e-07 for 2 iters).

	FillingsUpdate:  mu: -0.033581313  nElectrons: 33.000000  magneticMoment: [ Abs: 1.13433  Tot: +1.00000 ]
VxxLoop: Iter:  7   F: -54.096780373824473   dF: -5.682e-07
Constructing ACE exchange operator ... 10% 13% 43% 50% 60% 63% 93% 100% done.

	FillingsUpdate:  mu: -0.033581336  nElectrons: 33.000000  magneticMoment: [ Abs: 1.13433  Tot: +1.00000 ]
SCF: Cycle:  0   F: -54.096780572797883   dF: -1.990e-07   |Residual|: 1.168e-06   |deigs|: 1.337e-01  t[s]:   5657.83
	FillingsUpdate:  mu: -0.033581341  nElectrons: 33.000000  magneticMoment: [ Abs: 1.13433  Tot: +1.00000 ]
SCF: Cycle:  1   F: -54.096780564674106   dF: +8.124e-09   |Residual|: 1.144e-06   |deigs|: 2.151e-06  t[s]:   5665.53
	FillingsUpdate:  mu: -0.033581308  nElectrons: 33.000000  magneticMoment: [ Abs: 1.13433  Tot: +1.00000 ]
SCF: Cycle:  2   F: -54.096780555216938   dF: +9.457e-09   |Residual|: 2.404e-06   |deigs|: 1.794e-06  t[s]:   5674.36
	FillingsUpdate:  mu: -0.033581327  nElectrons: 33.000000  magneticMoment: [ Abs: 1.13433  Tot: +1.00000 ]
SCF: Cycle:  3   F: -54.096780554457510   dF: +7.594e-10   |Residual|: 2.449e-06   |deigs|: 2.234e-07  t[s]:   5682.63
	FillingsUpdate:  mu: -0.033581294  nElectrons: 33.000000  magneticMoment: [ Abs: 1.13433  Tot: +1.00000 ]
SCF: Cycle:  4   F: -54.096780553348623   dF: +1.109e-09   |Residual|: 2.505e-06   |deigs|: 4.112e-07  t[s]:   5691.64
	FillingsUpdate:  mu: -0.033581320  nElectrons: 33.000000  magneticMoment: [ Abs: 1.13433  Tot: +1.00000 ]
SCF: Cycle:  5   F: -54.096780553018434   dF: +3.302e-10   |Residual|: 2.517e-06   |deigs|: 2.896e-07  t[s]:   5699.26
	FillingsUpdate:  mu: -0.033581332  nElectrons: 33.000000  magneticMoment: [ Abs: 1.13433  Tot: +1.00000 ]
SCF: Cycle:  6   F: -54.096780554041672   dF: -1.023e-09   |Residual|: 2.550e-06   |deigs|: 1.105e-07  t[s]:   5708.27
	FillingsUpdate:  mu: -0.033581410  nElectrons: 33.000000  magneticMoment: [ Abs: 1.13433  Tot: +1.00000 ]
SCF: Cycle:  7   F: -54.096780553577403   dF: +4.643e-10   |Residual|: 2.517e-06   |deigs|: 1.986e-07  t[s]:   5717.69
	FillingsUpdate:  mu: -0.033581343  nElectrons: 33.000000  magneticMoment: [ Abs: 1.13433  Tot: +1.00000 ]
SCF: Cycle:  8   F: -54.096780554163452   dF: -5.860e-10   |Residual|: 2.527e-06   |deigs|: 1.130e-07  t[s]:   5725.70
	FillingsUpdate:  mu: -0.033581403  nElectrons: 33.000000  magneticMoment: [ Abs: 1.13433  Tot: +1.00000 ]
SCF: Cycle:  9   F: -54.096780555778707   dF: -1.615e-09   |Residual|: 2.516e-06   |deigs|: 1.706e-07  t[s]:   5735.06
SCF: Converged (|Delta E|<1.000000e-08 for 2 iters).

	FillingsUpdate:  mu: -0.033581403  nElectrons: 33.000000  magneticMoment: [ Abs: 1.13434  Tot: +1.00000 ]
VxxLoop: Iter:  8   F: -54.096780555778707   dF: -1.820e-07
Constructing ACE exchange operator ... 10% 13% 43% 50% 60% 63% 93% 100% done.

	FillingsUpdate:  mu: -0.033581367  nElectrons: 33.000000  magneticMoment: [ Abs: 1.13434  Tot: +1.00000 ]
SCF: Cycle:  0   F: -54.096780604223738   dF: -4.845e-08   |Residual|: 5.409e-07   |deigs|: 1.337e-01  t[s]:   6051.10
	FillingsUpdate:  mu: -0.033581537  nElectrons: 33.000000  magneticMoment: [ Abs: 1.13434  Tot: +1.00000 ]
SCF: Cycle:  1   F: -54.096780598290977   dF: +5.933e-09   |Residual|: 4.914e-07   |deigs|: 3.766e-07  t[s]:   6060.20
	FillingsUpdate:  mu: -0.033581412  nElectrons: 33.000000  magneticMoment: [ Abs: 1.13434  Tot: +1.00000 ]
SCF: Cycle:  2   F: -54.096780623756864   dF: -2.547e-08   |Residual|: 9.146e-07   |deigs|: 2.339e-07  t[s]:   6069.14
	FillingsUpdate:  mu: -0.033581426  nElectrons: 33.000000  magneticMoment: [ Abs: 1.13434  Tot: +1.00000 ]
SCF: Cycle:  3   F: -54.096780623586724   dF: +1.701e-10   |Residual|: 7.698e-07   |deigs|: 1.138e-07  t[s]:   6077.09
	FillingsUpdate:  mu: -0.033581428  nElectrons: 33.000000  magneticMoment: [ Abs: 1.13434  Tot: +1.00000 ]
SCF: Cycle:  4   F: -54.096780621663598   dF: +1.923e-09   |Residual|: 8.598e-07   |deigs|: 1.200e-07  t[s]:   6086.53
	FillingsUpdate:  mu: -0.033581421  nElectrons: 33.000000  magneticMoment: [ Abs: 1.13434  Tot: +1.00000 ]
SCF: Cycle:  5   F: -54.096780620880722   dF: +7.829e-10   |Residual|: 8.505e-07   |deigs|: 1.699e-07  t[s]:   6095.03
	FillingsUpdate:  mu: -0.033581560  nElectrons: 33.000000  magneticMoment: [ Abs: 1.13434  Tot: +1.00000 ]
SCF: Cycle:  6   F: -54.096780621336663   dF: -4.559e-10   |Residual|: 8.337e-07   |deigs|: 2.800e-07  t[s]:   6103.51
	FillingsUpdate:  mu: -0.033581489  nElectrons: 33.000000  magneticMoment: [ Abs: 1.13434  Tot: +1.00000 ]
SCF: Cycle:  7   F: -54.096780620730868   dF: +6.058e-10   |Residual|: 9.598e-07   |deigs|: 2.384e-07  t[s]:   6111.28
	FillingsUpdate:  mu: -0.033581488  nElectrons: 33.000000  magneticMoment: [ Abs: 1.13434  Tot: +1.00000 ]
SCF: Cycle:  8   F: -54.096780618240231   dF: +2.491e-09   |Residual|: 8.465e-07   |deigs|: 2.354e-07  t[s]:   6119.60
	FillingsUpdate:  mu: -0.033581462  nElectrons: 33.000000  magneticMoment: [ Abs: 1.13434  Tot: +1.00000 ]
SCF: Cycle:  9   F: -54.096780614614460   dF: +3.626e-09   |Residual|: 7.866e-07   |deigs|: 2.965e-07  t[s]:   6127.71
	FillingsUpdate:  mu: -0.033581431  nElectrons: 33.000000  magneticMoment: [ Abs: 1.13434  Tot: +1.00000 ]
SCF: Cycle: 10   F: -54.096780608325972   dF: +6.288e-09   |Residual|: 7.921e-07   |deigs|: 2.320e-07  t[s]:   6136.03
	FillingsUpdate:  mu: -0.033581362  nElectrons: 33.000000  magneticMoment: [ Abs: 1.13434  Tot: +1.00000 ]
SCF: Cycle: 11   F: -54.096780606987750   dF: +1.338e-09   |Residual|: 5.478e-07   |deigs|: 1.093e-07  t[s]:   6145.20
	FillingsUpdate:  mu: -0.033581320  nElectrons: 33.000000  magneticMoment: [ Abs: 1.13434  Tot: +1.00000 ]
SCF: Cycle: 12   F: -54.096780590057151   dF: +1.693e-08   |Residual|: 1.003e-07   |deigs|: 2.561e-07  t[s]:   6153.76
	FillingsUpdate:  mu: -0.033581417  nElectrons: 33.000000  magneticMoment: [ Abs: 1.13434  Tot: +1.00000 ]
SCF: Cycle: 13   F: -54.096780589991440   dF: +6.571e-11   |Residual|: 8.169e-08   |deigs|: 4.126e-07  t[s]:   6161.73
	FillingsUpdate:  mu: -0.033581406  nElectrons: 33.000000  magneticMoment: [ Abs: 1.13434  Tot: +1.00000 ]
SCF: Cycle: 14   F: -54.096780591011331   dF: -1.020e-09   |Residual|: 7.708e-08   |deigs|: 1.275e-07  t[s]:   6170.29
SCF: Converged (|Residual|<1.000000e-07 for 2 iters).

	FillingsUpdate:  mu: -0.033581406  nElectrons: 33.000000  magneticMoment: [ Abs: 1.13434  Tot: +1.00000 ]
VxxLoop: Iter:  9   F: -54.096780591011076   dF: -3.523e-08
Constructing ACE exchange operator ... 10% 13% 43% 50% 60% 63% 93% 100% done.

	FillingsUpdate:  mu: -0.033581391  nElectrons: 33.000000  magneticMoment: [ Abs: 1.13434  Tot: +1.00000 ]
SCF: Cycle:  0   F: -54.096780615621050   dF: -2.461e-08   |Residual|: 2.053e-07   |deigs|: 1.337e-01  t[s]:   6477.79
	FillingsUpdate:  mu: -0.033581345  nElectrons: 33.000000  magneticMoment: [ Abs: 1.13434  Tot: +1.00000 ]
SCF: Cycle:  1   F: -54.096780611573891   dF: +4.047e-09   |Residual|: 1.348e-07   |deigs|: 5.379e-07  t[s]:   6486.45
	FillingsUpdate:  mu: -0.033581330  nElectrons: 33.000000  magneticMoment: [ Abs: 1.13434  Tot: +1.00000 ]
SCF: Cycle:  2   F: -54.096780623157343   dF: -1.158e-08   |Residual|: 4.178e-07   |deigs|: 2.702e-07  t[s]:   6495.72
	FillingsUpdate:  mu: -0.033581356  nElectrons: 33.000000  magneticMoment: [ Abs: 1.13434  Tot: +1.00000 ]
SCF: Cycle:  3   F: -54.096780623041298   dF: +1.160e-10   |Residual|: 4.706e-07   |deigs|: 9.135e-08  t[s]:   6504.54
	FillingsUpdate:  mu: -0.033581328  nElectrons: 33.000000  magneticMoment: [ Abs: 1.13434  Tot: +1.00000 ]
SCF: Cycle:  4   F: -54.096780624303108   dF: -1.262e-09   |Residual|: 3.924e-07   |deigs|: 1.085e-07  t[s]:   6512.80
	FillingsUpdate:  mu: -0.033581339  nElectrons: 33.000000  magneticMoment: [ Abs: 1.13434  Tot: +1.00000 ]
SCF: Cycle:  5   F: -54.096780621980130   dF: +2.323e-09   |Residual|: 6.107e-07   |deigs|: 2.589e-07  t[s]:   6520.87
	FillingsUpdate:  mu: -0.033581340  nElectrons: 33.000000  magneticMoment: [ Abs: 1.13434  Tot: +1.00000 ]
SCF: Cycle:  6   F: -54.096780623524175   dF: -1.544e-09   |Residual|: 4.619e-07   |deigs|: 7.904e-08  t[s]:   6529.75
	FillingsUpdate:  mu: -0.033581362  nElectrons: 33.000000  magneticMoment: [ Abs: 1.13434  Tot: +1.00000 ]
SCF: Cycle:  7   F: -54.096780623093011   dF: +4.312e-10   |Residual|: 4.629e-07   |deigs|: 1.143e-07  t[s]:   6538.46
	FillingsUpdate:  mu: -0.033581423  nElectrons: 33.000000  magneticMoment: [ Abs: 1.13434  Tot: +1.00000 ]
SCF: Cycle:  8   F: -54.096780623311773   dF: -2.188e-10   |Residual|: 5.087e-07   |deigs|: 1.362e-07  t[s]:   6547.40
	FillingsUpdate:  mu: -0.033581433  nElectrons: 33.000000  magneticMoment: [ Abs: 1.13434  Tot: +1.00000 ]
SCF: Cycle:  9   F: -54.096780623868305   dF: -5.565e-10   |Residual|: 5.682e-07   |deigs|: 8.744e-08  t[s]:   6556.50
SCF: Converged (|Delta E|<1.000000e-08 for 2 iters).

	FillingsUpdate:  mu: -0.033581433  nElectrons: 33.000000  magneticMoment: [ Abs: 1.13434  Tot: +1.00000 ]
VxxLoop: Iter: 10   F: -54.096780623868135   dF: -3.286e-08
Constructing ACE exchange operator ... 10% 13% 43% 50% 60% 63% 93% 100% done.

	FillingsUpdate:  mu: -0.033581391  nElectrons: 33.000000  magneticMoment: [ Abs: 1.13434  Tot: +1.00000 ]
SCF: Cycle:  0   F: -54.096780606589270   dF: +1.728e-08   |Residual|: 9.089e-08   |deigs|: 1.337e-01  t[s]:   6861.91
	FillingsUpdate:  mu: -0.033581406  nElectrons: 33.000000  magneticMoment: [ Abs: 1.13434  Tot: +1.00000 ]
SCF: Cycle:  1   F: -54.096780609390620   dF: -2.801e-09   |Residual|: 3.993e-08   |deigs|: 1.995e-07  t[s]:   6869.03
SCF: Converged (|Residual|<1.000000e-07 for 2 iters).

	FillingsUpdate:  mu: -0.033581406  nElectrons: 33.000000  magneticMoment: [ Abs: 1.13434  Tot: +1.00000 ]
VxxLoop: Iter: 11   F: -54.096780609390535   dF: +1.448e-08
Constructing ACE exchange operator ... 10% 13% 43% 50% 60% 63% 93% 100% done.

	FillingsUpdate:  mu: -0.033581390  nElectrons: 33.000000  magneticMoment: [ Abs: 1.13434  Tot: +1.00000 ]
SCF: Cycle:  0   F: -54.096780612687766   dF: -3.297e-09   |Residual|: 2.210e-08   |deigs|: 1.337e-01  t[s]:   7162.37
	FillingsUpdate:  mu: -0.033581386  nElectrons: 33.000000  magneticMoment: [ Abs: 1.13434  Tot: +1.00000 ]
SCF: Cycle:  1   F: -54.096780606140868   dF: +6.547e-09   |Residual|: 5.384e-08   |deigs|: 3.772e-08  t[s]:   7170.51
SCF: Converged (|Residual|<1.000000e-07 for 2 iters).

	FillingsUpdate:  mu: -0.033581386  nElectrons: 33.000000  magneticMoment: [ Abs: 1.13434  Tot: +1.00000 ]
VxxLoop: Iter: 12   F: -54.096780606140868   dF: +3.250e-09

# Ionic positions in lattice coordinates:
ion C  -0.000000000000000   0.000000000000000   0.000000000000000 1
ion N   0.164313074529992   0.328626149059985   0.000000000000000 1
ion N   0.164313074529992   0.835686925470008   0.000000000000000 1
ion N   0.666666666666667   0.333333333333333   0.000000000000000 1
ion N   0.671373850940015   0.835686925470008   0.000000000000000 1
ion B  -0.001576660817548   0.499211669591226   0.000000000000000 1
ion B   0.500788330408774   0.001576660817548   0.000000000000000 1
ion B   0.500788330408774   0.499211669591226   0.000000000000000 1

# Forces in Lattice coordinates:
force C  -0.000000000000000  -0.000000000000000   0.000000000000000 1
force N   0.000000000000000   0.114394340783877  -0.000000000000000 1
force N   0.114394340783875  -0.114394340783877  -0.000000000000000 1
force N  -0.000000000000000   0.000000000000000   0.000000000000000 1
force N  -0.114394340783876   0.000000000000000   0.000000000000000 1
force B   0.027678646562738  -0.000000000000000   0.000000000000000 1
force B   0.000000000000000  -0.027678646562739  -0.000000000000000 1
force B  -0.027678646562739   0.027678646562739   0.000000000000000 1

# Energy components:
   Eewald =      -85.5148968124686775
       EH =      -42.9044075866837886
     Eloc =       53.3406590847810804
      Enl =       -2.3341620111154553
   Epulay =       -0.0001784203542032
      Exc =      -12.5135088592859791
      EXX =       -3.0233327922438979
       KE =       38.8530467912300281
-------------------------------------
     Etot =      -54.0967806061408680
       TS =        0.0000000000000000
-------------------------------------
        F =      -54.0967806061408680

IonicMinimize: Iter:   0  F: -54.096780606140868  |grad|_K:  5.135e-03  t[s]:   7173.47
IonicMinimize: None of the convergence criteria satisfied after 0 iterations.

#--- Lowdin population analysis ---
# oxidation-state C +0.292
# magnetic-moments C +0.695
# oxidation-state N -0.328 -0.328 -0.453 -0.328
# magnetic-moments N +0.008 +0.008 +0.067 +0.008
# oxidation-state B +0.493 +0.493 +0.493
# magnetic-moments B +0.064 +0.064 +0.064


Dumping 'BN22BC.fillings' ... done
Dumping 'BN22BC.wfns' ... done
Dumping 'BN22BC.n_up' ... done
Dumping 'BN22BC.n_dn' ... done
Dumping 'BN22BC.eigenvals' ... done
End date and time: Mon Jan 31 15:46:57 2022  (Duration: 0-1:59:33.81)
Done!
