magnetization is -0.32
--------------------------------------------------------------------------
The library attempted to open the following supporting CUDA libraries,
but each of them failed.  CUDA-aware support is disabled.
libcuda.so.1: cannot open shared object file: No such file or directory
libcuda.dylib: cannot open shared object file: No such file or directory
/usr/lib64/libcuda.so.1: cannot open shared object file: No such file or directory
/usr/lib64/libcuda.dylib: cannot open shared object file: No such file or directory
If you are not interested in CUDA-aware support, then run with
--mca opal_warn_on_missing_libcuda 0 to suppress this message.  If you are interested
in CUDA-aware support, then try setting LD_LIBRARY_PATH to the location
of libcuda.so.1 to get passed this issue.
--------------------------------------------------------------------------
--------------------------------------------------------------------------
No OpenFabrics connection schemes reported that they were able to be
used on a specific port.  As such, the openib BTL (OpenFabrics
support) will be disabled for this port.

  Local host:           d-6-5-2
  Local device:         mlx5_1
  Local port:           1
  CPCs attempted:       rdmacm, udcm
--------------------------------------------------------------------------

*************** JDFTx 1.6.0 (git hash 42ebbcc2) ***************

Start date and time: Sun Jan 30 23:07:14 2022
Executable jdftx with command-line: -i BN22BC.in
Running on hosts (process indices):  d-6-5-2 (0-37)
Divided in process groups (process indices):  0 (0)  1 (1)  2 (2)  3 (3)  4 (4)  5 (5)  6 (6)  7 (7)  8 (8)  9 (9)  10 (10)  11 (11)  12 (12)  13 (13)  14 (14)  15 (15)  16 (16)  17 (17)  18 (18)  19 (19)  20 (20)  21 (21)  22 (22)  23 (23)  24 (24)  25 (25)  26 (26)  27 (27)  28 (28)  29 (29)  30 (30)  31 (31)  32 (32)  33 (33)  34 (34)  35 (35)  36 (36)  37 (37)
Resource initialization completed at t[s]:      0.00
Run totals: 38 processes, 48 threads, 0 GPUs


Input parsed successfully to the following command list (including defaults):

basis kpoint-dependent
coords-type Lattice
core-overlap-check vector
coulomb-interaction Slab 001
davidson-band-ratio 1.1
dump End State ElecDensity BandEigs
dump-name BN22BC--0.32.$VAR
elec-cutoff 20
elec-eigen-algo Davidson
elec-ex-corr gga-PBE
elec-initial-magnetization -0.320000 yes
elec-smearing Fermi 1e-05
electronic-minimize  \
	dirUpdateScheme      FletcherReeves \
	linminMethod         DirUpdateRecommended \
	nIterations          100 \
	history              15 \
	knormThreshold       0 \
	energyDiffThreshold  1e-08 \
	nEnergyDiff          2 \
	alphaTstart          1 \
	alphaTmin            1e-10 \
	updateTestStepSize   yes \
	alphaTreduceFactor   0.1 \
	alphaTincreaseFactor 3 \
	nAlphaAdjustMax      3 \
	wolfeEnergy          0.0001 \
	wolfeGradient        0.9 \
	fdTest               no
electronic-scf  \
	nIterations	1000 \
	energyDiffThreshold	1e-08 \
	residualThreshold	1e-07 \
	mixFraction	0.5 \
	qMetric	0.8 \
	history	10 \
	nEigSteps	2 \
	eigDiffThreshold	1e-08 \
	mixedVariable	Density \
	qKerker	0.8 \
	qKappa	-1 \
	verbose	no \
	mixFractionMag	1.5
exchange-regularization WignerSeitzTruncated
fluid None
fluid-ex-corr (null) lda-PZ
fluid-gummel-loop 10 1.000000e-05
fluid-minimize  \
	dirUpdateScheme      PolakRibiere \
	linminMethod         DirUpdateRecommended \
	nIterations          100 \
	history              15 \
	knormThreshold       0 \
	energyDiffThreshold  0 \
	nEnergyDiff          2 \
	alphaTstart          1 \
	alphaTmin            1e-10 \
	updateTestStepSize   yes \
	alphaTreduceFactor   0.1 \
	alphaTincreaseFactor 3 \
	nAlphaAdjustMax      3 \
	wolfeEnergy          0.0001 \
	wolfeGradient        0.9 \
	fdTest               no
fluid-solvent H2O 55.338 ScalarEOS \
	epsBulk 78.4 \
	pMol 0.92466 \
	epsInf 1.77 \
	Pvap 1.06736e-10 \
	sigmaBulk 4.62e-05 \
	Rvdw 2.61727 \
	Res 1.42 \
	tauNuc 343133 \
	poleEl 15 7 1
forces-output-coords Positions
ion C   0.000000000000000  -0.000000000000000   0.000000000000000 1
ion N   0.164313074529992   0.328626149059985   0.000000000000000 1
ion N   0.164313074529992   0.835686925470008   0.000000000000000 1
ion N   0.666666666666667   0.333333333333333   0.000000000000000 1
ion N   0.671373850940015   0.835686925470008   0.000000000000000 1
ion B  -0.001576660817548   0.499211669591226   0.000000000000000 1
ion B   0.500788330408774   0.001576660817548   0.000000000000000 1
ion B   0.500788330408774   0.499211669591226   0.000000000000000 1
ion-species SG15/$ID_ONCV_PBE.upf
ion-width 0
ionic-minimize  \
	dirUpdateScheme      L-BFGS \
	linminMethod         DirUpdateRecommended \
	nIterations          0 \
	history              15 \
	knormThreshold       0.0001 \
	energyDiffThreshold  1e-06 \
	nEnergyDiff          2 \
	alphaTstart          1 \
	alphaTmin            1e-10 \
	updateTestStepSize   yes \
	alphaTreduceFactor   0.1 \
	alphaTincreaseFactor 3 \
	nAlphaAdjustMax      3 \
	wolfeEnergy          0.0001 \
	wolfeGradient        0.9 \
	fdTest               no
kpoint   0.000000000000   0.000000000000   0.000000000000  1.00000000000000
kpoint-folding 12 12 1 
latt-move-scale 1 1 1
latt-scale 1 1 1 
lattice  \
	   9.356640512437433   -4.678320256218713    0.000000000000000  \
	  -0.000000000000000    8.103088377849462    0.000000000000000  \
	   0.000000000000000    0.000000000000000   40.000000000000000 
lattice-minimize  \
	dirUpdateScheme      L-BFGS \
	linminMethod         DirUpdateRecommended \
	nIterations          0 \
	history              15 \
	knormThreshold       0 \
	energyDiffThreshold  1e-06 \
	nEnergyDiff          2 \
	alphaTstart          1 \
	alphaTmin            1e-10 \
	updateTestStepSize   yes \
	alphaTreduceFactor   0.1 \
	alphaTincreaseFactor 3 \
	nAlphaAdjustMax      3 \
	wolfeEnergy          0.0001 \
	wolfeGradient        0.9 \
	fdTest               no
lcao-params -1 1e-06 1e-05
pcm-variant GLSSA13
spintype z-spin
subspace-rotation-factor 1 yes
symmetries automatic
symmetry-threshold 0.0001



---------- Setting up symmetries ----------

Found 24 point-group symmetries of the bravais lattice
Found 12 space-group symmetries with basis
Applied RMS atom displacement 3.80214e-15 bohrs to make symmetries exact.

---------- Initializing the Grid ----------
R = 
[      9.35664     -4.67832            0  ]
[            0      8.10309            0  ]
[            0            0           40  ]
unit cell volume = 3032.71
G =
[   0.671522   0.387703         -0  ]
[          0   0.775406         -0  ]
[         -0         -0    0.15708  ]
Minimum fftbox size, Smin = [  40  40  164  ]
Chosen fftbox size, S = [  40  40  168  ]

---------- Exchange Correlation functional ----------
Initalized PBE GGA exchange.
Initalized PBE GGA correlation.

---------- Setting up pseudopotentials ----------
Width of ionic core gaussian charges (only for fluid interactions / plotting) set to 0

Reading pseudopotential file '/home/gridsan/aligho/DFT/build-Nov24/pseudopotentials/SG15/C_ONCV_PBE.upf':
  'C' pseudopotential, 'PBE' functional
  Generated using ONCVPSP code by D. R. Hamann
  Author: Martin Schlipf and Francois Gygi  Date: 150915.
  4 valence electrons, 2 orbitals, 4 projectors, 1248 radial grid points, with lMax = 1
  Transforming local potential to a uniform radial grid of dG=0.02 with 1502 points.
  Transforming nonlocal projectors to a uniform radial grid of dG=0.02 with 432 points.
    2S    l: 0   occupation:  2.0   eigenvalue: -0.505335
    2P    l: 1   occupation:  2.0   eigenvalue: -0.194238
  Transforming atomic orbitals to a uniform radial grid of dG=0.02 with 432 points.
  Core radius for overlap checks: 1.23 bohrs.
  Reading pulay file /home/gridsan/aligho/DFT/build-Nov24/pseudopotentials/SG15/C_ONCV_PBE.pulay ... using dE_dnG = -9.239532e-03 computed for Ecut = 20.

Reading pseudopotential file '/home/gridsan/aligho/DFT/build-Nov24/pseudopotentials/SG15/N_ONCV_PBE.upf':
  'N' pseudopotential, 'PBE' functional
  Generated using ONCVPSP code by D. R. Hamann
  Author: Martin Schlipf and Francois Gygi  Date: 150915.
  5 valence electrons, 2 orbitals, 4 projectors, 1058 radial grid points, with lMax = 1
  Transforming local potential to a uniform radial grid of dG=0.02 with 1502 points.
  Transforming nonlocal projectors to a uniform radial grid of dG=0.02 with 432 points.
    2S    l: 0   occupation:  2.0   eigenvalue: -0.682907
    2P    l: 1   occupation:  3.0   eigenvalue: -0.260548
  Transforming atomic orbitals to a uniform radial grid of dG=0.02 with 432 points.
  Core radius for overlap checks: 1.35 bohrs.
  Reading pulay file /home/gridsan/aligho/DFT/build-Nov24/pseudopotentials/SG15/N_ONCV_PBE.pulay ... using dE_dnG = -2.956256e-02 computed for Ecut = 20.

Reading pseudopotential file '/home/gridsan/aligho/DFT/build-Nov24/pseudopotentials/SG15/B_ONCV_PBE.upf':
  'B' pseudopotential, 'PBE' functional
  Generated using ONCVPSP code by D. R. Hamann
  Author: Martin Schlipf and Francois Gygi  Date: 150915.
  3 valence electrons, 2 orbitals, 4 projectors, 1534 radial grid points, with lMax = 1
  Transforming local potential to a uniform radial grid of dG=0.02 with 1502 points.
  Transforming nonlocal projectors to a uniform radial grid of dG=0.02 with 432 points.
    2S    l: 0   occupation:  2.0   eigenvalue: -0.347027
    2P    l: 1   occupation:  1.0   eigenvalue: -0.132548
  Transforming atomic orbitals to a uniform radial grid of dG=0.02 with 432 points.
  Core radius for overlap checks: 1.60 bohrs.
  Reading pulay file /home/gridsan/aligho/DFT/build-Nov24/pseudopotentials/SG15/B_ONCV_PBE.pulay ... using dE_dnG = -3.748568e-04 computed for Ecut = 20.

Initialized 3 species with 8 total atoms.

Folded 1 k-points by 12x12x1 to 144 k-points.

---------- Setting up k-points, bands, fillings ----------
Adding inversion symmetry to k-mesh for non-inversion-symmetric unit cell.
Reduced to 19 k-points under symmetry. 
Computing the number of bands and number of electrons
Calculating initial fillings.
nElectrons:  33.000000   nBands: 32   nStates: 38

----- Setting up reduced wavefunction bases (one per k-point) -----
average nbasis = 12955.938 , ideal nbasis = 12955.957

---------- Setting up coulomb interaction ----------
Initialized slab truncation along lattice direction 001

---------- Setting up 2D ewald sum ----------
Optimum gaussian width for ewald sums = 5.194429 bohr.
Real space sums over 289 unit cells with max indices [  8  8  0  ]
Reciprocal space sums over 81 terms with max indices [  4  4  0  ]

---------- Allocating electronic variables ----------
Initializing wave functions:  linear combination of atomic orbitals
C pseudo-atom occupations:   s ( 2 )  p ( 2 )
N pseudo-atom occupations:   s ( 2 )  p ( 3 )
B pseudo-atom occupations:   s ( 2 )  p ( 1 )
[d-6-5-2:68403] 37 more processes have sent help message help-mpi-common-cuda.txt / dlopen failed
[d-6-5-2:68403] Set MCA parameter "orte_base_help_aggregate" to 0 to see all help / error messages
[d-6-5-2:68403] 37 more processes have sent help message help-mpi-btl-openib-cpc-base.txt / no cpcs for port
	FillingsUpdate:  mu: -0.182137396  nElectrons: 33.000000  magneticMoment: [ Abs: 0.32838  Tot: -0.32000 ]
LCAOMinimize: Iter:   0  F: -53.3382391294079596  |grad|_K:  5.495e-03  alpha:  1.000e+00
	FillingsUpdate:  mu: -0.186280169  nElectrons: 33.000000  magneticMoment: [ Abs: 0.32930  Tot: -0.32000 ]
LCAOMinimize: Iter:   1  F: -53.5602068430795484  |grad|_K:  9.879e-04  alpha:  4.241e-01  linmin:  3.535e-01  cgtest: -8.187e-01  t[s]:      6.95
	FillingsUpdate:  mu: -0.181055664  nElectrons: 33.000000  magneticMoment: [ Abs: 0.32991  Tot: -0.32000 ]
LCAOMinimize: Iter:   2  F: -53.5617010710984047  |grad|_K:  8.405e-04  alpha:  2.246e-01  linmin: -6.950e-03  cgtest:  8.987e-01  t[s]:      8.97
LCAOMinimize: Encountered beta<0, resetting CG.
	FillingsUpdate:  mu: -0.180317431  nElectrons: 33.000000  magneticMoment: [ Abs: 0.33080  Tot: -0.32000 ]
LCAOMinimize: Iter:   3  F: -53.5671386126282982  |grad|_K:  9.880e-05  alpha:  3.773e-01  linmin:  9.871e-02  cgtest: -2.568e-01  t[s]:     11.03
	FillingsUpdate:  mu: -0.181335330  nElectrons: 33.000000  magneticMoment: [ Abs: 0.33163  Tot: -0.32000 ]
LCAOMinimize: Iter:   4  F: -53.5672062414883925  |grad|_K:  2.935e-05  alpha:  3.720e-01  linmin:  1.914e-03  cgtest:  3.508e-01  t[s]:     13.06
LCAOMinimize: Encountered beta<0, resetting CG.
	FillingsUpdate:  mu: -0.181436105  nElectrons: 33.000000  magneticMoment: [ Abs: 0.33222  Tot: -0.32000 ]
LCAOMinimize: Iter:   5  F: -53.5672131479794515  |grad|_K:  7.573e-06  alpha:  3.874e-01  linmin: -2.933e-04  cgtest:  1.246e-04  t[s]:     15.10
	FillingsUpdate:  mu: -0.181343320  nElectrons: 33.000000  magneticMoment: [ Abs: 0.33327  Tot: -0.32000 ]
LCAOMinimize: Iter:   6  F: -53.5672141489114537  |grad|_K:  4.540e-06  alpha:  8.431e-01  linmin: -2.484e-04  cgtest:  1.314e-03  t[s]:     17.13
	FillingsUpdate:  mu: -0.181371585  nElectrons: 33.000000  magneticMoment: [ Abs: 0.33379  Tot: -0.32000 ]
LCAOMinimize: Iter:   7  F: -53.5672143921479744  |grad|_K:  1.113e-06  alpha:  5.702e-01  linmin: -5.101e-05  cgtest: -2.822e-03  t[s]:     19.16
	FillingsUpdate:  mu: -0.181384790  nElectrons: 33.000000  magneticMoment: [ Abs: 0.33391  Tot: -0.32000 ]
LCAOMinimize: Iter:   8  F: -53.5672144135690189  |grad|_K:  3.076e-07  alpha:  8.363e-01  linmin:  2.365e-03  cgtest: -8.059e-03  t[s]:     21.22
LCAOMinimize: Converged (|Delta F|<1.000000e-06 for 2 iters).


---- Citations for features of the code used in this run ----

   Software package:
      R. Sundararaman, K. Letchworth-Weaver, K.A. Schwarz, D. Gunceler, Y. Ozhabes and T.A. Arias, 'JDFTx: software for joint density-functional theory', SoftwareX 6, 278 (2017)

   gga-PBE exchange-correlation functional:
      J.P. Perdew, K. Burke and M. Ernzerhof, Phys. Rev. Lett. 77, 3865 (1996)

   Pseudopotentials:
      M Schlipf and F Gygi, Comput. Phys. Commun. 196, 36 (2015)

   Truncated Coulomb potentials:
      R. Sundararaman and T.A. Arias, Phys. Rev. B 87, 165122 (2013)

This list may not be complete. Please suggest additional citations or
report any other bugs at https://github.com/shankar1729/jdftx/issues

Initialization completed successfully at t[s]:     21.43


-------- Electronic minimization -----------
Will mix electronic density at each iteration.
	FillingsUpdate:  mu: -0.181384790  nElectrons: 33.000000  magneticMoment: [ Abs: 0.33391  Tot: -0.32000 ]
	FillingsUpdate:  mu: -0.198361780  nElectrons: 33.000000  magneticMoment: [ Abs: 0.33391  Tot: -0.32000 ]
SCF: Cycle:  0   F: -53.997637636550714   dF: -4.304e-01   |Residual|: 2.313e-01   |deigs|: 1.091e-01  t[s]:     26.16
	FillingsUpdate:  mu: -0.176284609  nElectrons: 33.000000  magneticMoment: [ Abs: 0.34566  Tot: -0.32000 ]
SCF: Cycle:  1   F: -54.017846894927914   dF: -2.021e-02   |Residual|: 1.290e-01   |deigs|: 2.696e-02  t[s]:     29.62
	FillingsUpdate:  mu: -0.145454766  nElectrons: 33.000000  magneticMoment: [ Abs: 0.36030  Tot: -0.32000 ]
SCF: Cycle:  2   F: -54.030569051500294   dF: -1.272e-02   |Residual|: 2.837e-02   |deigs|: 3.121e-02  t[s]:     33.13
	FillingsUpdate:  mu: -0.142042816  nElectrons: 33.000000  magneticMoment: [ Abs: 0.36021  Tot: -0.32000 ]
SCF: Cycle:  3   F: -54.030929021096014   dF: -3.600e-04   |Residual|: 1.598e-02   |deigs|: 8.605e-03  t[s]:     36.67
	FillingsUpdate:  mu: -0.130087488  nElectrons: 33.000000  magneticMoment: [ Abs: 0.34874  Tot: -0.32000 ]
SCF: Cycle:  4   F: -54.031584757652965   dF: -6.557e-04   |Residual|: 8.450e-03   |deigs|: 1.110e-02  t[s]:     40.24
	FillingsUpdate:  mu: -0.125610327  nElectrons: 33.000000  magneticMoment: [ Abs: 0.35217  Tot: -0.32000 ]
SCF: Cycle:  5   F: -54.031742029435840   dF: -1.573e-04   |Residual|: 6.208e-03   |deigs|: 4.447e-03  t[s]:     43.83
	FillingsUpdate:  mu: -0.118896465  nElectrons: 33.000000  magneticMoment: [ Abs: 0.35317  Tot: -0.32000 ]
SCF: Cycle:  6   F: -54.031802183063185   dF: -6.015e-05   |Residual|: 3.983e-03   |deigs|: 6.326e-03  t[s]:     47.46
	FillingsUpdate:  mu: -0.114624302  nElectrons: 33.000000  magneticMoment: [ Abs: 0.35227  Tot: -0.32000 ]
SCF: Cycle:  7   F: -54.031795230398416   dF: +6.953e-06   |Residual|: 3.283e-03   |deigs|: 5.219e-03  t[s]:     51.11
	FillingsUpdate:  mu: -0.110227165  nElectrons: 33.000000  magneticMoment: [ Abs: 0.35255  Tot: -0.32000 ]
SCF: Cycle:  8   F: -54.031819363254023   dF: -2.413e-05   |Residual|: 2.713e-03   |deigs|: 4.570e-03  t[s]:     54.78
	FillingsUpdate:  mu: -0.107280086  nElectrons: 33.000000  magneticMoment: [ Abs: 0.35117  Tot: -0.32000 ]
SCF: Cycle:  9   F: -54.031839406780158   dF: -2.004e-05   |Residual|: 2.055e-03   |deigs|: 3.182e-03  t[s]:     58.50
	FillingsUpdate:  mu: -0.104876354  nElectrons: 33.000000  magneticMoment: [ Abs: 0.35214  Tot: -0.32000 ]
SCF: Cycle: 10   F: -54.031852397892884   dF: -1.299e-05   |Residual|: 1.804e-03   |deigs|: 2.477e-03  t[s]:     62.23
	FillingsUpdate:  mu: -0.101704864  nElectrons: 33.000000  magneticMoment: [ Abs: 0.35244  Tot: -0.32000 ]
SCF: Cycle: 11   F: -54.031862330038173   dF: -9.932e-06   |Residual|: 1.419e-03   |deigs|: 3.016e-03  t[s]:     65.97
	FillingsUpdate:  mu: -0.099211199  nElectrons: 33.000000  magneticMoment: [ Abs: 0.35161  Tot: -0.32000 ]
SCF: Cycle: 12   F: -54.031865773434248   dF: -3.443e-06   |Residual|: 1.300e-03   |deigs|: 2.312e-03  t[s]:     69.70
	FillingsUpdate:  mu: -0.095301547  nElectrons: 33.000000  magneticMoment: [ Abs: 0.35290  Tot: -0.32000 ]
SCF: Cycle: 13   F: -54.031867597358165   dF: -1.824e-06   |Residual|: 1.129e-03   |deigs|: 3.693e-03  t[s]:     73.44
	FillingsUpdate:  mu: -0.092348684  nElectrons: 33.000000  magneticMoment: [ Abs: 0.35161  Tot: -0.32000 ]
SCF: Cycle: 14   F: -54.031867439390844   dF: +1.580e-07   |Residual|: 1.103e-03   |deigs|: 2.637e-03  t[s]:     77.18
	FillingsUpdate:  mu: -0.088234271  nElectrons: 33.000000  magneticMoment: [ Abs: 0.35232  Tot: -0.32000 ]
SCF: Cycle: 15   F: -54.031867477433501   dF: -3.804e-08   |Residual|: 9.673e-04   |deigs|: 3.788e-03  t[s]:     80.92
	FillingsUpdate:  mu: -0.084415416  nElectrons: 33.000000  magneticMoment: [ Abs: 0.35218  Tot: -0.32000 ]
SCF: Cycle: 16   F: -54.031868432605116   dF: -9.552e-07   |Residual|: 7.986e-04   |deigs|: 3.650e-03  t[s]:     84.62
	FillingsUpdate:  mu: -0.082033280  nElectrons: 33.000000  magneticMoment: [ Abs: 0.35147  Tot: -0.32000 ]
SCF: Cycle: 17   F: -54.031871017623601   dF: -2.585e-06   |Residual|: 5.838e-04   |deigs|: 2.094e-03  t[s]:     88.33
	FillingsUpdate:  mu: -0.080584493  nElectrons: 33.000000  magneticMoment: [ Abs: 0.35125  Tot: -0.32000 ]
SCF: Cycle: 18   F: -54.031872754100931   dF: -1.736e-06   |Residual|: 3.423e-04   |deigs|: 1.338e-03  t[s]:     92.04
	FillingsUpdate:  mu: -0.080138762  nElectrons: 33.000000  magneticMoment: [ Abs: 0.35116  Tot: -0.32000 ]
SCF: Cycle: 19   F: -54.031873297077119   dF: -5.430e-07   |Residual|: 1.969e-04   |deigs|: 5.940e-04  t[s]:     95.76
	FillingsUpdate:  mu: -0.079996975  nElectrons: 33.000000  magneticMoment: [ Abs: 0.35093  Tot: -0.32000 ]
SCF: Cycle: 20   F: -54.031873373669285   dF: -7.659e-08   |Residual|: 1.192e-04   |deigs|: 4.033e-04  t[s]:     99.49
	FillingsUpdate:  mu: -0.079922612  nElectrons: 33.000000  magneticMoment: [ Abs: 0.35092  Tot: -0.32000 ]
SCF: Cycle: 21   F: -54.031873384917169   dF: -1.125e-08   |Residual|: 7.038e-05   |deigs|: 2.639e-04  t[s]:    103.19
	FillingsUpdate:  mu: -0.079868346  nElectrons: 33.000000  magneticMoment: [ Abs: 0.35091  Tot: -0.32000 ]
SCF: Cycle: 22   F: -54.031873394754861   dF: -9.838e-09   |Residual|: 3.613e-05   |deigs|: 3.032e-04  t[s]:    106.95
	FillingsUpdate:  mu: -0.079842141  nElectrons: 33.000000  magneticMoment: [ Abs: 0.35087  Tot: -0.32000 ]
SCF: Cycle: 23   F: -54.031873402674201   dF: -7.919e-09   |Residual|: 2.212e-05   |deigs|: 3.992e-04  t[s]:    110.67
SCF: Converged (|Delta E|<1.000000e-08 for 2 iters).


# Ionic positions in lattice coordinates:
ion C  -0.000000000000000   0.000000000000000   0.000000000000000 1
ion N   0.164313074529992   0.328626149059985   0.000000000000000 1
ion N   0.164313074529992   0.835686925470008   0.000000000000000 1
ion N   0.666666666666667   0.333333333333333   0.000000000000000 1
ion N   0.671373850940015   0.835686925470008   0.000000000000000 1
ion B  -0.001576660817548   0.499211669591226   0.000000000000000 1
ion B   0.500788330408774   0.001576660817548   0.000000000000000 1
ion B   0.500788330408774   0.499211669591226   0.000000000000000 1

# Forces in Lattice coordinates:
force C   0.000000000000000   0.000000000000000   0.000000000000000 1
force N   0.000000000000000  -0.037747693520592   0.000000000000000 1
force N  -0.037747693520593   0.037747693520592   0.000000000000000 1
force N   0.000000000000000  -0.000000000000000   0.000000000000000 1
force N   0.037747693520594  -0.000000000000000   0.000000000000000 1
force B   0.007687081159652  -0.000000000000000  -0.000000000000000 1
force B   0.000000000000000  -0.007687081159652   0.000000000000000 1
force B  -0.007687081159652   0.007687081159652  -0.000000000000000 1

# Energy components:
   Eewald =      -85.5148968124686775
       EH =      -43.5305439889931876
     Eloc =       54.1365151430347211
      Enl =       -2.2702412320252243
   Epulay =       -0.0000008322926719
      Exc =      -15.3362376165748238
       KE =       38.4835327345773806
-------------------------------------
     Etot =      -54.0318726047424747
       TS =        0.0000007979317246
-------------------------------------
        F =      -54.0318734026742007

IonicMinimize: Iter:   0  F: -54.031873402674201  |grad|_K:  1.681e-03  t[s]:    111.00
IonicMinimize: None of the convergence criteria satisfied after 0 iterations.

#--- Lowdin population analysis ---
# oxidation-state C +0.257
# magnetic-moments C -0.175
# oxidation-state N -0.255 -0.255 -0.381 -0.255
# magnetic-moments N +0.000 +0.000 -0.008 +0.000
# oxidation-state B +0.403 +0.403 +0.403
# magnetic-moments B -0.044 -0.044 -0.044


Dumping 'BN22BC--0.32.fillings' ... done
Dumping 'BN22BC--0.32.wfns' ... done
Dumping 'BN22BC--0.32.n_up' ... done
Dumping 'BN22BC--0.32.n_dn' ... done
Dumping 'BN22BC--0.32.eigenvals' ... done
End date and time: Sun Jan 30 23:09:14 2022  (Duration: 0-0:01:59.79)
Done!
