magnetization is -0.94
--------------------------------------------------------------------------
The library attempted to open the following supporting CUDA libraries,
but each of them failed.  CUDA-aware support is disabled.
libcuda.so.1: cannot open shared object file: No such file or directory
libcuda.dylib: cannot open shared object file: No such file or directory
/usr/lib64/libcuda.so.1: cannot open shared object file: No such file or directory
/usr/lib64/libcuda.dylib: cannot open shared object file: No such file or directory
If you are not interested in CUDA-aware support, then run with
--mca opal_warn_on_missing_libcuda 0 to suppress this message.  If you are interested
in CUDA-aware support, then try setting LD_LIBRARY_PATH to the location
of libcuda.so.1 to get passed this issue.
--------------------------------------------------------------------------
--------------------------------------------------------------------------
No OpenFabrics connection schemes reported that they were able to be
used on a specific port.  As such, the openib BTL (OpenFabrics
support) will be disabled for this port.

  Local host:           d-4-11-1
  Local device:         mlx5_1
  Local port:           1
  CPCs attempted:       rdmacm, udcm
--------------------------------------------------------------------------

*************** JDFTx 1.6.0 (git hash 42ebbcc2) ***************

Start date and time: Sun Jan 30 23:05:12 2022
Executable jdftx with command-line: -i BN22BC.in
Running on hosts (process indices):  d-4-11-1 (0-37)
Divided in process groups (process indices):  0 (0)  1 (1)  2 (2)  3 (3)  4 (4)  5 (5)  6 (6)  7 (7)  8 (8)  9 (9)  10 (10)  11 (11)  12 (12)  13 (13)  14 (14)  15 (15)  16 (16)  17 (17)  18 (18)  19 (19)  20 (20)  21 (21)  22 (22)  23 (23)  24 (24)  25 (25)  26 (26)  27 (27)  28 (28)  29 (29)  30 (30)  31 (31)  32 (32)  33 (33)  34 (34)  35 (35)  36 (36)  37 (37)
Resource initialization completed at t[s]:      0.00
Run totals: 38 processes, 48 threads, 0 GPUs


Input parsed successfully to the following command list (including defaults):

basis kpoint-dependent
coords-type Lattice
core-overlap-check vector
coulomb-interaction Slab 001
davidson-band-ratio 1.1
dump End State ElecDensity BandEigs
dump-name BN22BC--0.94.$VAR
elec-cutoff 20
elec-eigen-algo Davidson
elec-ex-corr gga-PBE
elec-initial-magnetization -0.940000 yes
elec-smearing Fermi 1e-05
electronic-minimize  \
	dirUpdateScheme      FletcherReeves \
	linminMethod         DirUpdateRecommended \
	nIterations          100 \
	history              15 \
	knormThreshold       0 \
	energyDiffThreshold  1e-08 \
	nEnergyDiff          2 \
	alphaTstart          1 \
	alphaTmin            1e-10 \
	updateTestStepSize   yes \
	alphaTreduceFactor   0.1 \
	alphaTincreaseFactor 3 \
	nAlphaAdjustMax      3 \
	wolfeEnergy          0.0001 \
	wolfeGradient        0.9 \
	fdTest               no
electronic-scf  \
	nIterations	1000 \
	energyDiffThreshold	1e-08 \
	residualThreshold	1e-07 \
	mixFraction	0.5 \
	qMetric	0.8 \
	history	10 \
	nEigSteps	2 \
	eigDiffThreshold	1e-08 \
	mixedVariable	Density \
	qKerker	0.8 \
	qKappa	-1 \
	verbose	no \
	mixFractionMag	1.5
exchange-regularization WignerSeitzTruncated
fluid None
fluid-ex-corr (null) lda-PZ
fluid-gummel-loop 10 1.000000e-05
fluid-minimize  \
	dirUpdateScheme      PolakRibiere \
	linminMethod         DirUpdateRecommended \
	nIterations          100 \
	history              15 \
	knormThreshold       0 \
	energyDiffThreshold  0 \
	nEnergyDiff          2 \
	alphaTstart          1 \
	alphaTmin            1e-10 \
	updateTestStepSize   yes \
	alphaTreduceFactor   0.1 \
	alphaTincreaseFactor 3 \
	nAlphaAdjustMax      3 \
	wolfeEnergy          0.0001 \
	wolfeGradient        0.9 \
	fdTest               no
fluid-solvent H2O 55.338 ScalarEOS \
	epsBulk 78.4 \
	pMol 0.92466 \
	epsInf 1.77 \
	Pvap 1.06736e-10 \
	sigmaBulk 4.62e-05 \
	Rvdw 2.61727 \
	Res 1.42 \
	tauNuc 343133 \
	poleEl 15 7 1
forces-output-coords Positions
ion C   0.000000000000000  -0.000000000000000   0.000000000000000 1
ion N   0.164313074529992   0.328626149059985   0.000000000000000 1
ion N   0.164313074529992   0.835686925470008   0.000000000000000 1
ion N   0.666666666666667   0.333333333333333   0.000000000000000 1
ion N   0.671373850940015   0.835686925470008   0.000000000000000 1
ion B  -0.001576660817548   0.499211669591226   0.000000000000000 1
ion B   0.500788330408774   0.001576660817548   0.000000000000000 1
ion B   0.500788330408774   0.499211669591226   0.000000000000000 1
ion-species SG15/$ID_ONCV_PBE.upf
ion-width 0
ionic-minimize  \
	dirUpdateScheme      L-BFGS \
	linminMethod         DirUpdateRecommended \
	nIterations          0 \
	history              15 \
	knormThreshold       0.0001 \
	energyDiffThreshold  1e-06 \
	nEnergyDiff          2 \
	alphaTstart          1 \
	alphaTmin            1e-10 \
	updateTestStepSize   yes \
	alphaTreduceFactor   0.1 \
	alphaTincreaseFactor 3 \
	nAlphaAdjustMax      3 \
	wolfeEnergy          0.0001 \
	wolfeGradient        0.9 \
	fdTest               no
kpoint   0.000000000000   0.000000000000   0.000000000000  1.00000000000000
kpoint-folding 12 12 1 
latt-move-scale 1 1 1
latt-scale 1 1 1 
lattice  \
	   9.356640512437433   -4.678320256218713    0.000000000000000  \
	  -0.000000000000000    8.103088377849462    0.000000000000000  \
	   0.000000000000000    0.000000000000000   40.000000000000000 
lattice-minimize  \
	dirUpdateScheme      L-BFGS \
	linminMethod         DirUpdateRecommended \
	nIterations          0 \
	history              15 \
	knormThreshold       0 \
	energyDiffThreshold  1e-06 \
	nEnergyDiff          2 \
	alphaTstart          1 \
	alphaTmin            1e-10 \
	updateTestStepSize   yes \
	alphaTreduceFactor   0.1 \
	alphaTincreaseFactor 3 \
	nAlphaAdjustMax      3 \
	wolfeEnergy          0.0001 \
	wolfeGradient        0.9 \
	fdTest               no
lcao-params -1 1e-06 1e-05
pcm-variant GLSSA13
spintype z-spin
subspace-rotation-factor 1 yes
symmetries automatic
symmetry-threshold 0.0001



---------- Setting up symmetries ----------

Found 24 point-group symmetries of the bravais lattice
Found 12 space-group symmetries with basis
Applied RMS atom displacement 3.80214e-15 bohrs to make symmetries exact.

---------- Initializing the Grid ----------
R = 
[      9.35664     -4.67832            0  ]
[            0      8.10309            0  ]
[            0            0           40  ]
unit cell volume = 3032.71
G =
[   0.671522   0.387703         -0  ]
[          0   0.775406         -0  ]
[         -0         -0    0.15708  ]
Minimum fftbox size, Smin = [  40  40  164  ]
Chosen fftbox size, S = [  40  40  168  ]

---------- Exchange Correlation functional ----------
Initalized PBE GGA exchange.
Initalized PBE GGA correlation.

---------- Setting up pseudopotentials ----------
Width of ionic core gaussian charges (only for fluid interactions / plotting) set to 0

Reading pseudopotential file '/home/gridsan/aligho/DFT/build-Nov24/pseudopotentials/SG15/C_ONCV_PBE.upf':
  'C' pseudopotential, 'PBE' functional
  Generated using ONCVPSP code by D. R. Hamann
  Author: Martin Schlipf and Francois Gygi  Date: 150915.
  4 valence electrons, 2 orbitals, 4 projectors, 1248 radial grid points, with lMax = 1
  Transforming local potential to a uniform radial grid of dG=0.02 with 1502 points.
  Transforming nonlocal projectors to a uniform radial grid of dG=0.02 with 432 points.
    2S    l: 0   occupation:  2.0   eigenvalue: -0.505335
    2P    l: 1   occupation:  2.0   eigenvalue: -0.194238
  Transforming atomic orbitals to a uniform radial grid of dG=0.02 with 432 points.
  Core radius for overlap checks: 1.23 bohrs.
  Reading pulay file /home/gridsan/aligho/DFT/build-Nov24/pseudopotentials/SG15/C_ONCV_PBE.pulay ... using dE_dnG = -9.239532e-03 computed for Ecut = 20.

Reading pseudopotential file '/home/gridsan/aligho/DFT/build-Nov24/pseudopotentials/SG15/N_ONCV_PBE.upf':
  'N' pseudopotential, 'PBE' functional
  Generated using ONCVPSP code by D. R. Hamann
  Author: Martin Schlipf and Francois Gygi  Date: 150915.
  5 valence electrons, 2 orbitals, 4 projectors, 1058 radial grid points, with lMax = 1
  Transforming local potential to a uniform radial grid of dG=0.02 with 1502 points.
  Transforming nonlocal projectors to a uniform radial grid of dG=0.02 with 432 points.
    2S    l: 0   occupation:  2.0   eigenvalue: -0.682907
    2P    l: 1   occupation:  3.0   eigenvalue: -0.260548
  Transforming atomic orbitals to a uniform radial grid of dG=0.02 with 432 points.
  Core radius for overlap checks: 1.35 bohrs.
  Reading pulay file /home/gridsan/aligho/DFT/build-Nov24/pseudopotentials/SG15/N_ONCV_PBE.pulay ... using dE_dnG = -2.956256e-02 computed for Ecut = 20.

Reading pseudopotential file '/home/gridsan/aligho/DFT/build-Nov24/pseudopotentials/SG15/B_ONCV_PBE.upf':
  'B' pseudopotential, 'PBE' functional
  Generated using ONCVPSP code by D. R. Hamann
  Author: Martin Schlipf and Francois Gygi  Date: 150915.
  3 valence electrons, 2 orbitals, 4 projectors, 1534 radial grid points, with lMax = 1
  Transforming local potential to a uniform radial grid of dG=0.02 with 1502 points.
  Transforming nonlocal projectors to a uniform radial grid of dG=0.02 with 432 points.
    2S    l: 0   occupation:  2.0   eigenvalue: -0.347027
    2P    l: 1   occupation:  1.0   eigenvalue: -0.132548
  Transforming atomic orbitals to a uniform radial grid of dG=0.02 with 432 points.
  Core radius for overlap checks: 1.60 bohrs.
  Reading pulay file /home/gridsan/aligho/DFT/build-Nov24/pseudopotentials/SG15/B_ONCV_PBE.pulay ... using dE_dnG = -3.748568e-04 computed for Ecut = 20.

Initialized 3 species with 8 total atoms.

Folded 1 k-points by 12x12x1 to 144 k-points.

---------- Setting up k-points, bands, fillings ----------
Adding inversion symmetry to k-mesh for non-inversion-symmetric unit cell.
Reduced to 19 k-points under symmetry. 
Computing the number of bands and number of electrons
Calculating initial fillings.
nElectrons:  33.000000   nBands: 32   nStates: 38

----- Setting up reduced wavefunction bases (one per k-point) -----
average nbasis = 12955.938 , ideal nbasis = 12955.957

---------- Setting up coulomb interaction ----------
Initialized slab truncation along lattice direction 001

---------- Setting up 2D ewald sum ----------
Optimum gaussian width for ewald sums = 5.194429 bohr.
Real space sums over 289 unit cells with max indices [  8  8  0  ]
Reciprocal space sums over 81 terms with max indices [  4  4  0  ]

---------- Allocating electronic variables ----------
Initializing wave functions:  linear combination of atomic orbitals
C pseudo-atom occupations:   s ( 2 )  p ( 2 )
N pseudo-atom occupations:   s ( 2 )  p ( 3 )
B pseudo-atom occupations:   s ( 2 )  p ( 1 )
[d-4-11-1:64403] 37 more processes have sent help message help-mpi-common-cuda.txt / dlopen failed
[d-4-11-1:64403] Set MCA parameter "orte_base_help_aggregate" to 0 to see all help / error messages
[d-4-11-1:64403] 37 more processes have sent help message help-mpi-btl-openib-cpc-base.txt / no cpcs for port
	FillingsUpdate:  mu: -0.180659795  nElectrons: 33.000000  magneticMoment: [ Abs: 0.96582  Tot: -0.94000 ]
LCAOMinimize: Iter:   0  F: -53.3644441991821168  |grad|_K:  5.218e-03  alpha:  1.000e+00
	FillingsUpdate:  mu: -0.181039451  nElectrons: 33.000000  magneticMoment: [ Abs: 0.97133  Tot: -0.94000 ]
LCAOMinimize: Iter:   1  F: -53.5652453271005271  |grad|_K:  9.025e-04  alpha:  4.286e-01  linmin:  3.137e-01  cgtest: -7.799e-01  t[s]:      7.21
	FillingsUpdate:  mu: -0.176371061  nElectrons: 33.000000  magneticMoment: [ Abs: 0.97387  Tot: -0.94000 ]
LCAOMinimize: Iter:   2  F: -53.5668661222787392  |grad|_K:  7.262e-04  alpha:  2.550e-01  linmin:  6.730e-04  cgtest:  8.553e-01  t[s]:      9.21
LCAOMinimize: Encountered beta<0, resetting CG.
	FillingsUpdate:  mu: -0.176074686  nElectrons: 33.000000  magneticMoment: [ Abs: 0.97677  Tot: -0.94000 ]
LCAOMinimize: Iter:   3  F: -53.5710012433028311  |grad|_K:  9.236e-05  alpha:  3.825e-01  linmin:  7.513e-02  cgtest: -1.683e-01  t[s]:     11.21
	FillingsUpdate:  mu: -0.176835364  nElectrons: 33.000000  magneticMoment: [ Abs: 0.97971  Tot: -0.94000 ]
LCAOMinimize: Iter:   4  F: -53.5710657943132986  |grad|_K:  2.486e-05  alpha:  3.866e-01  linmin:  2.699e-03  cgtest:  1.940e-01  t[s]:     13.20
	FillingsUpdate:  mu: -0.176820100  nElectrons: 33.000000  magneticMoment: [ Abs: 0.98285  Tot: -0.94000 ]
LCAOMinimize: Iter:   5  F: -53.5710734223153935  |grad|_K:  1.430e-05  alpha:  5.964e-01  linmin: -9.019e-04  cgtest:  3.583e-03  t[s]:     15.20
	FillingsUpdate:  mu: -0.176698206  nElectrons: 33.000000  magneticMoment: [ Abs: 0.98635  Tot: -0.94000 ]
LCAOMinimize: Iter:   6  F: -53.5710764476875809  |grad|_K:  6.218e-06  alpha:  7.135e-01  linmin: -1.173e-03  cgtest: -4.176e-03  t[s]:     17.20
	FillingsUpdate:  mu: -0.176738360  nElectrons: 33.000000  magneticMoment: [ Abs: 0.98718  Tot: -0.94000 ]
LCAOMinimize: Iter:   7  F: -53.5710768182225081  |grad|_K:  1.120e-06  alpha:  4.624e-01  linmin: -3.538e-05  cgtest: -1.047e-02  t[s]:     19.19
	FillingsUpdate:  mu: -0.176747879  nElectrons: 33.000000  magneticMoment: [ Abs: 0.98743  Tot: -0.94000 ]
LCAOMinimize: Iter:   8  F: -53.5710768375615700  |grad|_K:  4.803e-07  alpha:  7.477e-01  linmin:  1.614e-03  cgtest: -4.779e-03  t[s]:     21.21
LCAOMinimize: Converged (|Delta F|<1.000000e-06 for 2 iters).


---- Citations for features of the code used in this run ----

   Software package:
      R. Sundararaman, K. Letchworth-Weaver, K.A. Schwarz, D. Gunceler, Y. Ozhabes and T.A. Arias, 'JDFTx: software for joint density-functional theory', SoftwareX 6, 278 (2017)

   gga-PBE exchange-correlation functional:
      J.P. Perdew, K. Burke and M. Ernzerhof, Phys. Rev. Lett. 77, 3865 (1996)

   Pseudopotentials:
      M Schlipf and F Gygi, Comput. Phys. Commun. 196, 36 (2015)

   Truncated Coulomb potentials:
      R. Sundararaman and T.A. Arias, Phys. Rev. B 87, 165122 (2013)

This list may not be complete. Please suggest additional citations or
report any other bugs at https://github.com/shankar1729/jdftx/issues

Initialization completed successfully at t[s]:     21.40


-------- Electronic minimization -----------
Will mix electronic density at each iteration.
	FillingsUpdate:  mu: -0.176747879  nElectrons: 33.000000  magneticMoment: [ Abs: 0.98743  Tot: -0.94000 ]
	FillingsUpdate:  mu: -0.193642090  nElectrons: 33.000000  magneticMoment: [ Abs: 0.98743  Tot: -0.94000 ]
SCF: Cycle:  0   F: -54.001305769715792   dF: -4.302e-01   |Residual|: 2.324e-01   |deigs|: 1.093e-01  t[s]:     26.03
	FillingsUpdate:  mu: -0.172320480  nElectrons: 33.000000  magneticMoment: [ Abs: 1.02435  Tot: -0.94000 ]
SCF: Cycle:  1   F: -54.020950305421273   dF: -1.964e-02   |Residual|: 1.296e-01   |deigs|: 2.693e-02  t[s]:     29.42
	FillingsUpdate:  mu: -0.142854561  nElectrons: 33.000000  magneticMoment: [ Abs: 1.04197  Tot: -0.94000 ]
SCF: Cycle:  2   F: -54.033594553235922   dF: -1.264e-02   |Residual|: 2.856e-02   |deigs|: 3.119e-02  t[s]:     32.84
	FillingsUpdate:  mu: -0.139727125  nElectrons: 33.000000  magneticMoment: [ Abs: 1.04665  Tot: -0.94000 ]
SCF: Cycle:  3   F: -54.033963963905158   dF: -3.694e-04   |Residual|: 1.632e-02   |deigs|: 8.816e-03  t[s]:     36.30
	FillingsUpdate:  mu: -0.129411777  nElectrons: 33.000000  magneticMoment: [ Abs: 1.02909  Tot: -0.94000 ]
SCF: Cycle:  4   F: -54.034542834614776   dF: -5.789e-04   |Residual|: 8.654e-03   |deigs|: 9.846e-03  t[s]:     39.78
	FillingsUpdate:  mu: -0.123798021  nElectrons: 33.000000  magneticMoment: [ Abs: 1.03362  Tot: -0.94000 ]
SCF: Cycle:  5   F: -54.034760526556433   dF: -2.177e-04   |Residual|: 6.696e-03   |deigs|: 5.216e-03  t[s]:     43.28
	FillingsUpdate:  mu: -0.117747041  nElectrons: 33.000000  magneticMoment: [ Abs: 1.03344  Tot: -0.94000 ]
SCF: Cycle:  6   F: -54.034831083036615   dF: -7.056e-05   |Residual|: 4.375e-03   |deigs|: 5.541e-03  t[s]:     46.84
	FillingsUpdate:  mu: -0.112643893  nElectrons: 33.000000  magneticMoment: [ Abs: 1.03126  Tot: -0.94000 ]
SCF: Cycle:  7   F: -54.034826518211062   dF: +4.565e-06   |Residual|: 3.343e-03   |deigs|: 6.333e-03  t[s]:     50.41
	FillingsUpdate:  mu: -0.108620160  nElectrons: 33.000000  magneticMoment: [ Abs: 1.03228  Tot: -0.94000 ]
SCF: Cycle:  8   F: -54.034845575537396   dF: -1.906e-05   |Residual|: 2.896e-03   |deigs|: 4.198e-03  t[s]:     54.01
	FillingsUpdate:  mu: -0.105196108  nElectrons: 33.000000  magneticMoment: [ Abs: 1.02895  Tot: -0.94000 ]
SCF: Cycle:  9   F: -54.034868539737523   dF: -2.296e-05   |Residual|: 2.094e-03   |deigs|: 3.666e-03  t[s]:     57.61
	FillingsUpdate:  mu: -0.102956330  nElectrons: 33.000000  magneticMoment: [ Abs: 1.02915  Tot: -0.94000 ]
SCF: Cycle: 10   F: -54.034882011311616   dF: -1.347e-05   |Residual|: 1.836e-03   |deigs|: 2.318e-03  t[s]:     61.28
	FillingsUpdate:  mu: -0.100193195  nElectrons: 33.000000  magneticMoment: [ Abs: 1.03072  Tot: -0.94000 ]
SCF: Cycle: 11   F: -54.034891163147996   dF: -9.152e-06   |Residual|: 1.464e-03   |deigs|: 2.731e-03  t[s]:     64.94
	FillingsUpdate:  mu: -0.097510958  nElectrons: 33.000000  magneticMoment: [ Abs: 1.03020  Tot: -0.94000 ]
SCF: Cycle: 12   F: -54.034895758934447   dF: -4.596e-06   |Residual|: 1.329e-03   |deigs|: 2.537e-03  t[s]:     68.59
	FillingsUpdate:  mu: -0.094481024  nElectrons: 33.000000  magneticMoment: [ Abs: 1.03004  Tot: -0.94000 ]
SCF: Cycle: 13   F: -54.034897945771881   dF: -2.187e-06   |Residual|: 1.191e-03   |deigs|: 2.797e-03  t[s]:     72.25
	FillingsUpdate:  mu: -0.090729837  nElectrons: 33.000000  magneticMoment: [ Abs: 1.02882  Tot: -0.94000 ]
SCF: Cycle: 14   F: -54.034898010719189   dF: -6.495e-08   |Residual|: 1.103e-03   |deigs|: 3.482e-03  t[s]:     75.91
	FillingsUpdate:  mu: -0.087029845  nElectrons: 33.000000  magneticMoment: [ Abs: 1.02935  Tot: -0.94000 ]
SCF: Cycle: 15   F: -54.034898221474840   dF: -2.108e-07   |Residual|: 1.036e-03   |deigs|: 3.294e-03  t[s]:     79.55
	FillingsUpdate:  mu: -0.083503821  nElectrons: 33.000000  magneticMoment: [ Abs: 1.02960  Tot: -0.94000 ]
SCF: Cycle: 16   F: -54.034899139009489   dF: -9.175e-07   |Residual|: 9.096e-04   |deigs|: 3.235e-03  t[s]:     83.19
	FillingsUpdate:  mu: -0.080624216  nElectrons: 33.000000  magneticMoment: [ Abs: 1.02961  Tot: -0.94000 ]
SCF: Cycle: 17   F: -54.034901161232959   dF: -2.022e-06   |Residual|: 6.754e-04   |deigs|: 2.609e-03  t[s]:     86.82
	FillingsUpdate:  mu: -0.078691866  nElectrons: 33.000000  magneticMoment: [ Abs: 1.02910  Tot: -0.94000 ]
SCF: Cycle: 18   F: -54.034903022681974   dF: -1.861e-06   |Residual|: 4.115e-04   |deigs|: 1.704e-03  t[s]:     90.46
	FillingsUpdate:  mu: -0.077893709  nElectrons: 33.000000  magneticMoment: [ Abs: 1.02887  Tot: -0.94000 ]
SCF: Cycle: 19   F: -54.034903638890768   dF: -6.162e-07   |Residual|: 2.423e-04   |deigs|: 7.651e-04  t[s]:     94.14
	FillingsUpdate:  mu: -0.077479262  nElectrons: 33.000000  magneticMoment: [ Abs: 1.02882  Tot: -0.94000 ]
SCF: Cycle: 20   F: -54.034903838634712   dF: -1.997e-07   |Residual|: 1.360e-04   |deigs|: 6.942e-04  t[s]:     97.80
	FillingsUpdate:  mu: -0.077292760  nElectrons: 33.000000  magneticMoment: [ Abs: 1.02883  Tot: -0.94000 ]
SCF: Cycle: 21   F: -54.034903889676237   dF: -5.104e-08   |Residual|: 7.296e-05   |deigs|: 3.597e-04  t[s]:    101.45
	FillingsUpdate:  mu: -0.077218065  nElectrons: 33.000000  magneticMoment: [ Abs: 1.02881  Tot: -0.94000 ]
SCF: Cycle: 22   F: -54.034903903962338   dF: -1.429e-08   |Residual|: 3.107e-05   |deigs|: 3.190e-04  t[s]:    105.10
	FillingsUpdate:  mu: -0.077193243  nElectrons: 33.000000  magneticMoment: [ Abs: 1.02880  Tot: -0.94000 ]
SCF: Cycle: 23   F: -54.034903910988177   dF: -7.026e-09   |Residual|: 1.354e-05   |deigs|: 4.265e-04  t[s]:    108.77
	FillingsUpdate:  mu: -0.077186049  nElectrons: 33.000000  magneticMoment: [ Abs: 1.02879  Tot: -0.94000 ]
SCF: Cycle: 24   F: -54.034903913020997   dF: -2.033e-09   |Residual|: 8.340e-06   |deigs|: 3.655e-04  t[s]:    112.42
SCF: Converged (|Delta E|<1.000000e-08 for 2 iters).


# Ionic positions in lattice coordinates:
ion C  -0.000000000000000   0.000000000000000   0.000000000000000 1
ion N   0.164313074529992   0.328626149059985   0.000000000000000 1
ion N   0.164313074529992   0.835686925470008   0.000000000000000 1
ion N   0.666666666666667   0.333333333333333   0.000000000000000 1
ion N   0.671373850940015   0.835686925470008   0.000000000000000 1
ion B  -0.001576660817548   0.499211669591226   0.000000000000000 1
ion B   0.500788330408774   0.001576660817548   0.000000000000000 1
ion B   0.500788330408774   0.499211669591226   0.000000000000000 1

# Forces in Lattice coordinates:
force C   0.000000000000000   0.000000000000000   0.000000000000000 1
force N   0.000000000000000  -0.005637515634550   0.000000000000000 1
force N  -0.005637515634551   0.005637515634549   0.000000000000000 1
force N   0.000000000000000   0.000000000000000   0.000000000000000 1
force N   0.005637515634551   0.000000000000000   0.000000000000000 1
force B   0.002283647464287   0.000000000000000   0.000000000000000 1
force B   0.000000000000000  -0.002283647464287   0.000000000000000 1
force B  -0.002283647464287   0.002283647464287   0.000000000000000 1

# Energy components:
   Eewald =      -85.5148968124686775
       EH =      -43.4695828757386238
     Eloc =       54.0540161232105731
      Enl =       -2.2832417354142382
   Epulay =       -0.0000008322926719
      Exc =      -15.3547822228241984
       KE =       38.5335849484882615
-------------------------------------
     Etot =      -54.0349034070395717
       TS =        0.0000005059814233
-------------------------------------
        F =      -54.0349039130209974

IonicMinimize: Iter:   0  F: -54.034903913020997  |grad|_K:  2.654e-04  t[s]:    112.75
IonicMinimize: None of the convergence criteria satisfied after 0 iterations.

#--- Lowdin population analysis ---
# oxidation-state C +0.279
# magnetic-moments C -0.527
# oxidation-state N -0.266 -0.266 -0.382 -0.266
# magnetic-moments N -0.002 -0.002 -0.033 -0.002
# oxidation-state B +0.405 +0.405 +0.405
# magnetic-moments B -0.117 -0.117 -0.117


Dumping 'BN22BC--0.94.fillings' ... done
Dumping 'BN22BC--0.94.wfns' ... done
Dumping 'BN22BC--0.94.n_up' ... done
Dumping 'BN22BC--0.94.n_dn' ... done
Dumping 'BN22BC--0.94.eigenvals' ... done
End date and time: Sun Jan 30 23:07:06 2022  (Duration: 0-0:01:54.79)
Done!
