magnetization is -0.98
--------------------------------------------------------------------------
The library attempted to open the following supporting CUDA libraries,
but each of them failed.  CUDA-aware support is disabled.
libcuda.so.1: cannot open shared object file: No such file or directory
libcuda.dylib: cannot open shared object file: No such file or directory
/usr/lib64/libcuda.so.1: cannot open shared object file: No such file or directory
/usr/lib64/libcuda.dylib: cannot open shared object file: No such file or directory
If you are not interested in CUDA-aware support, then run with
--mca opal_warn_on_missing_libcuda 0 to suppress this message.  If you are interested
in CUDA-aware support, then try setting LD_LIBRARY_PATH to the location
of libcuda.so.1 to get passed this issue.
--------------------------------------------------------------------------
--------------------------------------------------------------------------
No OpenFabrics connection schemes reported that they were able to be
used on a specific port.  As such, the openib BTL (OpenFabrics
support) will be disabled for this port.

  Local host:           d-4-15-4
  Local device:         mlx5_1
  Local port:           1
  CPCs attempted:       rdmacm, udcm
--------------------------------------------------------------------------

*************** JDFTx 1.6.0 (git hash 42ebbcc2) ***************

Start date and time: Sun Jan 30 23:05:12 2022
Executable jdftx with command-line: -i BN22BC.in
Running on hosts (process indices):  d-4-15-4 (0-37)
Divided in process groups (process indices):  0 (0)  1 (1)  2 (2)  3 (3)  4 (4)  5 (5)  6 (6)  7 (7)  8 (8)  9 (9)  10 (10)  11 (11)  12 (12)  13 (13)  14 (14)  15 (15)  16 (16)  17 (17)  18 (18)  19 (19)  20 (20)  21 (21)  22 (22)  23 (23)  24 (24)  25 (25)  26 (26)  27 (27)  28 (28)  29 (29)  30 (30)  31 (31)  32 (32)  33 (33)  34 (34)  35 (35)  36 (36)  37 (37)
Resource initialization completed at t[s]:      0.00
Run totals: 38 processes, 48 threads, 0 GPUs


Input parsed successfully to the following command list (including defaults):

basis kpoint-dependent
coords-type Lattice
core-overlap-check vector
coulomb-interaction Slab 001
davidson-band-ratio 1.1
dump End State ElecDensity BandEigs
dump-name BN22BC--0.98.$VAR
elec-cutoff 20
elec-eigen-algo Davidson
elec-ex-corr gga-PBE
elec-initial-magnetization -0.980000 yes
elec-smearing Fermi 1e-05
electronic-minimize  \
	dirUpdateScheme      FletcherReeves \
	linminMethod         DirUpdateRecommended \
	nIterations          100 \
	history              15 \
	knormThreshold       0 \
	energyDiffThreshold  1e-08 \
	nEnergyDiff          2 \
	alphaTstart          1 \
	alphaTmin            1e-10 \
	updateTestStepSize   yes \
	alphaTreduceFactor   0.1 \
	alphaTincreaseFactor 3 \
	nAlphaAdjustMax      3 \
	wolfeEnergy          0.0001 \
	wolfeGradient        0.9 \
	fdTest               no
electronic-scf  \
	nIterations	1000 \
	energyDiffThreshold	1e-08 \
	residualThreshold	1e-07 \
	mixFraction	0.5 \
	qMetric	0.8 \
	history	10 \
	nEigSteps	2 \
	eigDiffThreshold	1e-08 \
	mixedVariable	Density \
	qKerker	0.8 \
	qKappa	-1 \
	verbose	no \
	mixFractionMag	1.5
exchange-regularization WignerSeitzTruncated
fluid None
fluid-ex-corr (null) lda-PZ
fluid-gummel-loop 10 1.000000e-05
fluid-minimize  \
	dirUpdateScheme      PolakRibiere \
	linminMethod         DirUpdateRecommended \
	nIterations          100 \
	history              15 \
	knormThreshold       0 \
	energyDiffThreshold  0 \
	nEnergyDiff          2 \
	alphaTstart          1 \
	alphaTmin            1e-10 \
	updateTestStepSize   yes \
	alphaTreduceFactor   0.1 \
	alphaTincreaseFactor 3 \
	nAlphaAdjustMax      3 \
	wolfeEnergy          0.0001 \
	wolfeGradient        0.9 \
	fdTest               no
fluid-solvent H2O 55.338 ScalarEOS \
	epsBulk 78.4 \
	pMol 0.92466 \
	epsInf 1.77 \
	Pvap 1.06736e-10 \
	sigmaBulk 4.62e-05 \
	Rvdw 2.61727 \
	Res 1.42 \
	tauNuc 343133 \
	poleEl 15 7 1
forces-output-coords Positions
ion C   0.000000000000000  -0.000000000000000   0.000000000000000 1
ion N   0.164313074529992   0.328626149059985   0.000000000000000 1
ion N   0.164313074529992   0.835686925470008   0.000000000000000 1
ion N   0.666666666666667   0.333333333333333   0.000000000000000 1
ion N   0.671373850940015   0.835686925470008   0.000000000000000 1
ion B  -0.001576660817548   0.499211669591226   0.000000000000000 1
ion B   0.500788330408774   0.001576660817548   0.000000000000000 1
ion B   0.500788330408774   0.499211669591226   0.000000000000000 1
ion-species SG15/$ID_ONCV_PBE.upf
ion-width 0
ionic-minimize  \
	dirUpdateScheme      L-BFGS \
	linminMethod         DirUpdateRecommended \
	nIterations          0 \
	history              15 \
	knormThreshold       0.0001 \
	energyDiffThreshold  1e-06 \
	nEnergyDiff          2 \
	alphaTstart          1 \
	alphaTmin            1e-10 \
	updateTestStepSize   yes \
	alphaTreduceFactor   0.1 \
	alphaTincreaseFactor 3 \
	nAlphaAdjustMax      3 \
	wolfeEnergy          0.0001 \
	wolfeGradient        0.9 \
	fdTest               no
kpoint   0.000000000000   0.000000000000   0.000000000000  1.00000000000000
kpoint-folding 12 12 1 
latt-move-scale 1 1 1
latt-scale 1 1 1 
lattice  \
	   9.356640512437433   -4.678320256218713    0.000000000000000  \
	  -0.000000000000000    8.103088377849462    0.000000000000000  \
	   0.000000000000000    0.000000000000000   40.000000000000000 
lattice-minimize  \
	dirUpdateScheme      L-BFGS \
	linminMethod         DirUpdateRecommended \
	nIterations          0 \
	history              15 \
	knormThreshold       0 \
	energyDiffThreshold  1e-06 \
	nEnergyDiff          2 \
	alphaTstart          1 \
	alphaTmin            1e-10 \
	updateTestStepSize   yes \
	alphaTreduceFactor   0.1 \
	alphaTincreaseFactor 3 \
	nAlphaAdjustMax      3 \
	wolfeEnergy          0.0001 \
	wolfeGradient        0.9 \
	fdTest               no
lcao-params -1 1e-06 1e-05
pcm-variant GLSSA13
spintype z-spin
subspace-rotation-factor 1 yes
symmetries automatic
symmetry-threshold 0.0001



---------- Setting up symmetries ----------

Found 24 point-group symmetries of the bravais lattice
Found 12 space-group symmetries with basis
Applied RMS atom displacement 3.80214e-15 bohrs to make symmetries exact.

---------- Initializing the Grid ----------
R = 
[      9.35664     -4.67832            0  ]
[            0      8.10309            0  ]
[            0            0           40  ]
unit cell volume = 3032.71
G =
[   0.671522   0.387703         -0  ]
[          0   0.775406         -0  ]
[         -0         -0    0.15708  ]
Minimum fftbox size, Smin = [  40  40  164  ]
Chosen fftbox size, S = [  40  40  168  ]

---------- Exchange Correlation functional ----------
Initalized PBE GGA exchange.
Initalized PBE GGA correlation.

---------- Setting up pseudopotentials ----------
Width of ionic core gaussian charges (only for fluid interactions / plotting) set to 0

Reading pseudopotential file '/home/gridsan/aligho/DFT/build-Nov24/pseudopotentials/SG15/C_ONCV_PBE.upf':
  'C' pseudopotential, 'PBE' functional
  Generated using ONCVPSP code by D. R. Hamann
  Author: Martin Schlipf and Francois Gygi  Date: 150915.
  4 valence electrons, 2 orbitals, 4 projectors, 1248 radial grid points, with lMax = 1
  Transforming local potential to a uniform radial grid of dG=0.02 with 1502 points.
  Transforming nonlocal projectors to a uniform radial grid of dG=0.02 with 432 points.
    2S    l: 0   occupation:  2.0   eigenvalue: -0.505335
    2P    l: 1   occupation:  2.0   eigenvalue: -0.194238
  Transforming atomic orbitals to a uniform radial grid of dG=0.02 with 432 points.
  Core radius for overlap checks: 1.23 bohrs.
  Reading pulay file /home/gridsan/aligho/DFT/build-Nov24/pseudopotentials/SG15/C_ONCV_PBE.pulay ... using dE_dnG = -9.239532e-03 computed for Ecut = 20.

Reading pseudopotential file '/home/gridsan/aligho/DFT/build-Nov24/pseudopotentials/SG15/N_ONCV_PBE.upf':
  'N' pseudopotential, 'PBE' functional
  Generated using ONCVPSP code by D. R. Hamann
  Author: Martin Schlipf and Francois Gygi  Date: 150915.
  5 valence electrons, 2 orbitals, 4 projectors, 1058 radial grid points, with lMax = 1
  Transforming local potential to a uniform radial grid of dG=0.02 with 1502 points.
  Transforming nonlocal projectors to a uniform radial grid of dG=0.02 with 432 points.
    2S    l: 0   occupation:  2.0   eigenvalue: -0.682907
    2P    l: 1   occupation:  3.0   eigenvalue: -0.260548
  Transforming atomic orbitals to a uniform radial grid of dG=0.02 with 432 points.
  Core radius for overlap checks: 1.35 bohrs.
  Reading pulay file /home/gridsan/aligho/DFT/build-Nov24/pseudopotentials/SG15/N_ONCV_PBE.pulay ... using dE_dnG = -2.956256e-02 computed for Ecut = 20.

Reading pseudopotential file '/home/gridsan/aligho/DFT/build-Nov24/pseudopotentials/SG15/B_ONCV_PBE.upf':
  'B' pseudopotential, 'PBE' functional
  Generated using ONCVPSP code by D. R. Hamann
  Author: Martin Schlipf and Francois Gygi  Date: 150915.
  3 valence electrons, 2 orbitals, 4 projectors, 1534 radial grid points, with lMax = 1
  Transforming local potential to a uniform radial grid of dG=0.02 with 1502 points.
  Transforming nonlocal projectors to a uniform radial grid of dG=0.02 with 432 points.
    2S    l: 0   occupation:  2.0   eigenvalue: -0.347027
    2P    l: 1   occupation:  1.0   eigenvalue: -0.132548
  Transforming atomic orbitals to a uniform radial grid of dG=0.02 with 432 points.
  Core radius for overlap checks: 1.60 bohrs.
  Reading pulay file /home/gridsan/aligho/DFT/build-Nov24/pseudopotentials/SG15/B_ONCV_PBE.pulay ... using dE_dnG = -3.748568e-04 computed for Ecut = 20.

Initialized 3 species with 8 total atoms.

Folded 1 k-points by 12x12x1 to 144 k-points.

---------- Setting up k-points, bands, fillings ----------
Adding inversion symmetry to k-mesh for non-inversion-symmetric unit cell.
Reduced to 19 k-points under symmetry. 
Computing the number of bands and number of electrons
Calculating initial fillings.
nElectrons:  33.000000   nBands: 32   nStates: 38

----- Setting up reduced wavefunction bases (one per k-point) -----
average nbasis = 12955.938 , ideal nbasis = 12955.957

---------- Setting up coulomb interaction ----------
Initialized slab truncation along lattice direction 001

---------- Setting up 2D ewald sum ----------
Optimum gaussian width for ewald sums = 5.194429 bohr.
Real space sums over 289 unit cells with max indices [  8  8  0  ]
Reciprocal space sums over 81 terms with max indices [  4  4  0  ]

---------- Allocating electronic variables ----------
Initializing wave functions:  linear combination of atomic orbitals
C pseudo-atom occupations:   s ( 2 )  p ( 2 )
N pseudo-atom occupations:   s ( 2 )  p ( 3 )
B pseudo-atom occupations:   s ( 2 )  p ( 1 )
[d-4-15-4:54762] 37 more processes have sent help message help-mpi-common-cuda.txt / dlopen failed
[d-4-15-4:54762] Set MCA parameter "orte_base_help_aggregate" to 0 to see all help / error messages
[d-4-15-4:54762] 37 more processes have sent help message help-mpi-btl-openib-cpc-base.txt / no cpcs for port
	FillingsUpdate:  mu: -0.180912387  nElectrons: 33.000000  magneticMoment: [ Abs: 1.00711  Tot: -0.98000 ]
LCAOMinimize: Iter:   0  F: -53.3668183138321197  |grad|_K:  5.189e-03  alpha:  1.000e+00
	FillingsUpdate:  mu: -0.181394030  nElectrons: 33.000000  magneticMoment: [ Abs: 1.01303  Tot: -0.98000 ]
LCAOMinimize: Iter:   1  F: -53.5655653161697174  |grad|_K:  8.969e-04  alpha:  4.290e-01  linmin:  3.015e-01  cgtest: -7.762e-01  t[s]:      6.84
	FillingsUpdate:  mu: -0.176937154  nElectrons: 33.000000  magneticMoment: [ Abs: 1.01576  Tot: -0.98000 ]
LCAOMinimize: Iter:   2  F: -53.5672008083223403  |grad|_K:  7.178e-04  alpha:  2.564e-01  linmin:  6.518e-04  cgtest:  8.518e-01  t[s]:      8.78
LCAOMinimize: Encountered beta<0, resetting CG.
	FillingsUpdate:  mu: -0.176589990  nElectrons: 33.000000  magneticMoment: [ Abs: 1.01886  Tot: -0.98000 ]
LCAOMinimize: Iter:   3  F: -53.5712467948617572  |grad|_K:  9.195e-05  alpha:  3.829e-01  linmin:  7.335e-02  cgtest: -1.643e-01  t[s]:     10.71
	FillingsUpdate:  mu: -0.177303239  nElectrons: 33.000000  magneticMoment: [ Abs: 1.02197  Tot: -0.98000 ]
LCAOMinimize: Iter:   4  F: -53.5713108783864769  |grad|_K:  2.447e-05  alpha:  3.865e-01  linmin:  2.766e-03  cgtest:  1.891e-01  t[s]:     12.62
	FillingsUpdate:  mu: -0.177281097  nElectrons: 33.000000  magneticMoment: [ Abs: 1.02540  Tot: -0.98000 ]
LCAOMinimize: Iter:   5  F: -53.5713183839037725  |grad|_K:  1.425e-05  alpha:  6.058e-01  linmin: -9.566e-04  cgtest:  3.778e-03  t[s]:     14.55
	FillingsUpdate:  mu: -0.177160508  nElectrons: 33.000000  magneticMoment: [ Abs: 1.02915  Tot: -0.98000 ]
LCAOMinimize: Iter:   6  F: -53.5713213538501165  |grad|_K:  6.130e-06  alpha:  7.055e-01  linmin: -1.076e-03  cgtest: -5.134e-03  t[s]:     16.47
	FillingsUpdate:  mu: -0.177197314  nElectrons: 33.000000  magneticMoment: [ Abs: 1.03003  Tot: -0.98000 ]
LCAOMinimize: Iter:   7  F: -53.5713217139631652  |grad|_K:  1.121e-06  alpha:  4.624e-01  linmin: -1.001e-05  cgtest: -9.319e-03  t[s]:     18.37
	FillingsUpdate:  mu: -0.177205759  nElectrons: 33.000000  magneticMoment: [ Abs: 1.03031  Tot: -0.98000 ]
LCAOMinimize: Iter:   8  F: -53.5713217336793335  |grad|_K:  4.933e-07  alpha:  7.569e-01  linmin: -2.234e-03  cgtest:  6.887e-03  t[s]:     20.29
LCAOMinimize: Converged (|Delta F|<1.000000e-06 for 2 iters).


---- Citations for features of the code used in this run ----

   Software package:
      R. Sundararaman, K. Letchworth-Weaver, K.A. Schwarz, D. Gunceler, Y. Ozhabes and T.A. Arias, 'JDFTx: software for joint density-functional theory', SoftwareX 6, 278 (2017)

   gga-PBE exchange-correlation functional:
      J.P. Perdew, K. Burke and M. Ernzerhof, Phys. Rev. Lett. 77, 3865 (1996)

   Pseudopotentials:
      M Schlipf and F Gygi, Comput. Phys. Commun. 196, 36 (2015)

   Truncated Coulomb potentials:
      R. Sundararaman and T.A. Arias, Phys. Rev. B 87, 165122 (2013)

This list may not be complete. Please suggest additional citations or
report any other bugs at https://github.com/shankar1729/jdftx/issues

Initialization completed successfully at t[s]:     20.48


-------- Electronic minimization -----------
Will mix electronic density at each iteration.
	FillingsUpdate:  mu: -0.177205759  nElectrons: 33.000000  magneticMoment: [ Abs: 1.03031  Tot: -0.98000 ]
	FillingsUpdate:  mu: -0.192063346  nElectrons: 33.000000  magneticMoment: [ Abs: 1.03031  Tot: -0.98000 ]
SCF: Cycle:  0   F: -54.001533194178116   dF: -4.302e-01   |Residual|: 2.326e-01   |deigs|: 1.093e-01  t[s]:     24.90
	FillingsUpdate:  mu: -0.170749567  nElectrons: 33.000000  magneticMoment: [ Abs: 1.06935  Tot: -0.98000 ]
SCF: Cycle:  1   F: -54.021043039830126   dF: -1.951e-02   |Residual|: 1.297e-01   |deigs|: 2.689e-02  t[s]:     28.17
	FillingsUpdate:  mu: -0.141128323  nElectrons: 33.000000  magneticMoment: [ Abs: 1.08514  Tot: -0.98000 ]
SCF: Cycle:  2   F: -54.033699562981290   dF: -1.266e-02   |Residual|: 2.860e-02   |deigs|: 3.124e-02  t[s]:     31.49
	FillingsUpdate:  mu: -0.138025313  nElectrons: 33.000000  magneticMoment: [ Abs: 1.09017  Tot: -0.98000 ]
SCF: Cycle:  3   F: -54.034067298362984   dF: -3.677e-04   |Residual|: 1.635e-02   |deigs|: 8.847e-03  t[s]:     34.81
	FillingsUpdate:  mu: -0.127678877  nElectrons: 33.000000  magneticMoment: [ Abs: 1.07246  Tot: -0.98000 ]
SCF: Cycle:  4   F: -54.034643733958156   dF: -5.764e-04   |Residual|: 8.725e-03   |deigs|: 9.865e-03  t[s]:     38.16
	FillingsUpdate:  mu: -0.122103046  nElectrons: 33.000000  magneticMoment: [ Abs: 1.07697  Tot: -0.98000 ]
SCF: Cycle:  5   F: -54.034861869790234   dF: -2.181e-04   |Residual|: 6.709e-03   |deigs|: 5.163e-03  t[s]:     41.53
	FillingsUpdate:  mu: -0.116025670  nElectrons: 33.000000  magneticMoment: [ Abs: 1.07667  Tot: -0.98000 ]
SCF: Cycle:  6   F: -54.034933501854020   dF: -7.163e-05   |Residual|: 4.372e-03   |deigs|: 5.540e-03  t[s]:     44.94
	FillingsUpdate:  mu: -0.110893831  nElectrons: 33.000000  magneticMoment: [ Abs: 1.07435  Tot: -0.98000 ]
SCF: Cycle:  7   F: -54.034929050037654   dF: +4.452e-06   |Residual|: 3.346e-03   |deigs|: 6.359e-03  t[s]:     48.37
	FillingsUpdate:  mu: -0.106949692  nElectrons: 33.000000  magneticMoment: [ Abs: 1.07540  Tot: -0.98000 ]
SCF: Cycle:  8   F: -54.034947572570154   dF: -1.852e-05   |Residual|: 2.887e-03   |deigs|: 4.138e-03  t[s]:     51.81
	FillingsUpdate:  mu: -0.103451662  nElectrons: 33.000000  magneticMoment: [ Abs: 1.07215  Tot: -0.98000 ]
SCF: Cycle:  9   F: -54.034970962553878   dF: -2.339e-05   |Residual|: 2.102e-03   |deigs|: 3.731e-03  t[s]:     55.30
	FillingsUpdate:  mu: -0.101222850  nElectrons: 33.000000  magneticMoment: [ Abs: 1.07237  Tot: -0.98000 ]
SCF: Cycle: 10   F: -54.034984192611205   dF: -1.323e-05   |Residual|: 1.825e-03   |deigs|: 2.292e-03  t[s]:     58.80
	FillingsUpdate:  mu: -0.098440855  nElectrons: 33.000000  magneticMoment: [ Abs: 1.07387  Tot: -0.98000 ]
SCF: Cycle: 11   F: -54.034993402357095   dF: -9.210e-06   |Residual|: 1.462e-03   |deigs|: 2.757e-03  t[s]:     62.32
	FillingsUpdate:  mu: -0.095747114  nElectrons: 33.000000  magneticMoment: [ Abs: 1.07333  Tot: -0.98000 ]
SCF: Cycle: 12   F: -54.034997967084394   dF: -4.565e-06   |Residual|: 1.330e-03   |deigs|: 2.547e-03  t[s]:     65.83
	FillingsUpdate:  mu: -0.092712961  nElectrons: 33.000000  magneticMoment: [ Abs: 1.07319  Tot: -0.98000 ]
SCF: Cycle: 13   F: -54.035000092989918   dF: -2.126e-06   |Residual|: 1.191e-03   |deigs|: 2.802e-03  t[s]:     69.33
	FillingsUpdate:  mu: -0.088906486  nElectrons: 33.000000  magneticMoment: [ Abs: 1.07203  Tot: -0.98000 ]
SCF: Cycle: 14   F: -54.035000142904856   dF: -4.991e-08   |Residual|: 1.103e-03   |deigs|: 3.543e-03  t[s]:     72.85
	FillingsUpdate:  mu: -0.085251196  nElectrons: 33.000000  magneticMoment: [ Abs: 1.07257  Tot: -0.98000 ]
SCF: Cycle: 15   F: -54.035000351294926   dF: -2.084e-07   |Residual|: 1.037e-03   |deigs|: 3.249e-03  t[s]:     76.37
	FillingsUpdate:  mu: -0.081648184  nElectrons: 33.000000  magneticMoment: [ Abs: 1.07282  Tot: -0.98000 ]
SCF: Cycle: 16   F: -54.035001198067576   dF: -8.468e-07   |Residual|: 9.008e-04   |deigs|: 3.326e-03  t[s]:     79.86
	FillingsUpdate:  mu: -0.078797184  nElectrons: 33.000000  magneticMoment: [ Abs: 1.07281  Tot: -0.98000 ]
SCF: Cycle: 17   F: -54.035003191568258   dF: -1.994e-06   |Residual|: 6.703e-04   |deigs|: 2.592e-03  t[s]:     83.38
	FillingsUpdate:  mu: -0.076845905  nElectrons: 33.000000  magneticMoment: [ Abs: 1.07224  Tot: -0.98000 ]
SCF: Cycle: 18   F: -54.035005099072428   dF: -1.908e-06   |Residual|: 4.027e-04   |deigs|: 1.735e-03  t[s]:     86.90
	FillingsUpdate:  mu: -0.076074820  nElectrons: 33.000000  magneticMoment: [ Abs: 1.07202  Tot: -0.98000 ]
SCF: Cycle: 19   F: -54.035005718331313   dF: -6.193e-07   |Residual|: 2.402e-04   |deigs|: 7.658e-04  t[s]:     90.39
	FillingsUpdate:  mu: -0.075682305  nElectrons: 33.000000  magneticMoment: [ Abs: 1.07198  Tot: -0.98000 ]
SCF: Cycle: 20   F: -54.035005911645463   dF: -1.933e-07   |Residual|: 1.368e-04   |deigs|: 6.361e-04  t[s]:     93.89
	FillingsUpdate:  mu: -0.075504674  nElectrons: 33.000000  magneticMoment: [ Abs: 1.07199  Tot: -0.98000 ]
SCF: Cycle: 21   F: -54.035005963798575   dF: -5.215e-08   |Residual|: 7.160e-05   |deigs|: 3.234e-04  t[s]:     97.41
	FillingsUpdate:  mu: -0.075437877  nElectrons: 33.000000  magneticMoment: [ Abs: 1.07198  Tot: -0.98000 ]
SCF: Cycle: 22   F: -54.035005978192508   dF: -1.439e-08   |Residual|: 3.051e-05   |deigs|: 3.161e-04  t[s]:    100.92
	FillingsUpdate:  mu: -0.075417433  nElectrons: 33.000000  magneticMoment: [ Abs: 1.07197  Tot: -0.98000 ]
SCF: Cycle: 23   F: -54.035005985203981   dF: -7.011e-09   |Residual|: 1.350e-05   |deigs|: 4.236e-04  t[s]:    104.43
	FillingsUpdate:  mu: -0.075410492  nElectrons: 33.000000  magneticMoment: [ Abs: 1.07196  Tot: -0.98000 ]
SCF: Cycle: 24   F: -54.035005986870317   dF: -1.666e-09   |Residual|: 8.275e-06   |deigs|: 3.824e-04  t[s]:    107.95
SCF: Converged (|Delta E|<1.000000e-08 for 2 iters).


# Ionic positions in lattice coordinates:
ion C  -0.000000000000000   0.000000000000000   0.000000000000000 1
ion N   0.164313074529992   0.328626149059985   0.000000000000000 1
ion N   0.164313074529992   0.835686925470008   0.000000000000000 1
ion N   0.666666666666667   0.333333333333333   0.000000000000000 1
ion N   0.671373850940015   0.835686925470008   0.000000000000000 1
ion B  -0.001576660817548   0.499211669591226   0.000000000000000 1
ion B   0.500788330408774   0.001576660817548   0.000000000000000 1
ion B   0.500788330408774   0.499211669591226   0.000000000000000 1

# Forces in Lattice coordinates:
force C   0.000000000000000   0.000000000000000   0.000000000000000 1
force N   0.000000000000000  -0.002049052958343  -0.000000000000000 1
force N  -0.002049052958345   0.002049052958343  -0.000000000000000 1
force N  -0.000000000000000   0.000000000000000   0.000000000000000 1
force N   0.002049052958346  -0.000000000000000   0.000000000000000 1
force B   0.000801719904015   0.000000000000000  -0.000000000000000 1
force B   0.000000000000000  -0.000801719904015  -0.000000000000000 1
force B  -0.000801719904015   0.000801719904015   0.000000000000000 1

# Energy components:
   Eewald =      -85.5148968124686775
       EH =      -43.4621418113518487
     Eloc =       54.0439111606118345
      Enl =       -2.2847582678827405
   Epulay =       -0.0000008322926719
      Exc =      -15.3568295149630369
       KE =       38.5397103449562550
-------------------------------------
     Etot =      -54.0350057333908964
       TS =        0.0000002534794221
-------------------------------------
        F =      -54.0350059868703170

IonicMinimize: Iter:   0  F: -54.035005986870317  |grad|_K:  9.600e-05  t[s]:    108.29
IonicMinimize: Converged (|grad|_K<1.000000e-04).

#--- Lowdin population analysis ---
# oxidation-state C +0.282
# magnetic-moments C -0.553
# oxidation-state N -0.267 -0.267 -0.382 -0.267
# magnetic-moments N -0.003 -0.003 -0.037 -0.003
# oxidation-state B +0.405 +0.405 +0.405
# magnetic-moments B -0.119 -0.119 -0.119


Dumping 'BN22BC--0.98.fillings' ... done
Dumping 'BN22BC--0.98.wfns' ... done
Dumping 'BN22BC--0.98.n_up' ... done
Dumping 'BN22BC--0.98.n_dn' ... done
Dumping 'BN22BC--0.98.eigenvals' ... done
End date and time: Sun Jan 30 23:07:02 2022  (Duration: 0-0:01:50.16)
Done!
