magnetization is -0.68
--------------------------------------------------------------------------
The library attempted to open the following supporting CUDA libraries,
but each of them failed.  CUDA-aware support is disabled.
libcuda.so.1: cannot open shared object file: No such file or directory
libcuda.dylib: cannot open shared object file: No such file or directory
/usr/lib64/libcuda.so.1: cannot open shared object file: No such file or directory
/usr/lib64/libcuda.dylib: cannot open shared object file: No such file or directory
If you are not interested in CUDA-aware support, then run with
--mca opal_warn_on_missing_libcuda 0 to suppress this message.  If you are interested
in CUDA-aware support, then try setting LD_LIBRARY_PATH to the location
of libcuda.so.1 to get passed this issue.
--------------------------------------------------------------------------
--------------------------------------------------------------------------
No OpenFabrics connection schemes reported that they were able to be
used on a specific port.  As such, the openib BTL (OpenFabrics
support) will be disabled for this port.

  Local host:           d-16-11-1
  Local device:         mlx5_1
  Local port:           1
  CPCs attempted:       rdmacm, udcm
--------------------------------------------------------------------------

*************** JDFTx 1.6.0 (git hash 42ebbcc2) ***************

Start date and time: Sun Jan 30 23:05:12 2022
Executable jdftx with command-line: -i BN22BC.in
Running on hosts (process indices):  d-16-11-1 (0-37)
Divided in process groups (process indices):  0 (0)  1 (1)  2 (2)  3 (3)  4 (4)  5 (5)  6 (6)  7 (7)  8 (8)  9 (9)  10 (10)  11 (11)  12 (12)  13 (13)  14 (14)  15 (15)  16 (16)  17 (17)  18 (18)  19 (19)  20 (20)  21 (21)  22 (22)  23 (23)  24 (24)  25 (25)  26 (26)  27 (27)  28 (28)  29 (29)  30 (30)  31 (31)  32 (32)  33 (33)  34 (34)  35 (35)  36 (36)  37 (37)
Resource initialization completed at t[s]:      0.00
Run totals: 38 processes, 48 threads, 0 GPUs


Input parsed successfully to the following command list (including defaults):

basis kpoint-dependent
coords-type Lattice
core-overlap-check vector
coulomb-interaction Slab 001
davidson-band-ratio 1.1
dump End State ElecDensity BandEigs
dump-name BN22BC--0.68.$VAR
elec-cutoff 20
elec-eigen-algo Davidson
elec-ex-corr gga-PBE
elec-initial-magnetization -0.680000 yes
elec-smearing Fermi 1e-05
electronic-minimize  \
	dirUpdateScheme      FletcherReeves \
	linminMethod         DirUpdateRecommended \
	nIterations          100 \
	history              15 \
	knormThreshold       0 \
	energyDiffThreshold  1e-08 \
	nEnergyDiff          2 \
	alphaTstart          1 \
	alphaTmin            1e-10 \
	updateTestStepSize   yes \
	alphaTreduceFactor   0.1 \
	alphaTincreaseFactor 3 \
	nAlphaAdjustMax      3 \
	wolfeEnergy          0.0001 \
	wolfeGradient        0.9 \
	fdTest               no
electronic-scf  \
	nIterations	1000 \
	energyDiffThreshold	1e-08 \
	residualThreshold	1e-07 \
	mixFraction	0.5 \
	qMetric	0.8 \
	history	10 \
	nEigSteps	2 \
	eigDiffThreshold	1e-08 \
	mixedVariable	Density \
	qKerker	0.8 \
	qKappa	-1 \
	verbose	no \
	mixFractionMag	1.5
exchange-regularization WignerSeitzTruncated
fluid None
fluid-ex-corr (null) lda-PZ
fluid-gummel-loop 10 1.000000e-05
fluid-minimize  \
	dirUpdateScheme      PolakRibiere \
	linminMethod         DirUpdateRecommended \
	nIterations          100 \
	history              15 \
	knormThreshold       0 \
	energyDiffThreshold  0 \
	nEnergyDiff          2 \
	alphaTstart          1 \
	alphaTmin            1e-10 \
	updateTestStepSize   yes \
	alphaTreduceFactor   0.1 \
	alphaTincreaseFactor 3 \
	nAlphaAdjustMax      3 \
	wolfeEnergy          0.0001 \
	wolfeGradient        0.9 \
	fdTest               no
fluid-solvent H2O 55.338 ScalarEOS \
	epsBulk 78.4 \
	pMol 0.92466 \
	epsInf 1.77 \
	Pvap 1.06736e-10 \
	sigmaBulk 4.62e-05 \
	Rvdw 2.61727 \
	Res 1.42 \
	tauNuc 343133 \
	poleEl 15 7 1
forces-output-coords Positions
ion C   0.000000000000000  -0.000000000000000   0.000000000000000 1
ion N   0.164313074529992   0.328626149059985   0.000000000000000 1
ion N   0.164313074529992   0.835686925470008   0.000000000000000 1
ion N   0.666666666666667   0.333333333333333   0.000000000000000 1
ion N   0.671373850940015   0.835686925470008   0.000000000000000 1
ion B  -0.001576660817548   0.499211669591226   0.000000000000000 1
ion B   0.500788330408774   0.001576660817548   0.000000000000000 1
ion B   0.500788330408774   0.499211669591226   0.000000000000000 1
ion-species SG15/$ID_ONCV_PBE.upf
ion-width 0
ionic-minimize  \
	dirUpdateScheme      L-BFGS \
	linminMethod         DirUpdateRecommended \
	nIterations          0 \
	history              15 \
	knormThreshold       0.0001 \
	energyDiffThreshold  1e-06 \
	nEnergyDiff          2 \
	alphaTstart          1 \
	alphaTmin            1e-10 \
	updateTestStepSize   yes \
	alphaTreduceFactor   0.1 \
	alphaTincreaseFactor 3 \
	nAlphaAdjustMax      3 \
	wolfeEnergy          0.0001 \
	wolfeGradient        0.9 \
	fdTest               no
kpoint   0.000000000000   0.000000000000   0.000000000000  1.00000000000000
kpoint-folding 12 12 1 
latt-move-scale 1 1 1
latt-scale 1 1 1 
lattice  \
	   9.356640512437433   -4.678320256218713    0.000000000000000  \
	  -0.000000000000000    8.103088377849462    0.000000000000000  \
	   0.000000000000000    0.000000000000000   40.000000000000000 
lattice-minimize  \
	dirUpdateScheme      L-BFGS \
	linminMethod         DirUpdateRecommended \
	nIterations          0 \
	history              15 \
	knormThreshold       0 \
	energyDiffThreshold  1e-06 \
	nEnergyDiff          2 \
	alphaTstart          1 \
	alphaTmin            1e-10 \
	updateTestStepSize   yes \
	alphaTreduceFactor   0.1 \
	alphaTincreaseFactor 3 \
	nAlphaAdjustMax      3 \
	wolfeEnergy          0.0001 \
	wolfeGradient        0.9 \
	fdTest               no
lcao-params -1 1e-06 1e-05
pcm-variant GLSSA13
spintype z-spin
subspace-rotation-factor 1 yes
symmetries automatic
symmetry-threshold 0.0001



---------- Setting up symmetries ----------

Found 24 point-group symmetries of the bravais lattice
Found 12 space-group symmetries with basis
Applied RMS atom displacement 3.80214e-15 bohrs to make symmetries exact.

---------- Initializing the Grid ----------
R = 
[      9.35664     -4.67832            0  ]
[            0      8.10309            0  ]
[            0            0           40  ]
unit cell volume = 3032.71
G =
[   0.671522   0.387703         -0  ]
[          0   0.775406         -0  ]
[         -0         -0    0.15708  ]
Minimum fftbox size, Smin = [  40  40  164  ]
Chosen fftbox size, S = [  40  40  168  ]

---------- Exchange Correlation functional ----------
Initalized PBE GGA exchange.
Initalized PBE GGA correlation.

---------- Setting up pseudopotentials ----------
Width of ionic core gaussian charges (only for fluid interactions / plotting) set to 0

Reading pseudopotential file '/home/gridsan/aligho/DFT/build-Nov24/pseudopotentials/SG15/C_ONCV_PBE.upf':
  'C' pseudopotential, 'PBE' functional
  Generated using ONCVPSP code by D. R. Hamann
  Author: Martin Schlipf and Francois Gygi  Date: 150915.
  4 valence electrons, 2 orbitals, 4 projectors, 1248 radial grid points, with lMax = 1
  Transforming local potential to a uniform radial grid of dG=0.02 with 1502 points.
  Transforming nonlocal projectors to a uniform radial grid of dG=0.02 with 432 points.
    2S    l: 0   occupation:  2.0   eigenvalue: -0.505335
    2P    l: 1   occupation:  2.0   eigenvalue: -0.194238
  Transforming atomic orbitals to a uniform radial grid of dG=0.02 with 432 points.
  Core radius for overlap checks: 1.23 bohrs.
  Reading pulay file /home/gridsan/aligho/DFT/build-Nov24/pseudopotentials/SG15/C_ONCV_PBE.pulay ... using dE_dnG = -9.239532e-03 computed for Ecut = 20.

Reading pseudopotential file '/home/gridsan/aligho/DFT/build-Nov24/pseudopotentials/SG15/N_ONCV_PBE.upf':
  'N' pseudopotential, 'PBE' functional
  Generated using ONCVPSP code by D. R. Hamann
  Author: Martin Schlipf and Francois Gygi  Date: 150915.
  5 valence electrons, 2 orbitals, 4 projectors, 1058 radial grid points, with lMax = 1
  Transforming local potential to a uniform radial grid of dG=0.02 with 1502 points.
  Transforming nonlocal projectors to a uniform radial grid of dG=0.02 with 432 points.
    2S    l: 0   occupation:  2.0   eigenvalue: -0.682907
    2P    l: 1   occupation:  3.0   eigenvalue: -0.260548
  Transforming atomic orbitals to a uniform radial grid of dG=0.02 with 432 points.
  Core radius for overlap checks: 1.35 bohrs.
  Reading pulay file /home/gridsan/aligho/DFT/build-Nov24/pseudopotentials/SG15/N_ONCV_PBE.pulay ... using dE_dnG = -2.956256e-02 computed for Ecut = 20.

Reading pseudopotential file '/home/gridsan/aligho/DFT/build-Nov24/pseudopotentials/SG15/B_ONCV_PBE.upf':
  'B' pseudopotential, 'PBE' functional
  Generated using ONCVPSP code by D. R. Hamann
  Author: Martin Schlipf and Francois Gygi  Date: 150915.
  3 valence electrons, 2 orbitals, 4 projectors, 1534 radial grid points, with lMax = 1
  Transforming local potential to a uniform radial grid of dG=0.02 with 1502 points.
  Transforming nonlocal projectors to a uniform radial grid of dG=0.02 with 432 points.
    2S    l: 0   occupation:  2.0   eigenvalue: -0.347027
    2P    l: 1   occupation:  1.0   eigenvalue: -0.132548
  Transforming atomic orbitals to a uniform radial grid of dG=0.02 with 432 points.
  Core radius for overlap checks: 1.60 bohrs.
  Reading pulay file /home/gridsan/aligho/DFT/build-Nov24/pseudopotentials/SG15/B_ONCV_PBE.pulay ... using dE_dnG = -3.748568e-04 computed for Ecut = 20.

Initialized 3 species with 8 total atoms.

Folded 1 k-points by 12x12x1 to 144 k-points.

---------- Setting up k-points, bands, fillings ----------
Adding inversion symmetry to k-mesh for non-inversion-symmetric unit cell.
Reduced to 19 k-points under symmetry. 
Computing the number of bands and number of electrons
Calculating initial fillings.
nElectrons:  33.000000   nBands: 32   nStates: 38

----- Setting up reduced wavefunction bases (one per k-point) -----
average nbasis = 12955.938 , ideal nbasis = 12955.957

---------- Setting up coulomb interaction ----------
Initialized slab truncation along lattice direction 001

---------- Setting up 2D ewald sum ----------
Optimum gaussian width for ewald sums = 5.194429 bohr.
Real space sums over 289 unit cells with max indices [  8  8  0  ]
Reciprocal space sums over 81 terms with max indices [  4  4  0  ]

---------- Allocating electronic variables ----------
Initializing wave functions:  linear combination of atomic orbitals
C pseudo-atom occupations:   s ( 2 )  p ( 2 )
N pseudo-atom occupations:   s ( 2 )  p ( 3 )
B pseudo-atom occupations:   s ( 2 )  p ( 1 )
[d-16-11-1:89366] 37 more processes have sent help message help-mpi-common-cuda.txt / dlopen failed
[d-16-11-1:89366] Set MCA parameter "orte_base_help_aggregate" to 0 to see all help / error messages
[d-16-11-1:89366] 37 more processes have sent help message help-mpi-btl-openib-cpc-base.txt / no cpcs for port
	FillingsUpdate:  mu: -0.181007971  nElectrons: 33.000000  magneticMoment: [ Abs: 0.69798  Tot: -0.68000 ]
LCAOMinimize: Iter:   0  F: -53.3496186664751377  |grad|_K:  5.383e-03  alpha:  1.000e+00
	FillingsUpdate:  mu: -0.182462151  nElectrons: 33.000000  magneticMoment: [ Abs: 0.70120  Tot: -0.68000 ]
LCAOMinimize: Iter:   1  F: -53.5627575384390866  |grad|_K:  9.540e-04  alpha:  4.263e-01  linmin:  3.357e-01  cgtest: -8.046e-01  t[s]:      6.86
	FillingsUpdate:  mu: -0.177439817  nElectrons: 33.000000  magneticMoment: [ Abs: 0.70270  Tot: -0.68000 ]
LCAOMinimize: Iter:   2  F: -53.5643056506679969  |grad|_K:  7.947e-04  alpha:  2.413e-01  linmin:  7.598e-05  cgtest:  8.789e-01  t[s]:      8.85
LCAOMinimize: Encountered beta<0, resetting CG.
	FillingsUpdate:  mu: -0.177501422  nElectrons: 33.000000  magneticMoment: [ Abs: 0.70455  Tot: -0.68000 ]
LCAOMinimize: Iter:   3  F: -53.5692148773701291  |grad|_K:  9.739e-05  alpha:  3.800e-01  linmin:  8.821e-02  cgtest: -2.094e-01  t[s]:     10.82
	FillingsUpdate:  mu: -0.178518794  nElectrons: 33.000000  magneticMoment: [ Abs: 0.70635  Tot: -0.68000 ]
LCAOMinimize: Iter:   4  F: -53.5692844096739762  |grad|_K:  2.802e-05  alpha:  3.826e-01  linmin:  2.187e-03  cgtest:  2.588e-01  t[s]:     12.77
	FillingsUpdate:  mu: -0.178502734  nElectrons: 33.000000  magneticMoment: [ Abs: 0.70797  Tot: -0.68000 ]
LCAOMinimize: Iter:   5  F: -53.5692924647825848  |grad|_K:  1.334e-05  alpha:  4.959e-01  linmin: -4.109e-04  cgtest:  1.815e-03  t[s]:     14.74
	FillingsUpdate:  mu: -0.178303771  nElectrons: 33.000000  magneticMoment: [ Abs: 0.71041  Tot: -0.68000 ]
LCAOMinimize: Iter:   6  F: -53.5692956042718080  |grad|_K:  6.651e-06  alpha:  8.508e-01  linmin: -1.334e-03  cgtest:  2.665e-03  t[s]:     16.71
	FillingsUpdate:  mu: -0.178346228  nElectrons: 33.000000  magneticMoment: [ Abs: 0.71096  Tot: -0.68000 ]
LCAOMinimize: Iter:   7  F: -53.5692960356002885  |grad|_K:  1.205e-06  alpha:  4.702e-01  linmin: -7.512e-05  cgtest: -1.607e-02  t[s]:     18.67
	FillingsUpdate:  mu: -0.178361011  nElectrons: 33.000000  magneticMoment: [ Abs: 0.71105  Tot: -0.68000 ]
LCAOMinimize: Iter:   8  F: -53.5692960599021433  |grad|_K:  3.803e-07  alpha:  8.089e-01  linmin: -5.009e-04  cgtest:  2.446e-03  t[s]:     20.61
LCAOMinimize: Converged (|Delta F|<1.000000e-06 for 2 iters).


---- Citations for features of the code used in this run ----

   Software package:
      R. Sundararaman, K. Letchworth-Weaver, K.A. Schwarz, D. Gunceler, Y. Ozhabes and T.A. Arias, 'JDFTx: software for joint density-functional theory', SoftwareX 6, 278 (2017)

   gga-PBE exchange-correlation functional:
      J.P. Perdew, K. Burke and M. Ernzerhof, Phys. Rev. Lett. 77, 3865 (1996)

   Pseudopotentials:
      M Schlipf and F Gygi, Comput. Phys. Commun. 196, 36 (2015)

   Truncated Coulomb potentials:
      R. Sundararaman and T.A. Arias, Phys. Rev. B 87, 165122 (2013)

This list may not be complete. Please suggest additional citations or
report any other bugs at https://github.com/shankar1729/jdftx/issues

Initialization completed successfully at t[s]:     20.80


-------- Electronic minimization -----------
Will mix electronic density at each iteration.
	FillingsUpdate:  mu: -0.178361011  nElectrons: 33.000000  magneticMoment: [ Abs: 0.71105  Tot: -0.68000 ]
	FillingsUpdate:  mu: -0.194947704  nElectrons: 33.000000  magneticMoment: [ Abs: 0.71105  Tot: -0.68000 ]
SCF: Cycle:  0   F: -53.999438476798247   dF: -4.301e-01   |Residual|: 2.314e-01   |deigs|: 1.092e-01  t[s]:     25.25
	FillingsUpdate:  mu: -0.172007257  nElectrons: 33.000000  magneticMoment: [ Abs: 0.73639  Tot: -0.68000 ]
SCF: Cycle:  1   F: -54.019700544915487   dF: -2.026e-02   |Residual|: 1.292e-01   |deigs|: 2.702e-02  t[s]:     28.57
	FillingsUpdate:  mu: -0.141839222  nElectrons: 33.000000  magneticMoment: [ Abs: 0.75971  Tot: -0.68000 ]
SCF: Cycle:  2   F: -54.032334381870783   dF: -1.263e-02   |Residual|: 2.814e-02   |deigs|: 3.096e-02  t[s]:     31.88
	FillingsUpdate:  mu: -0.138542451  nElectrons: 33.000000  magneticMoment: [ Abs: 0.76050  Tot: -0.68000 ]
SCF: Cycle:  3   F: -54.032718877777612   dF: -3.845e-04   |Residual|: 1.619e-02   |deigs|: 8.533e-03  t[s]:     35.19
	FillingsUpdate:  mu: -0.127698634  nElectrons: 33.000000  magneticMoment: [ Abs: 0.74803  Tot: -0.68000 ]
SCF: Cycle:  4   F: -54.033329821611623   dF: -6.109e-04   |Residual|: 8.370e-03   |deigs|: 1.018e-02  t[s]:     38.54
	FillingsUpdate:  mu: -0.122494534  nElectrons: 33.000000  magneticMoment: [ Abs: 0.75230  Tot: -0.68000 ]
SCF: Cycle:  5   F: -54.033520420325992   dF: -1.906e-04   |Residual|: 6.605e-03   |deigs|: 5.014e-03  t[s]:     41.92
	FillingsUpdate:  mu: -0.116024079  nElectrons: 33.000000  magneticMoment: [ Abs: 0.75202  Tot: -0.68000 ]
SCF: Cycle:  6   F: -54.033588178666207   dF: -6.776e-05   |Residual|: 4.174e-03   |deigs|: 5.912e-03  t[s]:     45.33
	FillingsUpdate:  mu: -0.111431832  nElectrons: 33.000000  magneticMoment: [ Abs: 0.74999  Tot: -0.68000 ]
SCF: Cycle:  7   F: -54.033579668687381   dF: +8.510e-06   |Residual|: 3.330e-03   |deigs|: 5.783e-03  t[s]:     48.77
	FillingsUpdate:  mu: -0.106864674  nElectrons: 33.000000  magneticMoment: [ Abs: 0.75098  Tot: -0.68000 ]
SCF: Cycle:  8   F: -54.033603935171058   dF: -2.427e-05   |Residual|: 2.868e-03   |deigs|: 4.747e-03  t[s]:     52.24
	FillingsUpdate:  mu: -0.103860527  nElectrons: 33.000000  magneticMoment: [ Abs: 0.74832  Tot: -0.68000 ]
SCF: Cycle:  9   F: -54.033625256482956   dF: -2.132e-05   |Residual|: 2.050e-03   |deigs|: 3.205e-03  t[s]:     55.72
	FillingsUpdate:  mu: -0.101696168  nElectrons: 33.000000  magneticMoment: [ Abs: 0.74852  Tot: -0.68000 ]
SCF: Cycle: 10   F: -54.033637070693899   dF: -1.181e-05   |Residual|: 1.921e-03   |deigs|: 2.292e-03  t[s]:     59.25
	FillingsUpdate:  mu: -0.098584040  nElectrons: 33.000000  magneticMoment: [ Abs: 0.75002  Tot: -0.68000 ]
SCF: Cycle: 11   F: -54.033647128234009   dF: -1.006e-05   |Residual|: 1.447e-03   |deigs|: 2.998e-03  t[s]:     62.75
	FillingsUpdate:  mu: -0.096210027  nElectrons: 33.000000  magneticMoment: [ Abs: 0.74929  Tot: -0.68000 ]
SCF: Cycle: 12   F: -54.033651107947769   dF: -3.980e-06   |Residual|: 1.323e-03   |deigs|: 2.196e-03  t[s]:     66.26
	FillingsUpdate:  mu: -0.093083884  nElectrons: 33.000000  magneticMoment: [ Abs: 0.74911  Tot: -0.68000 ]
SCF: Cycle: 13   F: -54.033653068603371   dF: -1.961e-06   |Residual|: 1.163e-03   |deigs|: 2.969e-03  t[s]:     69.77
	FillingsUpdate:  mu: -0.089455859  nElectrons: 33.000000  magneticMoment: [ Abs: 0.74796  Tot: -0.68000 ]
SCF: Cycle: 14   F: -54.033653229478375   dF: -1.609e-07   |Residual|: 1.101e-03   |deigs|: 3.310e-03  t[s]:     73.25
	FillingsUpdate:  mu: -0.085604800  nElectrons: 33.000000  magneticMoment: [ Abs: 0.74864  Tot: -0.68000 ]
SCF: Cycle: 15   F: -54.033653598941910   dF: -3.695e-07   |Residual|: 1.021e-03   |deigs|: 3.446e-03  t[s]:     76.77
	FillingsUpdate:  mu: -0.082037509  nElectrons: 33.000000  magneticMoment: [ Abs: 0.74884  Tot: -0.68000 ]
SCF: Cycle: 16   F: -54.033654784248455   dF: -1.185e-06   |Residual|: 8.849e-04   |deigs|: 3.264e-03  t[s]:     80.27
	FillingsUpdate:  mu: -0.079400352  nElectrons: 33.000000  magneticMoment: [ Abs: 0.74851  Tot: -0.68000 ]
SCF: Cycle: 17   F: -54.033656844042397   dF: -2.060e-06   |Residual|: 6.645e-04   |deigs|: 2.365e-03  t[s]:     83.78
	FillingsUpdate:  mu: -0.077868124  nElectrons: 33.000000  magneticMoment: [ Abs: 0.74823  Tot: -0.68000 ]
SCF: Cycle: 18   F: -54.033658460343148   dF: -1.616e-06   |Residual|: 4.315e-04   |deigs|: 1.421e-03  t[s]:     87.29
	FillingsUpdate:  mu: -0.077045427  nElectrons: 33.000000  magneticMoment: [ Abs: 0.74812  Tot: -0.68000 ]
SCF: Cycle: 19   F: -54.033659019276698   dF: -5.589e-07   |Residual|: 2.352e-04   |deigs|: 7.663e-04  t[s]:     90.80
	FillingsUpdate:  mu: -0.076602876  nElectrons: 33.000000  magneticMoment: [ Abs: 0.74804  Tot: -0.68000 ]
SCF: Cycle: 20   F: -54.033659226178131   dF: -2.069e-07   |Residual|: 1.295e-04   |deigs|: 5.283e-04  t[s]:     94.32
	FillingsUpdate:  mu: -0.076397521  nElectrons: 33.000000  magneticMoment: [ Abs: 0.74800  Tot: -0.68000 ]
SCF: Cycle: 21   F: -54.033659287323260   dF: -6.115e-08   |Residual|: 7.552e-05   |deigs|: 3.732e-04  t[s]:     97.88
	FillingsUpdate:  mu: -0.076304172  nElectrons: 33.000000  magneticMoment: [ Abs: 0.74795  Tot: -0.68000 ]
SCF: Cycle: 22   F: -54.033659304906088   dF: -1.758e-08   |Residual|: 3.667e-05   |deigs|: 2.750e-04  t[s]:    101.40
	FillingsUpdate:  mu: -0.076247826  nElectrons: 33.000000  magneticMoment: [ Abs: 0.74793  Tot: -0.68000 ]
SCF: Cycle: 23   F: -54.033659311270696   dF: -6.365e-09   |Residual|: 1.477e-05   |deigs|: 4.837e-04  t[s]:    104.94
	FillingsUpdate:  mu: -0.076237317  nElectrons: 33.000000  magneticMoment: [ Abs: 0.74792  Tot: -0.68000 ]
SCF: Cycle: 24   F: -54.033659313698038   dF: -2.427e-09   |Residual|: 9.658e-06   |deigs|: 1.993e-04  t[s]:    108.46
SCF: Converged (|Delta E|<1.000000e-08 for 2 iters).


# Ionic positions in lattice coordinates:
ion C  -0.000000000000000   0.000000000000000   0.000000000000000 1
ion N   0.164313074529992   0.328626149059985   0.000000000000000 1
ion N   0.164313074529992   0.835686925470008   0.000000000000000 1
ion N   0.666666666666667   0.333333333333333   0.000000000000000 1
ion N   0.671373850940015   0.835686925470008   0.000000000000000 1
ion B  -0.001576660817548   0.499211669591226   0.000000000000000 1
ion B   0.500788330408774   0.001576660817548   0.000000000000000 1
ion B   0.500788330408774   0.499211669591226   0.000000000000000 1

# Forces in Lattice coordinates:
force C   0.000000000000000   0.000000000000000   0.000000000000000 1
force N  -0.000000000000000  -0.023170084464854  -0.000000000000000 1
force N  -0.023170084464856   0.023170084464853   0.000000000000000 1
force N   0.000000000000000  -0.000000000000000   0.000000000000000 1
force N   0.023170084464855   0.000000000000000   0.000000000000000 1
force B   0.008962628825466   0.000000000000000  -0.000000000000000 1
force B   0.000000000000000  -0.008962628825466   0.000000000000000 1
force B  -0.008962628825466   0.008962628825466   0.000000000000000 1

# Energy components:
   Eewald =      -85.5148968124686775
       EH =      -43.5055097089640270
     Eloc =       54.1027520555697023
      Enl =       -2.2758857437891180
   Epulay =       -0.0000008322926719
      Exc =      -15.3444681889682411
       KE =       38.5043505642182708
-------------------------------------
     Etot =      -54.0336586666947483
       TS =        0.0000006470032933
-------------------------------------
        F =      -54.0336593136980383

IonicMinimize: Iter:   0  F: -54.033659313698038  |grad|_K:  1.084e-03  t[s]:    108.79
IonicMinimize: None of the convergence criteria satisfied after 0 iterations.

#--- Lowdin population analysis ---
# oxidation-state C +0.264
# magnetic-moments C -0.369
# oxidation-state N -0.260 -0.260 -0.383 -0.260
# magnetic-moments N +0.001 +0.001 -0.015 +0.001
# oxidation-state B +0.406 +0.406 +0.406
# magnetic-moments B -0.095 -0.095 -0.095


Dumping 'BN22BC--0.68.fillings' ... done
Dumping 'BN22BC--0.68.wfns' ... done
Dumping 'BN22BC--0.68.n_up' ... done
Dumping 'BN22BC--0.68.n_dn' ... done
Dumping 'BN22BC--0.68.eigenvals' ... done
End date and time: Sun Jan 30 23:07:03 2022  (Duration: 0-0:01:50.83)
Done!
