magnetization is 0.06
--------------------------------------------------------------------------
The library attempted to open the following supporting CUDA libraries,
but each of them failed.  CUDA-aware support is disabled.
libcuda.so.1: cannot open shared object file: No such file or directory
libcuda.dylib: cannot open shared object file: No such file or directory
/usr/lib64/libcuda.so.1: cannot open shared object file: No such file or directory
/usr/lib64/libcuda.dylib: cannot open shared object file: No such file or directory
If you are not interested in CUDA-aware support, then run with
--mca opal_warn_on_missing_libcuda 0 to suppress this message.  If you are interested
in CUDA-aware support, then try setting LD_LIBRARY_PATH to the location
of libcuda.so.1 to get passed this issue.
--------------------------------------------------------------------------
--------------------------------------------------------------------------
No OpenFabrics connection schemes reported that they were able to be
used on a specific port.  As such, the openib BTL (OpenFabrics
support) will be disabled for this port.

  Local host:           d-6-12-3
  Local device:         mlx5_1
  Local port:           1
  CPCs attempted:       rdmacm, udcm
--------------------------------------------------------------------------

*************** JDFTx 1.6.0 (git hash 42ebbcc2) ***************

Start date and time: Sun Jan 30 23:09:17 2022
Executable jdftx with command-line: -i BN22BC.in
Running on hosts (process indices):  d-6-12-3 (0-37)
Divided in process groups (process indices):  0 (0)  1 (1)  2 (2)  3 (3)  4 (4)  5 (5)  6 (6)  7 (7)  8 (8)  9 (9)  10 (10)  11 (11)  12 (12)  13 (13)  14 (14)  15 (15)  16 (16)  17 (17)  18 (18)  19 (19)  20 (20)  21 (21)  22 (22)  23 (23)  24 (24)  25 (25)  26 (26)  27 (27)  28 (28)  29 (29)  30 (30)  31 (31)  32 (32)  33 (33)  34 (34)  35 (35)  36 (36)  37 (37)
Resource initialization completed at t[s]:      0.00
Run totals: 38 processes, 48 threads, 0 GPUs


Input parsed successfully to the following command list (including defaults):

basis kpoint-dependent
coords-type Lattice
core-overlap-check vector
coulomb-interaction Slab 001
davidson-band-ratio 1.1
dump End State ElecDensity BandEigs
dump-name BN22BC-0.06.$VAR
elec-cutoff 20
elec-eigen-algo Davidson
elec-ex-corr gga-PBE
elec-initial-magnetization 0.060000 yes
elec-smearing Fermi 1e-05
electronic-minimize  \
	dirUpdateScheme      FletcherReeves \
	linminMethod         DirUpdateRecommended \
	nIterations          100 \
	history              15 \
	knormThreshold       0 \
	energyDiffThreshold  1e-08 \
	nEnergyDiff          2 \
	alphaTstart          1 \
	alphaTmin            1e-10 \
	updateTestStepSize   yes \
	alphaTreduceFactor   0.1 \
	alphaTincreaseFactor 3 \
	nAlphaAdjustMax      3 \
	wolfeEnergy          0.0001 \
	wolfeGradient        0.9 \
	fdTest               no
electronic-scf  \
	nIterations	1000 \
	energyDiffThreshold	1e-08 \
	residualThreshold	1e-07 \
	mixFraction	0.5 \
	qMetric	0.8 \
	history	10 \
	nEigSteps	2 \
	eigDiffThreshold	1e-08 \
	mixedVariable	Density \
	qKerker	0.8 \
	qKappa	-1 \
	verbose	no \
	mixFractionMag	1.5
exchange-regularization WignerSeitzTruncated
fluid None
fluid-ex-corr (null) lda-PZ
fluid-gummel-loop 10 1.000000e-05
fluid-minimize  \
	dirUpdateScheme      PolakRibiere \
	linminMethod         DirUpdateRecommended \
	nIterations          100 \
	history              15 \
	knormThreshold       0 \
	energyDiffThreshold  0 \
	nEnergyDiff          2 \
	alphaTstart          1 \
	alphaTmin            1e-10 \
	updateTestStepSize   yes \
	alphaTreduceFactor   0.1 \
	alphaTincreaseFactor 3 \
	nAlphaAdjustMax      3 \
	wolfeEnergy          0.0001 \
	wolfeGradient        0.9 \
	fdTest               no
fluid-solvent H2O 55.338 ScalarEOS \
	epsBulk 78.4 \
	pMol 0.92466 \
	epsInf 1.77 \
	Pvap 1.06736e-10 \
	sigmaBulk 4.62e-05 \
	Rvdw 2.61727 \
	Res 1.42 \
	tauNuc 343133 \
	poleEl 15 7 1
forces-output-coords Positions
ion C   0.000000000000000  -0.000000000000000   0.000000000000000 1
ion N   0.164313074529992   0.328626149059985   0.000000000000000 1
ion N   0.164313074529992   0.835686925470008   0.000000000000000 1
ion N   0.666666666666667   0.333333333333333   0.000000000000000 1
ion N   0.671373850940015   0.835686925470008   0.000000000000000 1
ion B  -0.001576660817548   0.499211669591226   0.000000000000000 1
ion B   0.500788330408774   0.001576660817548   0.000000000000000 1
ion B   0.500788330408774   0.499211669591226   0.000000000000000 1
ion-species SG15/$ID_ONCV_PBE.upf
ion-width 0
ionic-minimize  \
	dirUpdateScheme      L-BFGS \
	linminMethod         DirUpdateRecommended \
	nIterations          0 \
	history              15 \
	knormThreshold       0.0001 \
	energyDiffThreshold  1e-06 \
	nEnergyDiff          2 \
	alphaTstart          1 \
	alphaTmin            1e-10 \
	updateTestStepSize   yes \
	alphaTreduceFactor   0.1 \
	alphaTincreaseFactor 3 \
	nAlphaAdjustMax      3 \
	wolfeEnergy          0.0001 \
	wolfeGradient        0.9 \
	fdTest               no
kpoint   0.000000000000   0.000000000000   0.000000000000  1.00000000000000
kpoint-folding 12 12 1 
latt-move-scale 1 1 1
latt-scale 1 1 1 
lattice  \
	   9.356640512437433   -4.678320256218713    0.000000000000000  \
	  -0.000000000000000    8.103088377849462    0.000000000000000  \
	   0.000000000000000    0.000000000000000   40.000000000000000 
lattice-minimize  \
	dirUpdateScheme      L-BFGS \
	linminMethod         DirUpdateRecommended \
	nIterations          0 \
	history              15 \
	knormThreshold       0 \
	energyDiffThreshold  1e-06 \
	nEnergyDiff          2 \
	alphaTstart          1 \
	alphaTmin            1e-10 \
	updateTestStepSize   yes \
	alphaTreduceFactor   0.1 \
	alphaTincreaseFactor 3 \
	nAlphaAdjustMax      3 \
	wolfeEnergy          0.0001 \
	wolfeGradient        0.9 \
	fdTest               no
lcao-params -1 1e-06 1e-05
pcm-variant GLSSA13
spintype z-spin
subspace-rotation-factor 1 yes
symmetries automatic
symmetry-threshold 0.0001



---------- Setting up symmetries ----------

Found 24 point-group symmetries of the bravais lattice
Found 12 space-group symmetries with basis
Applied RMS atom displacement 3.80214e-15 bohrs to make symmetries exact.

---------- Initializing the Grid ----------
R = 
[      9.35664     -4.67832            0  ]
[            0      8.10309            0  ]
[            0            0           40  ]
unit cell volume = 3032.71
G =
[   0.671522   0.387703         -0  ]
[          0   0.775406         -0  ]
[         -0         -0    0.15708  ]
Minimum fftbox size, Smin = [  40  40  164  ]
Chosen fftbox size, S = [  40  40  168  ]

---------- Exchange Correlation functional ----------
Initalized PBE GGA exchange.
Initalized PBE GGA correlation.

---------- Setting up pseudopotentials ----------
Width of ionic core gaussian charges (only for fluid interactions / plotting) set to 0

Reading pseudopotential file '/home/gridsan/aligho/DFT/build-Nov24/pseudopotentials/SG15/C_ONCV_PBE.upf':
  'C' pseudopotential, 'PBE' functional
  Generated using ONCVPSP code by D. R. Hamann
  Author: Martin Schlipf and Francois Gygi  Date: 150915.
  4 valence electrons, 2 orbitals, 4 projectors, 1248 radial grid points, with lMax = 1
  Transforming local potential to a uniform radial grid of dG=0.02 with 1502 points.
  Transforming nonlocal projectors to a uniform radial grid of dG=0.02 with 432 points.
    2S    l: 0   occupation:  2.0   eigenvalue: -0.505335
    2P    l: 1   occupation:  2.0   eigenvalue: -0.194238
  Transforming atomic orbitals to a uniform radial grid of dG=0.02 with 432 points.
  Core radius for overlap checks: 1.23 bohrs.
  Reading pulay file /home/gridsan/aligho/DFT/build-Nov24/pseudopotentials/SG15/C_ONCV_PBE.pulay ... using dE_dnG = -9.239532e-03 computed for Ecut = 20.

Reading pseudopotential file '/home/gridsan/aligho/DFT/build-Nov24/pseudopotentials/SG15/N_ONCV_PBE.upf':
  'N' pseudopotential, 'PBE' functional
  Generated using ONCVPSP code by D. R. Hamann
  Author: Martin Schlipf and Francois Gygi  Date: 150915.
  5 valence electrons, 2 orbitals, 4 projectors, 1058 radial grid points, with lMax = 1
  Transforming local potential to a uniform radial grid of dG=0.02 with 1502 points.
  Transforming nonlocal projectors to a uniform radial grid of dG=0.02 with 432 points.
    2S    l: 0   occupation:  2.0   eigenvalue: -0.682907
    2P    l: 1   occupation:  3.0   eigenvalue: -0.260548
  Transforming atomic orbitals to a uniform radial grid of dG=0.02 with 432 points.
  Core radius for overlap checks: 1.35 bohrs.
  Reading pulay file /home/gridsan/aligho/DFT/build-Nov24/pseudopotentials/SG15/N_ONCV_PBE.pulay ... using dE_dnG = -2.956256e-02 computed for Ecut = 20.

Reading pseudopotential file '/home/gridsan/aligho/DFT/build-Nov24/pseudopotentials/SG15/B_ONCV_PBE.upf':
  'B' pseudopotential, 'PBE' functional
  Generated using ONCVPSP code by D. R. Hamann
  Author: Martin Schlipf and Francois Gygi  Date: 150915.
  3 valence electrons, 2 orbitals, 4 projectors, 1534 radial grid points, with lMax = 1
  Transforming local potential to a uniform radial grid of dG=0.02 with 1502 points.
  Transforming nonlocal projectors to a uniform radial grid of dG=0.02 with 432 points.
    2S    l: 0   occupation:  2.0   eigenvalue: -0.347027
    2P    l: 1   occupation:  1.0   eigenvalue: -0.132548
  Transforming atomic orbitals to a uniform radial grid of dG=0.02 with 432 points.
  Core radius for overlap checks: 1.60 bohrs.
  Reading pulay file /home/gridsan/aligho/DFT/build-Nov24/pseudopotentials/SG15/B_ONCV_PBE.pulay ... using dE_dnG = -3.748568e-04 computed for Ecut = 20.

Initialized 3 species with 8 total atoms.

Folded 1 k-points by 12x12x1 to 144 k-points.

---------- Setting up k-points, bands, fillings ----------
Adding inversion symmetry to k-mesh for non-inversion-symmetric unit cell.
Reduced to 19 k-points under symmetry. 
Computing the number of bands and number of electrons
Calculating initial fillings.
nElectrons:  33.000000   nBands: 32   nStates: 38

----- Setting up reduced wavefunction bases (one per k-point) -----
average nbasis = 12955.938 , ideal nbasis = 12955.957

---------- Setting up coulomb interaction ----------
Initialized slab truncation along lattice direction 001

---------- Setting up 2D ewald sum ----------
Optimum gaussian width for ewald sums = 5.194429 bohr.
Real space sums over 289 unit cells with max indices [  8  8  0  ]
Reciprocal space sums over 81 terms with max indices [  4  4  0  ]

---------- Allocating electronic variables ----------
Initializing wave functions:  linear combination of atomic orbitals
C pseudo-atom occupations:   s ( 2 )  p ( 2 )
N pseudo-atom occupations:   s ( 2 )  p ( 3 )
B pseudo-atom occupations:   s ( 2 )  p ( 1 )
[d-6-12-3:76464] 37 more processes have sent help message help-mpi-common-cuda.txt / dlopen failed
[d-6-12-3:76464] Set MCA parameter "orte_base_help_aggregate" to 0 to see all help / error messages
[d-6-12-3:76464] 37 more processes have sent help message help-mpi-btl-openib-cpc-base.txt / no cpcs for port
	FillingsUpdate:  mu: -0.182182538  nElectrons: 33.000000  magneticMoment: [ Abs: 0.06156  Tot: +0.06000 ]
LCAOMinimize: Iter:   0  F: -53.3329272406135644  |grad|_K:  5.544e-03  alpha:  1.000e+00
	FillingsUpdate:  mu: -0.188910599  nElectrons: 33.000000  magneticMoment: [ Abs: 0.06168  Tot: +0.06000 ]
LCAOMinimize: Iter:   1  F: -53.5590135374641321  |grad|_K:  1.032e-03  alpha:  4.232e-01  linmin:  3.540e-01  cgtest: -8.131e-01  t[s]:      6.91
	FillingsUpdate:  mu: -0.182944020  nElectrons: 33.000000  magneticMoment: [ Abs: 0.06181  Tot: +0.06000 ]
LCAOMinimize: Iter:   2  F: -53.5606556188803324  |grad|_K:  8.760e-04  alpha:  2.293e-01  linmin: -9.315e-04  cgtest:  8.922e-01  t[s]:      8.90
LCAOMinimize: Encountered beta<0, resetting CG.
	FillingsUpdate:  mu: -0.182159263  nElectrons: 33.000000  magneticMoment: [ Abs: 0.06199  Tot: +0.06000 ]
LCAOMinimize: Iter:   3  F: -53.5665468527990143  |grad|_K:  1.025e-04  alpha:  3.764e-01  linmin:  1.001e-01  cgtest: -2.686e-01  t[s]:     10.91
	FillingsUpdate:  mu: -0.183324039  nElectrons: 33.000000  magneticMoment: [ Abs: 0.06217  Tot: +0.06000 ]
LCAOMinimize: Iter:   4  F: -53.5666181675093043  |grad|_K:  3.059e-05  alpha:  3.678e-01  linmin:  1.798e-03  cgtest:  3.775e-01  t[s]:     12.90
LCAOMinimize: Encountered beta<0, resetting CG.
	FillingsUpdate:  mu: -0.183450049  nElectrons: 33.000000  magneticMoment: [ Abs: 0.06230  Tot: +0.06000 ]
LCAOMinimize: Iter:   5  F: -53.5666251756890048  |grad|_K:  4.634e-06  alpha:  3.619e-01  linmin: -4.417e-04  cgtest: -1.146e-04  t[s]:     14.90
	FillingsUpdate:  mu: -0.183388153  nElectrons: 33.000000  magneticMoment: [ Abs: 0.06246  Tot: +0.06000 ]
LCAOMinimize: Iter:   6  F: -53.5666254189400846  |grad|_K:  1.845e-06  alpha:  5.475e-01  linmin: -1.739e-05  cgtest:  1.273e-04  t[s]:     16.92
	FillingsUpdate:  mu: -0.183388133  nElectrons: 33.000000  magneticMoment: [ Abs: 0.06260  Tot: +0.06000 ]
LCAOMinimize: Iter:   7  F: -53.5666254619608466  |grad|_K:  3.551e-07  alpha:  6.106e-01  linmin: -2.307e-04  cgtest:  1.336e-03  t[s]:     18.90
LCAOMinimize: Converged (|Delta F|<1.000000e-06 for 2 iters).


---- Citations for features of the code used in this run ----

   Software package:
      R. Sundararaman, K. Letchworth-Weaver, K.A. Schwarz, D. Gunceler, Y. Ozhabes and T.A. Arias, 'JDFTx: software for joint density-functional theory', SoftwareX 6, 278 (2017)

   gga-PBE exchange-correlation functional:
      J.P. Perdew, K. Burke and M. Ernzerhof, Phys. Rev. Lett. 77, 3865 (1996)

   Pseudopotentials:
      M Schlipf and F Gygi, Comput. Phys. Commun. 196, 36 (2015)

   Truncated Coulomb potentials:
      R. Sundararaman and T.A. Arias, Phys. Rev. B 87, 165122 (2013)

This list may not be complete. Please suggest additional citations or
report any other bugs at https://github.com/shankar1729/jdftx/issues

Initialization completed successfully at t[s]:     19.10


-------- Electronic minimization -----------
Will mix electronic density at each iteration.
	FillingsUpdate:  mu: -0.183388133  nElectrons: 33.000000  magneticMoment: [ Abs: 0.06260  Tot: +0.06000 ]
	FillingsUpdate:  mu: -0.197994912  nElectrons: 33.000000  magneticMoment: [ Abs: 0.06260  Tot: +0.06000 ]
SCF: Cycle:  0   F: -53.996809824837378   dF: -4.302e-01   |Residual|: 2.307e-01   |deigs|: 1.091e-01  t[s]:     23.75
	FillingsUpdate:  mu: -0.175448683  nElectrons: 33.000000  magneticMoment: [ Abs: 0.06566  Tot: +0.06000 ]
SCF: Cycle:  1   F: -54.017291500180832   dF: -2.048e-02   |Residual|: 1.288e-01   |deigs|: 2.707e-02  t[s]:     27.15
	FillingsUpdate:  mu: -0.144686327  nElectrons: 33.000000  magneticMoment: [ Abs: 0.06589  Tot: +0.06000 ]
SCF: Cycle:  2   F: -54.029955950023542   dF: -1.266e-02   |Residual|: 2.794e-02   |deigs|: 3.103e-02  t[s]:     30.58
	FillingsUpdate:  mu: -0.141100866  nElectrons: 33.000000  magneticMoment: [ Abs: 0.06605  Tot: +0.06000 ]
SCF: Cycle:  3   F: -54.030331376375479   dF: -3.754e-04   |Residual|: 1.590e-02   |deigs|: 8.489e-03  t[s]:     34.12
	FillingsUpdate:  mu: -0.128604662  nElectrons: 33.000000  magneticMoment: [ Abs: 0.06903  Tot: +0.06000 ]
SCF: Cycle:  4   F: -54.031010366473964   dF: -6.790e-04   |Residual|: 8.217e-03   |deigs|: 1.155e-02  t[s]:     37.64
	FillingsUpdate:  mu: -0.123274461  nElectrons: 33.000000  magneticMoment: [ Abs: 0.06827  Tot: +0.06000 ]
SCF: Cycle:  5   F: -54.031166509731250   dF: -1.561e-04   |Residual|: 5.469e-03   |deigs|: 5.050e-03  t[s]:     41.22
	FillingsUpdate:  mu: -0.116765787  nElectrons: 33.000000  magneticMoment: [ Abs: 0.06601  Tot: +0.06000 ]
SCF: Cycle:  6   F: -54.031191382516361   dF: -2.487e-05   |Residual|: 3.898e-03   |deigs|: 6.728e-03  t[s]:     44.77
	FillingsUpdate:  mu: -0.111774655  nElectrons: 33.000000  magneticMoment: [ Abs: 0.06785  Tot: +0.06000 ]
SCF: Cycle:  7   F: -54.031202003937572   dF: -1.062e-05   |Residual|: 3.082e-03   |deigs|: 5.530e-03  t[s]:     48.36
	FillingsUpdate:  mu: -0.108242433  nElectrons: 33.000000  magneticMoment: [ Abs: 0.06805  Tot: +0.06000 ]
SCF: Cycle:  8   F: -54.031226364664569   dF: -2.436e-05   |Residual|: 2.507e-03   |deigs|: 3.684e-03  t[s]:     51.99
	FillingsUpdate:  mu: -0.105981388  nElectrons: 33.000000  magneticMoment: [ Abs: 0.06707  Tot: +0.06000 ]
SCF: Cycle:  9   F: -54.031241678361397   dF: -1.531e-05   |Residual|: 2.014e-03   |deigs|: 2.462e-03  t[s]:     55.65
	FillingsUpdate:  mu: -0.102359258  nElectrons: 33.000000  magneticMoment: [ Abs: 0.06708  Tot: +0.06000 ]
SCF: Cycle: 10   F: -54.031257673822658   dF: -1.600e-05   |Residual|: 1.703e-03   |deigs|: 3.556e-03  t[s]:     59.34
	FillingsUpdate:  mu: -0.099919598  nElectrons: 33.000000  magneticMoment: [ Abs: 0.06616  Tot: +0.06000 ]
SCF: Cycle: 11   F: -54.031263084804010   dF: -5.411e-06   |Residual|: 1.383e-03   |deigs|: 2.274e-03  t[s]:     63.02
	FillingsUpdate:  mu: -0.097308645  nElectrons: 33.000000  magneticMoment: [ Abs: 0.06729  Tot: +0.06000 ]
SCF: Cycle: 12   F: -54.031264718322682   dF: -1.634e-06   |Residual|: 1.246e-03   |deigs|: 2.483e-03  t[s]:     66.71
	FillingsUpdate:  mu: -0.093526279  nElectrons: 33.000000  magneticMoment: [ Abs: 0.06739  Tot: +0.06000 ]
SCF: Cycle: 13   F: -54.031265755462726   dF: -1.037e-06   |Residual|: 1.122e-03   |deigs|: 3.533e-03  t[s]:     70.37
	FillingsUpdate:  mu: -0.089918171  nElectrons: 33.000000  magneticMoment: [ Abs: 0.06700  Tot: +0.06000 ]
SCF: Cycle: 14   F: -54.031266429851051   dF: -6.744e-07   |Residual|: 1.066e-03   |deigs|: 3.210e-03  t[s]:     74.08
	FillingsUpdate:  mu: -0.085923806  nElectrons: 33.000000  magneticMoment: [ Abs: 0.06673  Tot: +0.06000 ]
SCF: Cycle: 15   F: -54.031266540601649   dF: -1.108e-07   |Residual|: 9.287e-04   |deigs|: 3.823e-03  t[s]:     77.75
	FillingsUpdate:  mu: -0.082169487  nElectrons: 33.000000  magneticMoment: [ Abs: 0.06630  Tot: +0.06000 ]
SCF: Cycle: 16   F: -54.031267980671352   dF: -1.440e-06   |Residual|: 6.961e-04   |deigs|: 3.508e-03  t[s]:     81.42
	FillingsUpdate:  mu: -0.080141587  nElectrons: 33.000000  magneticMoment: [ Abs: 0.06647  Tot: +0.06000 ]
SCF: Cycle: 17   F: -54.031270347456910   dF: -2.367e-06   |Residual|: 4.872e-04   |deigs|: 1.803e-03  t[s]:     85.08
	FillingsUpdate:  mu: -0.079228426  nElectrons: 33.000000  magneticMoment: [ Abs: 0.06645  Tot: +0.06000 ]
SCF: Cycle: 18   F: -54.031271555174129   dF: -1.208e-06   |Residual|: 2.609e-04   |deigs|: 1.047e-03  t[s]:     88.73
	FillingsUpdate:  mu: -0.078989256  nElectrons: 33.000000  magneticMoment: [ Abs: 0.06622  Tot: +0.06000 ]
SCF: Cycle: 19   F: -54.031271925123519   dF: -3.699e-07   |Residual|: 1.491e-04   |deigs|: 4.159e-04  t[s]:     92.39
	FillingsUpdate:  mu: -0.078884951  nElectrons: 33.000000  magneticMoment: [ Abs: 0.06616  Tot: +0.06000 ]
SCF: Cycle: 20   F: -54.031272016985184   dF: -9.186e-08   |Residual|: 7.744e-05   |deigs|: 3.385e-04  t[s]:     96.05
	FillingsUpdate:  mu: -0.078870781  nElectrons: 33.000000  magneticMoment: [ Abs: 0.06611  Tot: +0.06000 ]
SCF: Cycle: 21   F: -54.031272055739535   dF: -3.875e-08   |Residual|: 4.007e-05   |deigs|: 3.323e-04  t[s]:     99.73
	FillingsUpdate:  mu: -0.078862076  nElectrons: 33.000000  magneticMoment: [ Abs: 0.06610  Tot: +0.06000 ]
SCF: Cycle: 22   F: -54.031272065113640   dF: -9.374e-09   |Residual|: 2.265e-05   |deigs|: 2.672e-04  t[s]:    103.40
	FillingsUpdate:  mu: -0.078865618  nElectrons: 33.000000  magneticMoment: [ Abs: 0.06610  Tot: +0.06000 ]
SCF: Cycle: 23   F: -54.031272071248559   dF: -6.135e-09   |Residual|: 1.291e-05   |deigs|: 4.608e-04  t[s]:    107.07
SCF: Converged (|Delta E|<1.000000e-08 for 2 iters).


# Ionic positions in lattice coordinates:
ion C  -0.000000000000000   0.000000000000000   0.000000000000000 1
ion N   0.164313074529992   0.328626149059985   0.000000000000000 1
ion N   0.164313074529992   0.835686925470008   0.000000000000000 1
ion N   0.666666666666667   0.333333333333333   0.000000000000000 1
ion N   0.671373850940015   0.835686925470008   0.000000000000000 1
ion B  -0.001576660817548   0.499211669591226   0.000000000000000 1
ion B   0.500788330408774   0.001576660817548   0.000000000000000 1
ion B   0.500788330408774   0.499211669591226   0.000000000000000 1

# Forces in Lattice coordinates:
force C   0.000000000000000  -0.000000000000000   0.000000000000000 1
force N   0.000000000000000  -0.041635371924657  -0.000000000000000 1
force N  -0.041635371924658   0.041635371924655  -0.000000000000000 1
force N   0.000000000000000   0.000000000000000   0.000000000000000 1
force N   0.041635371924658   0.000000000000000   0.000000000000000 1
force B   0.007392497073162  -0.000000000000000   0.000000000000000 1
force B   0.000000000000000  -0.007392497073162   0.000000000000000 1
force B  -0.007392497073162   0.007392497073162   0.000000000000000 1

# Energy components:
   Eewald =      -85.5148968124686775
       EH =      -43.5371613931843626
     Eloc =       54.1454795440634840
      Enl =       -2.2687710469971512
   Epulay =       -0.0000008322926719
      Exc =      -15.3340206523410991
       KE =       38.4780999680247859
-------------------------------------
     Etot =      -54.0312712251957024
       TS =        0.0000008460528535
-------------------------------------
        F =      -54.0312720712485586

IonicMinimize: Iter:   0  F: -54.031272071248559  |grad|_K:  1.845e-03  t[s]:    107.39
IonicMinimize: None of the convergence criteria satisfied after 0 iterations.

#--- Lowdin population analysis ---
# oxidation-state C +0.255
# magnetic-moments C +0.032
# oxidation-state N -0.254 -0.254 -0.381 -0.254
# magnetic-moments N -0.000 -0.000 +0.001 -0.000
# oxidation-state B +0.402 +0.402 +0.402
# magnetic-moments B +0.009 +0.009 +0.009


Dumping 'BN22BC-0.06.fillings' ... done
Dumping 'BN22BC-0.06.wfns' ... done
Dumping 'BN22BC-0.06.n_up' ... done
Dumping 'BN22BC-0.06.n_dn' ... done
Dumping 'BN22BC-0.06.eigenvals' ... done
End date and time: Sun Jan 30 23:11:07 2022  (Duration: 0-0:01:50.23)
Done!
