magnetization is -0.72
--------------------------------------------------------------------------
The library attempted to open the following supporting CUDA libraries,
but each of them failed.  CUDA-aware support is disabled.
libcuda.so.1: cannot open shared object file: No such file or directory
libcuda.dylib: cannot open shared object file: No such file or directory
/usr/lib64/libcuda.so.1: cannot open shared object file: No such file or directory
/usr/lib64/libcuda.dylib: cannot open shared object file: No such file or directory
If you are not interested in CUDA-aware support, then run with
--mca opal_warn_on_missing_libcuda 0 to suppress this message.  If you are interested
in CUDA-aware support, then try setting LD_LIBRARY_PATH to the location
of libcuda.so.1 to get passed this issue.
--------------------------------------------------------------------------
--------------------------------------------------------------------------
No OpenFabrics connection schemes reported that they were able to be
used on a specific port.  As such, the openib BTL (OpenFabrics
support) will be disabled for this port.

  Local host:           d-6-13-1
  Local device:         mlx5_1
  Local port:           1
  CPCs attempted:       rdmacm, udcm
--------------------------------------------------------------------------

*************** JDFTx 1.6.0 (git hash 42ebbcc2) ***************

Start date and time: Sun Jan 30 23:05:12 2022
Executable jdftx with command-line: -i BN22BC.in
Running on hosts (process indices):  d-6-13-1 (0-37)
Divided in process groups (process indices):  0 (0)  1 (1)  2 (2)  3 (3)  4 (4)  5 (5)  6 (6)  7 (7)  8 (8)  9 (9)  10 (10)  11 (11)  12 (12)  13 (13)  14 (14)  15 (15)  16 (16)  17 (17)  18 (18)  19 (19)  20 (20)  21 (21)  22 (22)  23 (23)  24 (24)  25 (25)  26 (26)  27 (27)  28 (28)  29 (29)  30 (30)  31 (31)  32 (32)  33 (33)  34 (34)  35 (35)  36 (36)  37 (37)
Resource initialization completed at t[s]:      0.00
Run totals: 38 processes, 48 threads, 0 GPUs


Input parsed successfully to the following command list (including defaults):

basis kpoint-dependent
coords-type Lattice
core-overlap-check vector
coulomb-interaction Slab 001
davidson-band-ratio 1.1
dump End State ElecDensity BandEigs
dump-name BN22BC--0.72.$VAR
elec-cutoff 20
elec-eigen-algo Davidson
elec-ex-corr gga-PBE
elec-initial-magnetization -0.720000 yes
elec-smearing Fermi 1e-05
electronic-minimize  \
	dirUpdateScheme      FletcherReeves \
	linminMethod         DirUpdateRecommended \
	nIterations          100 \
	history              15 \
	knormThreshold       0 \
	energyDiffThreshold  1e-08 \
	nEnergyDiff          2 \
	alphaTstart          1 \
	alphaTmin            1e-10 \
	updateTestStepSize   yes \
	alphaTreduceFactor   0.1 \
	alphaTincreaseFactor 3 \
	nAlphaAdjustMax      3 \
	wolfeEnergy          0.0001 \
	wolfeGradient        0.9 \
	fdTest               no
electronic-scf  \
	nIterations	1000 \
	energyDiffThreshold	1e-08 \
	residualThreshold	1e-07 \
	mixFraction	0.5 \
	qMetric	0.8 \
	history	10 \
	nEigSteps	2 \
	eigDiffThreshold	1e-08 \
	mixedVariable	Density \
	qKerker	0.8 \
	qKappa	-1 \
	verbose	no \
	mixFractionMag	1.5
exchange-regularization WignerSeitzTruncated
fluid None
fluid-ex-corr (null) lda-PZ
fluid-gummel-loop 10 1.000000e-05
fluid-minimize  \
	dirUpdateScheme      PolakRibiere \
	linminMethod         DirUpdateRecommended \
	nIterations          100 \
	history              15 \
	knormThreshold       0 \
	energyDiffThreshold  0 \
	nEnergyDiff          2 \
	alphaTstart          1 \
	alphaTmin            1e-10 \
	updateTestStepSize   yes \
	alphaTreduceFactor   0.1 \
	alphaTincreaseFactor 3 \
	nAlphaAdjustMax      3 \
	wolfeEnergy          0.0001 \
	wolfeGradient        0.9 \
	fdTest               no
fluid-solvent H2O 55.338 ScalarEOS \
	epsBulk 78.4 \
	pMol 0.92466 \
	epsInf 1.77 \
	Pvap 1.06736e-10 \
	sigmaBulk 4.62e-05 \
	Rvdw 2.61727 \
	Res 1.42 \
	tauNuc 343133 \
	poleEl 15 7 1
forces-output-coords Positions
ion C   0.000000000000000  -0.000000000000000   0.000000000000000 1
ion N   0.164313074529992   0.328626149059985   0.000000000000000 1
ion N   0.164313074529992   0.835686925470008   0.000000000000000 1
ion N   0.666666666666667   0.333333333333333   0.000000000000000 1
ion N   0.671373850940015   0.835686925470008   0.000000000000000 1
ion B  -0.001576660817548   0.499211669591226   0.000000000000000 1
ion B   0.500788330408774   0.001576660817548   0.000000000000000 1
ion B   0.500788330408774   0.499211669591226   0.000000000000000 1
ion-species SG15/$ID_ONCV_PBE.upf
ion-width 0
ionic-minimize  \
	dirUpdateScheme      L-BFGS \
	linminMethod         DirUpdateRecommended \
	nIterations          0 \
	history              15 \
	knormThreshold       0.0001 \
	energyDiffThreshold  1e-06 \
	nEnergyDiff          2 \
	alphaTstart          1 \
	alphaTmin            1e-10 \
	updateTestStepSize   yes \
	alphaTreduceFactor   0.1 \
	alphaTincreaseFactor 3 \
	nAlphaAdjustMax      3 \
	wolfeEnergy          0.0001 \
	wolfeGradient        0.9 \
	fdTest               no
kpoint   0.000000000000   0.000000000000   0.000000000000  1.00000000000000
kpoint-folding 12 12 1 
latt-move-scale 1 1 1
latt-scale 1 1 1 
lattice  \
	   9.356640512437433   -4.678320256218713    0.000000000000000  \
	  -0.000000000000000    8.103088377849462    0.000000000000000  \
	   0.000000000000000    0.000000000000000   40.000000000000000 
lattice-minimize  \
	dirUpdateScheme      L-BFGS \
	linminMethod         DirUpdateRecommended \
	nIterations          0 \
	history              15 \
	knormThreshold       0 \
	energyDiffThreshold  1e-06 \
	nEnergyDiff          2 \
	alphaTstart          1 \
	alphaTmin            1e-10 \
	updateTestStepSize   yes \
	alphaTreduceFactor   0.1 \
	alphaTincreaseFactor 3 \
	nAlphaAdjustMax      3 \
	wolfeEnergy          0.0001 \
	wolfeGradient        0.9 \
	fdTest               no
lcao-params -1 1e-06 1e-05
pcm-variant GLSSA13
spintype z-spin
subspace-rotation-factor 1 yes
symmetries automatic
symmetry-threshold 0.0001



---------- Setting up symmetries ----------

Found 24 point-group symmetries of the bravais lattice
Found 12 space-group symmetries with basis
Applied RMS atom displacement 3.80214e-15 bohrs to make symmetries exact.

---------- Initializing the Grid ----------
R = 
[      9.35664     -4.67832            0  ]
[            0      8.10309            0  ]
[            0            0           40  ]
unit cell volume = 3032.71
G =
[   0.671522   0.387703         -0  ]
[          0   0.775406         -0  ]
[         -0         -0    0.15708  ]
Minimum fftbox size, Smin = [  40  40  164  ]
Chosen fftbox size, S = [  40  40  168  ]

---------- Exchange Correlation functional ----------
Initalized PBE GGA exchange.
Initalized PBE GGA correlation.

---------- Setting up pseudopotentials ----------
Width of ionic core gaussian charges (only for fluid interactions / plotting) set to 0

Reading pseudopotential file '/home/gridsan/aligho/DFT/build-Nov24/pseudopotentials/SG15/C_ONCV_PBE.upf':
  'C' pseudopotential, 'PBE' functional
  Generated using ONCVPSP code by D. R. Hamann
  Author: Martin Schlipf and Francois Gygi  Date: 150915.
  4 valence electrons, 2 orbitals, 4 projectors, 1248 radial grid points, with lMax = 1
  Transforming local potential to a uniform radial grid of dG=0.02 with 1502 points.
  Transforming nonlocal projectors to a uniform radial grid of dG=0.02 with 432 points.
    2S    l: 0   occupation:  2.0   eigenvalue: -0.505335
    2P    l: 1   occupation:  2.0   eigenvalue: -0.194238
  Transforming atomic orbitals to a uniform radial grid of dG=0.02 with 432 points.
  Core radius for overlap checks: 1.23 bohrs.
  Reading pulay file /home/gridsan/aligho/DFT/build-Nov24/pseudopotentials/SG15/C_ONCV_PBE.pulay ... using dE_dnG = -9.239532e-03 computed for Ecut = 20.

Reading pseudopotential file '/home/gridsan/aligho/DFT/build-Nov24/pseudopotentials/SG15/N_ONCV_PBE.upf':
  'N' pseudopotential, 'PBE' functional
  Generated using ONCVPSP code by D. R. Hamann
  Author: Martin Schlipf and Francois Gygi  Date: 150915.
  5 valence electrons, 2 orbitals, 4 projectors, 1058 radial grid points, with lMax = 1
  Transforming local potential to a uniform radial grid of dG=0.02 with 1502 points.
  Transforming nonlocal projectors to a uniform radial grid of dG=0.02 with 432 points.
    2S    l: 0   occupation:  2.0   eigenvalue: -0.682907
    2P    l: 1   occupation:  3.0   eigenvalue: -0.260548
  Transforming atomic orbitals to a uniform radial grid of dG=0.02 with 432 points.
  Core radius for overlap checks: 1.35 bohrs.
  Reading pulay file /home/gridsan/aligho/DFT/build-Nov24/pseudopotentials/SG15/N_ONCV_PBE.pulay ... using dE_dnG = -2.956256e-02 computed for Ecut = 20.

Reading pseudopotential file '/home/gridsan/aligho/DFT/build-Nov24/pseudopotentials/SG15/B_ONCV_PBE.upf':
  'B' pseudopotential, 'PBE' functional
  Generated using ONCVPSP code by D. R. Hamann
  Author: Martin Schlipf and Francois Gygi  Date: 150915.
  3 valence electrons, 2 orbitals, 4 projectors, 1534 radial grid points, with lMax = 1
  Transforming local potential to a uniform radial grid of dG=0.02 with 1502 points.
  Transforming nonlocal projectors to a uniform radial grid of dG=0.02 with 432 points.
    2S    l: 0   occupation:  2.0   eigenvalue: -0.347027
    2P    l: 1   occupation:  1.0   eigenvalue: -0.132548
  Transforming atomic orbitals to a uniform radial grid of dG=0.02 with 432 points.
  Core radius for overlap checks: 1.60 bohrs.
  Reading pulay file /home/gridsan/aligho/DFT/build-Nov24/pseudopotentials/SG15/B_ONCV_PBE.pulay ... using dE_dnG = -3.748568e-04 computed for Ecut = 20.

Initialized 3 species with 8 total atoms.

Folded 1 k-points by 12x12x1 to 144 k-points.

---------- Setting up k-points, bands, fillings ----------
Adding inversion symmetry to k-mesh for non-inversion-symmetric unit cell.
Reduced to 19 k-points under symmetry. 
Computing the number of bands and number of electrons
Calculating initial fillings.
nElectrons:  33.000000   nBands: 32   nStates: 38

----- Setting up reduced wavefunction bases (one per k-point) -----
average nbasis = 12955.938 , ideal nbasis = 12955.957

---------- Setting up coulomb interaction ----------
Initialized slab truncation along lattice direction 001

---------- Setting up 2D ewald sum ----------
Optimum gaussian width for ewald sums = 5.194429 bohr.
Real space sums over 289 unit cells with max indices [  8  8  0  ]
Reciprocal space sums over 81 terms with max indices [  4  4  0  ]

---------- Allocating electronic variables ----------
Initializing wave functions:  linear combination of atomic orbitals
C pseudo-atom occupations:   s ( 2 )  p ( 2 )
N pseudo-atom occupations:   s ( 2 )  p ( 3 )
B pseudo-atom occupations:   s ( 2 )  p ( 1 )
[d-6-13-1:24943] 37 more processes have sent help message help-mpi-common-cuda.txt / dlopen failed
[d-6-13-1:24943] Set MCA parameter "orte_base_help_aggregate" to 0 to see all help / error messages
[d-6-13-1:24943] 37 more processes have sent help message help-mpi-btl-openib-cpc-base.txt / no cpcs for port
	FillingsUpdate:  mu: -0.181066380  nElectrons: 33.000000  magneticMoment: [ Abs: 0.73915  Tot: -0.72000 ]
LCAOMinimize: Iter:   0  F: -53.3521150210942068  |grad|_K:  5.357e-03  alpha:  1.000e+00
	FillingsUpdate:  mu: -0.183185662  nElectrons: 33.000000  magneticMoment: [ Abs: 0.74261  Tot: -0.72000 ]
LCAOMinimize: Iter:   1  F: -53.5632574536746944  |grad|_K:  9.395e-04  alpha:  4.265e-01  linmin:  3.351e-01  cgtest: -7.977e-01  t[s]:      6.98
	FillingsUpdate:  mu: -0.178045571  nElectrons: 33.000000  magneticMoment: [ Abs: 0.74423  Tot: -0.72000 ]
LCAOMinimize: Iter:   2  F: -53.5648197540685800  |grad|_K:  7.763e-04  alpha:  2.459e-01  linmin:  7.327e-04  cgtest:  8.729e-01  t[s]:      9.02
LCAOMinimize: Encountered beta<0, resetting CG.
	FillingsUpdate:  mu: -0.178715795  nElectrons: 33.000000  magneticMoment: [ Abs: 0.74620  Tot: -0.72000 ]
LCAOMinimize: Iter:   3  F: -53.5695094306631319  |grad|_K:  9.599e-05  alpha:  3.802e-01  linmin:  8.138e-02  cgtest: -1.960e-01  t[s]:     11.03
	FillingsUpdate:  mu: -0.179671595  nElectrons: 33.000000  magneticMoment: [ Abs: 0.74811  Tot: -0.72000 ]
LCAOMinimize: Iter:   4  F: -53.5695779810998047  |grad|_K:  2.749e-05  alpha:  3.854e-01  linmin:  2.028e-03  cgtest:  2.333e-01  t[s]:     13.01
LCAOMinimize: 	Predicted alpha/alphaT>3.000000, increasing alphaT to 1.156153e+00.
	FillingsUpdate:  mu: -0.179783261  nElectrons: 33.000000  magneticMoment: [ Abs: 0.75018  Tot: -0.72000 ]
LCAOMinimize: Iter:   5  F: -53.5695892494778718  |grad|_K:  1.797e-05  alpha:  5.947e-01  linmin:  2.888e-02  cgtest: -8.863e-02  t[s]:     15.71
	FillingsUpdate:  mu: -0.179368007  nElectrons: 33.000000  magneticMoment: [ Abs: 0.75254  Tot: -0.72000 ]
LCAOMinimize: Iter:   6  F: -53.5695933905559514  |grad|_K:  1.032e-05  alpha:  6.644e-01  linmin: -2.072e-03  cgtest:  3.715e-01  t[s]:     17.71
	FillingsUpdate:  mu: -0.179467641  nElectrons: 33.000000  magneticMoment: [ Abs: 0.75284  Tot: -0.72000 ]
LCAOMinimize: Iter:   7  F: -53.5695943830121664  |grad|_K:  2.211e-06  alpha:  4.501e-01  linmin:  1.548e-05  cgtest: -1.557e-02  t[s]:     19.71
	FillingsUpdate:  mu: -0.179502653  nElectrons: 33.000000  magneticMoment: [ Abs: 0.75286  Tot: -0.72000 ]
LCAOMinimize: Iter:   8  F: -53.5695944397185997  |grad|_K:  1.219e-06  alpha:  5.604e-01  linmin: -1.312e-04  cgtest:  7.649e-04  t[s]:     21.69
LCAOMinimize: Converged (|Delta F|<1.000000e-06 for 2 iters).


---- Citations for features of the code used in this run ----

   Software package:
      R. Sundararaman, K. Letchworth-Weaver, K.A. Schwarz, D. Gunceler, Y. Ozhabes and T.A. Arias, 'JDFTx: software for joint density-functional theory', SoftwareX 6, 278 (2017)

   gga-PBE exchange-correlation functional:
      J.P. Perdew, K. Burke and M. Ernzerhof, Phys. Rev. Lett. 77, 3865 (1996)

   Pseudopotentials:
      M Schlipf and F Gygi, Comput. Phys. Commun. 196, 36 (2015)

   Truncated Coulomb potentials:
      R. Sundararaman and T.A. Arias, Phys. Rev. B 87, 165122 (2013)

This list may not be complete. Please suggest additional citations or
report any other bugs at https://github.com/shankar1729/jdftx/issues

Initialization completed successfully at t[s]:     21.90


-------- Electronic minimization -----------
Will mix electronic density at each iteration.
	FillingsUpdate:  mu: -0.179502653  nElectrons: 33.000000  magneticMoment: [ Abs: 0.75286  Tot: -0.72000 ]
	FillingsUpdate:  mu: -0.193826757  nElectrons: 33.000000  magneticMoment: [ Abs: 0.75286  Tot: -0.72000 ]
SCF: Cycle:  0   F: -53.999596216283884   dF: -4.300e-01   |Residual|: 2.314e-01   |deigs|: 1.092e-01  t[s]:     26.47
	FillingsUpdate:  mu: -0.171689100  nElectrons: 33.000000  magneticMoment: [ Abs: 0.77951  Tot: -0.72000 ]
SCF: Cycle:  1   F: -54.019994089180258   dF: -2.040e-02   |Residual|: 1.291e-01   |deigs|: 2.706e-02  t[s]:     29.84
	FillingsUpdate:  mu: -0.140165482  nElectrons: 33.000000  magneticMoment: [ Abs: 0.80459  Tot: -0.72000 ]
SCF: Cycle:  2   F: -54.032587674447726   dF: -1.259e-02   |Residual|: 2.833e-02   |deigs|: 3.091e-02  t[s]:     33.25
	FillingsUpdate:  mu: -0.137048359  nElectrons: 33.000000  magneticMoment: [ Abs: 0.80631  Tot: -0.72000 ]
SCF: Cycle:  3   F: -54.032979285367546   dF: -3.916e-04   |Residual|: 1.612e-02   |deigs|: 8.500e-03  t[s]:     36.66
	FillingsUpdate:  mu: -0.126731345  nElectrons: 33.000000  magneticMoment: [ Abs: 0.79118  Tot: -0.72000 ]
SCF: Cycle:  4   F: -54.033573972981017   dF: -5.947e-04   |Residual|: 8.399e-03   |deigs|: 9.745e-03  t[s]:     40.11
	FillingsUpdate:  mu: -0.120934193  nElectrons: 33.000000  magneticMoment: [ Abs: 0.79518  Tot: -0.72000 ]
SCF: Cycle:  5   F: -54.033784261412379   dF: -2.103e-04   |Residual|: 6.605e-03   |deigs|: 5.436e-03  t[s]:     43.59
	FillingsUpdate:  mu: -0.114967598  nElectrons: 33.000000  magneticMoment: [ Abs: 0.79523  Tot: -0.72000 ]
SCF: Cycle:  6   F: -54.033850470849274   dF: -6.621e-05   |Residual|: 4.401e-03   |deigs|: 5.456e-03  t[s]:     47.10
	FillingsUpdate:  mu: -0.109866839  nElectrons: 33.000000  magneticMoment: [ Abs: 0.79394  Tot: -0.72000 ]
SCF: Cycle:  7   F: -54.033845789098898   dF: +4.682e-06   |Residual|: 3.321e-03   |deigs|: 6.236e-03  t[s]:     50.66
	FillingsUpdate:  mu: -0.105590643  nElectrons: 33.000000  magneticMoment: [ Abs: 0.79465  Tot: -0.72000 ]
SCF: Cycle:  8   F: -54.033866334785522   dF: -2.055e-05   |Residual|: 2.919e-03   |deigs|: 4.426e-03  t[s]:     54.23
	FillingsUpdate:  mu: -0.102427293  nElectrons: 33.000000  magneticMoment: [ Abs: 0.79124  Tot: -0.72000 ]
SCF: Cycle:  9   F: -54.033888243249038   dF: -2.191e-05   |Residual|: 2.069e-03   |deigs|: 3.467e-03  t[s]:     57.84
	FillingsUpdate:  mu: -0.100149004  nElectrons: 33.000000  magneticMoment: [ Abs: 0.79157  Tot: -0.72000 ]
SCF: Cycle: 10   F: -54.033901503461649   dF: -1.326e-05   |Residual|: 1.882e-03   |deigs|: 2.389e-03  t[s]:     61.48
	FillingsUpdate:  mu: -0.097324616  nElectrons: 33.000000  magneticMoment: [ Abs: 0.79330  Tot: -0.72000 ]
SCF: Cycle: 11   F: -54.033911136981338   dF: -9.634e-06   |Residual|: 1.461e-03   |deigs|: 2.685e-03  t[s]:     65.11
	FillingsUpdate:  mu: -0.094715293  nElectrons: 33.000000  magneticMoment: [ Abs: 0.79278  Tot: -0.72000 ]
SCF: Cycle: 12   F: -54.033915654298397   dF: -4.517e-06   |Residual|: 1.321e-03   |deigs|: 2.467e-03  t[s]:     68.74
	FillingsUpdate:  mu: -0.091702688  nElectrons: 33.000000  magneticMoment: [ Abs: 0.79244  Tot: -0.72000 ]
SCF: Cycle: 13   F: -54.033917983701684   dF: -2.329e-06   |Residual|: 1.184e-03   |deigs|: 2.804e-03  t[s]:     72.36
	FillingsUpdate:  mu: -0.088111558  nElectrons: 33.000000  magneticMoment: [ Abs: 0.79116  Tot: -0.72000 ]
SCF: Cycle: 14   F: -54.033918244754524   dF: -2.611e-07   |Residual|: 1.100e-03   |deigs|: 3.328e-03  t[s]:     75.98
	FillingsUpdate:  mu: -0.084280640  nElectrons: 33.000000  magneticMoment: [ Abs: 0.79170  Tot: -0.72000 ]
SCF: Cycle: 15   F: -54.033918336607698   dF: -9.185e-08   |Residual|: 1.028e-03   |deigs|: 3.403e-03  t[s]:     79.61
	FillingsUpdate:  mu: -0.080832845  nElectrons: 33.000000  magneticMoment: [ Abs: 0.79195  Tot: -0.72000 ]
SCF: Cycle: 16   F: -54.033919450599733   dF: -1.114e-06   |Residual|: 9.129e-04   |deigs|: 3.123e-03  t[s]:     83.24
	FillingsUpdate:  mu: -0.077964813  nElectrons: 33.000000  magneticMoment: [ Abs: 0.79193  Tot: -0.72000 ]
SCF: Cycle: 17   F: -54.033921585515174   dF: -2.135e-06   |Residual|: 6.792e-04   |deigs|: 2.575e-03  t[s]:     86.88
	FillingsUpdate:  mu: -0.076086517  nElectrons: 33.000000  magneticMoment: [ Abs: 0.79156  Tot: -0.72000 ]
SCF: Cycle: 18   F: -54.033923416520082   dF: -1.831e-06   |Residual|: 4.246e-04   |deigs|: 1.643e-03  t[s]:     90.52
	FillingsUpdate:  mu: -0.075253312  nElectrons: 33.000000  magneticMoment: [ Abs: 0.79134  Tot: -0.72000 ]
SCF: Cycle: 19   F: -54.033923978210879   dF: -5.617e-07   |Residual|: 2.427e-04   |deigs|: 8.237e-04  t[s]:     94.15
	FillingsUpdate:  mu: -0.074822372  nElectrons: 33.000000  magneticMoment: [ Abs: 0.79125  Tot: -0.72000 ]
SCF: Cycle: 20   F: -54.033924178921637   dF: -2.007e-07   |Residual|: 1.347e-04   |deigs|: 5.693e-04  t[s]:     97.80
	FillingsUpdate:  mu: -0.074634471  nElectrons: 33.000000  magneticMoment: [ Abs: 0.79124  Tot: -0.72000 ]
SCF: Cycle: 21   F: -54.033924224321233   dF: -4.540e-08   |Residual|: 7.771e-05   |deigs|: 5.811e-04  t[s]:    101.44
	FillingsUpdate:  mu: -0.074546305  nElectrons: 33.000000  magneticMoment: [ Abs: 0.79123  Tot: -0.72000 ]
SCF: Cycle: 22   F: -54.033924236609856   dF: -1.229e-08   |Residual|: 3.354e-05   |deigs|: 3.304e-04  t[s]:    105.04
	FillingsUpdate:  mu: -0.074511414  nElectrons: 33.000000  magneticMoment: [ Abs: 0.79121  Tot: -0.72000 ]
SCF: Cycle: 23   F: -54.033924241636171   dF: -5.026e-09   |Residual|: 1.474e-05   |deigs|: 4.032e-04  t[s]:    108.68
	FillingsUpdate:  mu: -0.074502046  nElectrons: 33.000000  magneticMoment: [ Abs: 0.79120  Tot: -0.72000 ]
SCF: Cycle: 24   F: -54.033924245058103   dF: -3.422e-09   |Residual|: 8.795e-06   |deigs|: 3.406e-04  t[s]:    112.30
SCF: Converged (|Delta E|<1.000000e-08 for 2 iters).


# Ionic positions in lattice coordinates:
ion C  -0.000000000000000   0.000000000000000   0.000000000000000 1
ion N   0.164313074529992   0.328626149059985   0.000000000000000 1
ion N   0.164313074529992   0.835686925470008   0.000000000000000 1
ion N   0.666666666666667   0.333333333333333   0.000000000000000 1
ion N   0.671373850940015   0.835686925470008   0.000000000000000 1
ion B  -0.001576660817548   0.499211669591226   0.000000000000000 1
ion B   0.500788330408774   0.001576660817548   0.000000000000000 1
ion B   0.500788330408774   0.499211669591226   0.000000000000000 1

# Forces in Lattice coordinates:
force C  -0.000000000000000   0.000000000000000   0.000000000000000 1
force N  -0.000000000000000  -0.020411617662200  -0.000000000000000 1
force N  -0.020411617662201   0.020411617662198  -0.000000000000000 1
force N   0.000000000000000   0.000000000000000   0.000000000000000 1
force N   0.020411617662201  -0.000000000000000   0.000000000000000 1
force B   0.009431379688008  -0.000000000000000   0.000000000000000 1
force B   0.000000000000000  -0.009431379688008  -0.000000000000000 1
force B  -0.009431379688008   0.009431379688008   0.000000000000000 1

# Energy components:
   Eewald =      -85.5148968124686775
       EH =      -43.5011564563279762
     Eloc =       54.0969132326938862
      Enl =       -2.2768402868271140
   Epulay =       -0.0000008322926719
      Exc =      -15.3458278099860408
       KE =       38.5078850260013041
-------------------------------------
     Etot =      -54.0339239392073125
       TS =        0.0000003058507891
-------------------------------------
        F =      -54.0339242450581025

IonicMinimize: Iter:   0  F: -54.033924245058103  |grad|_K:  9.811e-04  t[s]:    112.64
IonicMinimize: None of the convergence criteria satisfied after 0 iterations.

#--- Lowdin population analysis ---
# oxidation-state C +0.265
# magnetic-moments C -0.392
# oxidation-state N -0.260 -0.260 -0.384 -0.260
# magnetic-moments N +0.001 +0.001 -0.017 +0.001
# oxidation-state B +0.406 +0.406 +0.406
# magnetic-moments B -0.100 -0.100 -0.100


Dumping 'BN22BC--0.72.fillings' ... done
Dumping 'BN22BC--0.72.wfns' ... done
Dumping 'BN22BC--0.72.n_up' ... done
Dumping 'BN22BC--0.72.n_dn' ... done
Dumping 'BN22BC--0.72.eigenvals' ... done
End date and time: Sun Jan 30 23:07:10 2022  (Duration: 0-0:01:58.41)
Done!
