magnetization is 0.42
--------------------------------------------------------------------------
The library attempted to open the following supporting CUDA libraries,
but each of them failed.  CUDA-aware support is disabled.
libcuda.so.1: cannot open shared object file: No such file or directory
libcuda.dylib: cannot open shared object file: No such file or directory
/usr/lib64/libcuda.so.1: cannot open shared object file: No such file or directory
/usr/lib64/libcuda.dylib: cannot open shared object file: No such file or directory
If you are not interested in CUDA-aware support, then run with
--mca opal_warn_on_missing_libcuda 0 to suppress this message.  If you are interested
in CUDA-aware support, then try setting LD_LIBRARY_PATH to the location
of libcuda.so.1 to get passed this issue.
--------------------------------------------------------------------------
--------------------------------------------------------------------------
No OpenFabrics connection schemes reported that they were able to be
used on a specific port.  As such, the openib BTL (OpenFabrics
support) will be disabled for this port.

  Local host:           d-17-12-4
  Local device:         mlx5_1
  Local port:           1
  CPCs attempted:       rdmacm, udcm
--------------------------------------------------------------------------

*************** JDFTx 1.6.0 (git hash 42ebbcc2) ***************

Start date and time: Sun Jan 30 23:11:21 2022
Executable jdftx with command-line: -i BN22BC.in
Running on hosts (process indices):  d-17-12-4 (0-37)
Divided in process groups (process indices):  0 (0)  1 (1)  2 (2)  3 (3)  4 (4)  5 (5)  6 (6)  7 (7)  8 (8)  9 (9)  10 (10)  11 (11)  12 (12)  13 (13)  14 (14)  15 (15)  16 (16)  17 (17)  18 (18)  19 (19)  20 (20)  21 (21)  22 (22)  23 (23)  24 (24)  25 (25)  26 (26)  27 (27)  28 (28)  29 (29)  30 (30)  31 (31)  32 (32)  33 (33)  34 (34)  35 (35)  36 (36)  37 (37)
Resource initialization completed at t[s]:      0.00
Run totals: 38 processes, 48 threads, 0 GPUs


Input parsed successfully to the following command list (including defaults):

basis kpoint-dependent
coords-type Lattice
core-overlap-check vector
coulomb-interaction Slab 001
davidson-band-ratio 1.1
dump End State ElecDensity BandEigs
dump-name BN22BC-0.42.$VAR
elec-cutoff 20
elec-eigen-algo Davidson
elec-ex-corr gga-PBE
elec-initial-magnetization 0.420000 yes
elec-smearing Fermi 1e-05
electronic-minimize  \
	dirUpdateScheme      FletcherReeves \
	linminMethod         DirUpdateRecommended \
	nIterations          100 \
	history              15 \
	knormThreshold       0 \
	energyDiffThreshold  1e-08 \
	nEnergyDiff          2 \
	alphaTstart          1 \
	alphaTmin            1e-10 \
	updateTestStepSize   yes \
	alphaTreduceFactor   0.1 \
	alphaTincreaseFactor 3 \
	nAlphaAdjustMax      3 \
	wolfeEnergy          0.0001 \
	wolfeGradient        0.9 \
	fdTest               no
electronic-scf  \
	nIterations	1000 \
	energyDiffThreshold	1e-08 \
	residualThreshold	1e-07 \
	mixFraction	0.5 \
	qMetric	0.8 \
	history	10 \
	nEigSteps	2 \
	eigDiffThreshold	1e-08 \
	mixedVariable	Density \
	qKerker	0.8 \
	qKappa	-1 \
	verbose	no \
	mixFractionMag	1.5
exchange-regularization WignerSeitzTruncated
fluid None
fluid-ex-corr (null) lda-PZ
fluid-gummel-loop 10 1.000000e-05
fluid-minimize  \
	dirUpdateScheme      PolakRibiere \
	linminMethod         DirUpdateRecommended \
	nIterations          100 \
	history              15 \
	knormThreshold       0 \
	energyDiffThreshold  0 \
	nEnergyDiff          2 \
	alphaTstart          1 \
	alphaTmin            1e-10 \
	updateTestStepSize   yes \
	alphaTreduceFactor   0.1 \
	alphaTincreaseFactor 3 \
	nAlphaAdjustMax      3 \
	wolfeEnergy          0.0001 \
	wolfeGradient        0.9 \
	fdTest               no
fluid-solvent H2O 55.338 ScalarEOS \
	epsBulk 78.4 \
	pMol 0.92466 \
	epsInf 1.77 \
	Pvap 1.06736e-10 \
	sigmaBulk 4.62e-05 \
	Rvdw 2.61727 \
	Res 1.42 \
	tauNuc 343133 \
	poleEl 15 7 1
forces-output-coords Positions
ion C   0.000000000000000  -0.000000000000000   0.000000000000000 1
ion N   0.164313074529992   0.328626149059985   0.000000000000000 1
ion N   0.164313074529992   0.835686925470008   0.000000000000000 1
ion N   0.666666666666667   0.333333333333333   0.000000000000000 1
ion N   0.671373850940015   0.835686925470008   0.000000000000000 1
ion B  -0.001576660817548   0.499211669591226   0.000000000000000 1
ion B   0.500788330408774   0.001576660817548   0.000000000000000 1
ion B   0.500788330408774   0.499211669591226   0.000000000000000 1
ion-species SG15/$ID_ONCV_PBE.upf
ion-width 0
ionic-minimize  \
	dirUpdateScheme      L-BFGS \
	linminMethod         DirUpdateRecommended \
	nIterations          0 \
	history              15 \
	knormThreshold       0.0001 \
	energyDiffThreshold  1e-06 \
	nEnergyDiff          2 \
	alphaTstart          1 \
	alphaTmin            1e-10 \
	updateTestStepSize   yes \
	alphaTreduceFactor   0.1 \
	alphaTincreaseFactor 3 \
	nAlphaAdjustMax      3 \
	wolfeEnergy          0.0001 \
	wolfeGradient        0.9 \
	fdTest               no
kpoint   0.000000000000   0.000000000000   0.000000000000  1.00000000000000
kpoint-folding 12 12 1 
latt-move-scale 1 1 1
latt-scale 1 1 1 
lattice  \
	   9.356640512437433   -4.678320256218713    0.000000000000000  \
	  -0.000000000000000    8.103088377849462    0.000000000000000  \
	   0.000000000000000    0.000000000000000   40.000000000000000 
lattice-minimize  \
	dirUpdateScheme      L-BFGS \
	linminMethod         DirUpdateRecommended \
	nIterations          0 \
	history              15 \
	knormThreshold       0 \
	energyDiffThreshold  1e-06 \
	nEnergyDiff          2 \
	alphaTstart          1 \
	alphaTmin            1e-10 \
	updateTestStepSize   yes \
	alphaTreduceFactor   0.1 \
	alphaTincreaseFactor 3 \
	nAlphaAdjustMax      3 \
	wolfeEnergy          0.0001 \
	wolfeGradient        0.9 \
	fdTest               no
lcao-params -1 1e-06 1e-05
pcm-variant GLSSA13
spintype z-spin
subspace-rotation-factor 1 yes
symmetries automatic
symmetry-threshold 0.0001



---------- Setting up symmetries ----------

Found 24 point-group symmetries of the bravais lattice
Found 12 space-group symmetries with basis
Applied RMS atom displacement 3.80214e-15 bohrs to make symmetries exact.

---------- Initializing the Grid ----------
R = 
[      9.35664     -4.67832            0  ]
[            0      8.10309            0  ]
[            0            0           40  ]
unit cell volume = 3032.71
G =
[   0.671522   0.387703         -0  ]
[          0   0.775406         -0  ]
[         -0         -0    0.15708  ]
Minimum fftbox size, Smin = [  40  40  164  ]
Chosen fftbox size, S = [  40  40  168  ]

---------- Exchange Correlation functional ----------
Initalized PBE GGA exchange.
Initalized PBE GGA correlation.

---------- Setting up pseudopotentials ----------
Width of ionic core gaussian charges (only for fluid interactions / plotting) set to 0

Reading pseudopotential file '/home/gridsan/aligho/DFT/build-Nov24/pseudopotentials/SG15/C_ONCV_PBE.upf':
  'C' pseudopotential, 'PBE' functional
  Generated using ONCVPSP code by D. R. Hamann
  Author: Martin Schlipf and Francois Gygi  Date: 150915.
  4 valence electrons, 2 orbitals, 4 projectors, 1248 radial grid points, with lMax = 1
  Transforming local potential to a uniform radial grid of dG=0.02 with 1502 points.
  Transforming nonlocal projectors to a uniform radial grid of dG=0.02 with 432 points.
    2S    l: 0   occupation:  2.0   eigenvalue: -0.505335
    2P    l: 1   occupation:  2.0   eigenvalue: -0.194238
  Transforming atomic orbitals to a uniform radial grid of dG=0.02 with 432 points.
  Core radius for overlap checks: 1.23 bohrs.
  Reading pulay file /home/gridsan/aligho/DFT/build-Nov24/pseudopotentials/SG15/C_ONCV_PBE.pulay ... using dE_dnG = -9.239532e-03 computed for Ecut = 20.

Reading pseudopotential file '/home/gridsan/aligho/DFT/build-Nov24/pseudopotentials/SG15/N_ONCV_PBE.upf':
  'N' pseudopotential, 'PBE' functional
  Generated using ONCVPSP code by D. R. Hamann
  Author: Martin Schlipf and Francois Gygi  Date: 150915.
  5 valence electrons, 2 orbitals, 4 projectors, 1058 radial grid points, with lMax = 1
  Transforming local potential to a uniform radial grid of dG=0.02 with 1502 points.
  Transforming nonlocal projectors to a uniform radial grid of dG=0.02 with 432 points.
    2S    l: 0   occupation:  2.0   eigenvalue: -0.682907
    2P    l: 1   occupation:  3.0   eigenvalue: -0.260548
  Transforming atomic orbitals to a uniform radial grid of dG=0.02 with 432 points.
  Core radius for overlap checks: 1.35 bohrs.
  Reading pulay file /home/gridsan/aligho/DFT/build-Nov24/pseudopotentials/SG15/N_ONCV_PBE.pulay ... using dE_dnG = -2.956256e-02 computed for Ecut = 20.

Reading pseudopotential file '/home/gridsan/aligho/DFT/build-Nov24/pseudopotentials/SG15/B_ONCV_PBE.upf':
  'B' pseudopotential, 'PBE' functional
  Generated using ONCVPSP code by D. R. Hamann
  Author: Martin Schlipf and Francois Gygi  Date: 150915.
  3 valence electrons, 2 orbitals, 4 projectors, 1534 radial grid points, with lMax = 1
  Transforming local potential to a uniform radial grid of dG=0.02 with 1502 points.
  Transforming nonlocal projectors to a uniform radial grid of dG=0.02 with 432 points.
    2S    l: 0   occupation:  2.0   eigenvalue: -0.347027
    2P    l: 1   occupation:  1.0   eigenvalue: -0.132548
  Transforming atomic orbitals to a uniform radial grid of dG=0.02 with 432 points.
  Core radius for overlap checks: 1.60 bohrs.
  Reading pulay file /home/gridsan/aligho/DFT/build-Nov24/pseudopotentials/SG15/B_ONCV_PBE.pulay ... using dE_dnG = -3.748568e-04 computed for Ecut = 20.

Initialized 3 species with 8 total atoms.

Folded 1 k-points by 12x12x1 to 144 k-points.

---------- Setting up k-points, bands, fillings ----------
Adding inversion symmetry to k-mesh for non-inversion-symmetric unit cell.
Reduced to 19 k-points under symmetry. 
Computing the number of bands and number of electrons
Calculating initial fillings.
nElectrons:  33.000000   nBands: 32   nStates: 38

----- Setting up reduced wavefunction bases (one per k-point) -----
average nbasis = 12955.938 , ideal nbasis = 12955.957

---------- Setting up coulomb interaction ----------
Initialized slab truncation along lattice direction 001

---------- Setting up 2D ewald sum ----------
Optimum gaussian width for ewald sums = 5.194429 bohr.
Real space sums over 289 unit cells with max indices [  8  8  0  ]
Reciprocal space sums over 81 terms with max indices [  4  4  0  ]

---------- Allocating electronic variables ----------
Initializing wave functions:  linear combination of atomic orbitals
C pseudo-atom occupations:   s ( 2 )  p ( 2 )
N pseudo-atom occupations:   s ( 2 )  p ( 3 )
B pseudo-atom occupations:   s ( 2 )  p ( 1 )
[d-17-12-4:43313] 37 more processes have sent help message help-mpi-common-cuda.txt / dlopen failed
[d-17-12-4:43313] Set MCA parameter "orte_base_help_aggregate" to 0 to see all help / error messages
[d-17-12-4:43313] 37 more processes have sent help message help-mpi-btl-openib-cpc-base.txt / no cpcs for port
	FillingsUpdate:  mu: -0.181567205  nElectrons: 33.000000  magneticMoment: [ Abs: 0.43086  Tot: +0.42000 ]
LCAOMinimize: Iter:   0  F: -53.3411891079297718  |grad|_K:  5.467e-03  alpha:  1.000e+00
	FillingsUpdate:  mu: -0.185466259  nElectrons: 33.000000  magneticMoment: [ Abs: 0.43228  Tot: +0.42000 ]
LCAOMinimize: Iter:   1  F: -53.5609465640506102  |grad|_K:  9.652e-04  alpha:  4.241e-01  linmin:  3.490e-01  cgtest: -8.182e-01  t[s]:      6.96
	FillingsUpdate:  mu: -0.180615917  nElectrons: 33.000000  magneticMoment: [ Abs: 0.43318  Tot: +0.42000 ]
LCAOMinimize: Iter:   2  F: -53.5624143175419576  |grad|_K:  8.161e-04  alpha:  2.345e-01  linmin:  3.991e-04  cgtest:  8.879e-01  t[s]:      8.96
LCAOMinimize: Encountered beta<0, resetting CG.
	FillingsUpdate:  mu: -0.179805029  nElectrons: 33.000000  magneticMoment: [ Abs: 0.43440  Tot: +0.42000 ]
LCAOMinimize: Iter:   3  F: -53.5675772123589979  |grad|_K:  9.636e-05  alpha:  3.795e-01  linmin:  9.435e-02  cgtest: -2.375e-01  t[s]:     10.99
	FillingsUpdate:  mu: -0.180845195  nElectrons: 33.000000  magneticMoment: [ Abs: 0.43556  Tot: +0.42000 ]
LCAOMinimize: Iter:   4  F: -53.5676425847430764  |grad|_K:  2.782e-05  alpha:  3.736e-01  linmin: -5.326e-03  cgtest:  3.003e-01  t[s]:     13.01
LCAOMinimize: Encountered beta<0, resetting CG.
	FillingsUpdate:  mu: -0.181723336  nElectrons: 33.000000  magneticMoment: [ Abs: 0.43661  Tot: +0.42000 ]
LCAOMinimize: Iter:   5  F: -53.5676496184055395  |grad|_K:  3.120e-05  alpha:  5.294e-01  linmin:  6.457e-03  cgtest: -2.007e-01  t[s]:     15.02
	FillingsUpdate:  mu: -0.181630213  nElectrons: 33.000000  magneticMoment: [ Abs: 0.43736  Tot: +0.42000 ]
LCAOMinimize: Iter:   6  F: -53.5676523056580862  |grad|_K:  3.162e-05  alpha:  1.841e-01  linmin: -1.187e-02  cgtest:  8.184e-01  t[s]:     17.01
	FillingsUpdate:  mu: -0.181072555  nElectrons: 33.000000  magneticMoment: [ Abs: 0.43782  Tot: +0.42000 ]
LCAOMinimize: Iter:   7  F: -53.5676610766220094  |grad|_K:  1.181e-05  alpha:  4.250e-01  linmin:  3.840e-03  cgtest: -4.719e-04  t[s]:     19.03
	FillingsUpdate:  mu: -0.181174228  nElectrons: 33.000000  magneticMoment: [ Abs: 0.43785  Tot: +0.42000 ]
LCAOMinimize: Iter:   8  F: -53.5676624050959518  |grad|_K:  5.930e-06  alpha:  4.578e-01  linmin: -2.513e-01  cgtest:  9.496e-01  t[s]:     21.07
LCAOMinimize: Encountered beta<0, resetting CG.
	FillingsUpdate:  mu: -0.181290432  nElectrons: 33.000000  magneticMoment: [ Abs: 0.43774  Tot: +0.42000 ]
LCAOMinimize: Iter:   9  F: -53.5676628604917084  |grad|_K:  4.027e-06  alpha:  6.254e-01  linmin: -5.016e-04  cgtest: -2.653e-03  t[s]:     23.08
	FillingsUpdate:  mu: -0.181253362  nElectrons: 33.000000  magneticMoment: [ Abs: 0.43755  Tot: +0.42000 ]
LCAOMinimize: Iter:  10  F: -53.5676631725664834  |grad|_K:  1.115e-06  alpha:  9.441e-01  linmin:  5.415e-02  cgtest: -3.430e-01  t[s]:     25.08
LCAOMinimize: Converged (|Delta F|<1.000000e-06 for 2 iters).


---- Citations for features of the code used in this run ----

   Software package:
      R. Sundararaman, K. Letchworth-Weaver, K.A. Schwarz, D. Gunceler, Y. Ozhabes and T.A. Arias, 'JDFTx: software for joint density-functional theory', SoftwareX 6, 278 (2017)

   gga-PBE exchange-correlation functional:
      J.P. Perdew, K. Burke and M. Ernzerhof, Phys. Rev. Lett. 77, 3865 (1996)

   Pseudopotentials:
      M Schlipf and F Gygi, Comput. Phys. Commun. 196, 36 (2015)

   Truncated Coulomb potentials:
      R. Sundararaman and T.A. Arias, Phys. Rev. B 87, 165122 (2013)

This list may not be complete. Please suggest additional citations or
report any other bugs at https://github.com/shankar1729/jdftx/issues

Initialization completed successfully at t[s]:     25.28


-------- Electronic minimization -----------
Will mix electronic density at each iteration.
	FillingsUpdate:  mu: -0.181253362  nElectrons: 33.000000  magneticMoment: [ Abs: 0.43755  Tot: +0.42000 ]
	FillingsUpdate:  mu: -0.198022722  nElectrons: 33.000000  magneticMoment: [ Abs: 0.43755  Tot: +0.42000 ]
SCF: Cycle:  0   F: -53.998079546069924   dF: -4.304e-01   |Residual|: 2.314e-01   |deigs|: 1.091e-01  t[s]:     29.89
	FillingsUpdate:  mu: -0.176514077  nElectrons: 33.000000  magneticMoment: [ Abs: 0.45277  Tot: +0.42000 ]
SCF: Cycle:  1   F: -54.018301672632461   dF: -2.022e-02   |Residual|: 1.288e-01   |deigs|: 2.701e-02  t[s]:     33.27
	FillingsUpdate:  mu: -0.145236990  nElectrons: 33.000000  magneticMoment: [ Abs: 0.46926  Tot: +0.42000 ]
SCF: Cycle:  2   F: -54.031071330901156   dF: -1.277e-02   |Residual|: 2.867e-02   |deigs|: 3.128e-02  t[s]:     36.67
	FillingsUpdate:  mu: -0.141951797  nElectrons: 33.000000  magneticMoment: [ Abs: 0.47326  Tot: +0.42000 ]
SCF: Cycle:  3   F: -54.031398574069449   dF: -3.272e-04   |Residual|: 1.558e-02   |deigs|: 8.551e-03  t[s]:     40.11
	FillingsUpdate:  mu: -0.130742536  nElectrons: 33.000000  magneticMoment: [ Abs: 0.46326  Tot: +0.42000 ]
SCF: Cycle:  4   F: -54.032054045968209   dF: -6.555e-04   |Residual|: 8.136e-03   |deigs|: 1.040e-02  t[s]:     43.55
	FillingsUpdate:  mu: -0.125636021  nElectrons: 33.000000  magneticMoment: [ Abs: 0.46756  Tot: +0.42000 ]
SCF: Cycle:  5   F: -54.032224433172075   dF: -1.704e-04   |Residual|: 6.292e-03   |deigs|: 4.942e-03  t[s]:     47.01
	FillingsUpdate:  mu: -0.119361480  nElectrons: 33.000000  magneticMoment: [ Abs: 0.46566  Tot: +0.42000 ]
SCF: Cycle:  6   F: -54.032285042844833   dF: -6.061e-05   |Residual|: 4.215e-03   |deigs|: 5.838e-03  t[s]:     50.51
	FillingsUpdate:  mu: -0.114544835  nElectrons: 33.000000  magneticMoment: [ Abs: 0.46469  Tot: +0.42000 ]
SCF: Cycle:  7   F: -54.032278721058837   dF: +6.322e-06   |Residual|: 3.266e-03   |deigs|: 5.893e-03  t[s]:     54.05
	FillingsUpdate:  mu: -0.110279497  nElectrons: 33.000000  magneticMoment: [ Abs: 0.46529  Tot: +0.42000 ]
SCF: Cycle:  8   F: -54.032302355925637   dF: -2.363e-05   |Residual|: 2.790e-03   |deigs|: 4.413e-03  t[s]:     57.58
	FillingsUpdate:  mu: -0.107136671  nElectrons: 33.000000  magneticMoment: [ Abs: 0.46334  Tot: +0.42000 ]
SCF: Cycle:  9   F: -54.032323949815122   dF: -2.159e-05   |Residual|: 2.047e-03   |deigs|: 3.419e-03  t[s]:     61.16
	FillingsUpdate:  mu: -0.104911416  nElectrons: 33.000000  magneticMoment: [ Abs: 0.46412  Tot: +0.42000 ]
SCF: Cycle: 10   F: -54.032336293874579   dF: -1.234e-05   |Residual|: 1.847e-03   |deigs|: 2.323e-03  t[s]:     64.77
	FillingsUpdate:  mu: -0.101647911  nElectrons: 33.000000  magneticMoment: [ Abs: 0.46532  Tot: +0.42000 ]
SCF: Cycle: 11   F: -54.032345909737117   dF: -9.616e-06   |Residual|: 1.425e-03   |deigs|: 3.061e-03  t[s]:     68.39
	FillingsUpdate:  mu: -0.099382512  nElectrons: 33.000000  magneticMoment: [ Abs: 0.46395  Tot: +0.42000 ]
SCF: Cycle: 12   F: -54.032349062860291   dF: -3.153e-06   |Residual|: 1.311e-03   |deigs|: 2.112e-03  t[s]:     72.00
	FillingsUpdate:  mu: -0.095893040  nElectrons: 33.000000  magneticMoment: [ Abs: 0.46419  Tot: +0.42000 ]
SCF: Cycle: 13   F: -54.032350692545023   dF: -1.630e-06   |Residual|: 1.123e-03   |deigs|: 3.304e-03  t[s]:     75.60
	FillingsUpdate:  mu: -0.092293892  nElectrons: 33.000000  magneticMoment: [ Abs: 0.46318  Tot: +0.42000 ]
SCF: Cycle: 14   F: -54.032350722591175   dF: -3.005e-08   |Residual|: 1.102e-03   |deigs|: 3.235e-03  t[s]:     79.19
	FillingsUpdate:  mu: -0.088211366  nElectrons: 33.000000  magneticMoment: [ Abs: 0.46421  Tot: +0.42000 ]
SCF: Cycle: 15   F: -54.032350865320502   dF: -1.427e-07   |Residual|: 9.764e-04   |deigs|: 3.759e-03  t[s]:     82.79
	FillingsUpdate:  mu: -0.084547044  nElectrons: 33.000000  magneticMoment: [ Abs: 0.46433  Tot: +0.42000 ]
SCF: Cycle: 16   F: -54.032352283833092   dF: -1.419e-06   |Residual|: 8.092e-04   |deigs|: 3.402e-03  t[s]:     86.38
	FillingsUpdate:  mu: -0.082078751  nElectrons: 33.000000  magneticMoment: [ Abs: 0.46352  Tot: +0.42000 ]
SCF: Cycle: 17   F: -54.032354701754052   dF: -2.418e-06   |Residual|: 5.803e-04   |deigs|: 2.218e-03  t[s]:     89.99
	FillingsUpdate:  mu: -0.080805612  nElectrons: 33.000000  magneticMoment: [ Abs: 0.46343  Tot: +0.42000 ]
SCF: Cycle: 18   F: -54.032356255114244   dF: -1.553e-06   |Residual|: 3.627e-04   |deigs|: 1.161e-03  t[s]:     93.58
	FillingsUpdate:  mu: -0.080262654  nElectrons: 33.000000  magneticMoment: [ Abs: 0.46330  Tot: +0.42000 ]
SCF: Cycle: 19   F: -54.032356695852471   dF: -4.407e-07   |Residual|: 2.034e-04   |deigs|: 5.935e-04  t[s]:     97.20
	FillingsUpdate:  mu: -0.080020639  nElectrons: 33.000000  magneticMoment: [ Abs: 0.46326  Tot: +0.42000 ]
SCF: Cycle: 20   F: -54.032356796037973   dF: -1.002e-07   |Residual|: 1.155e-04   |deigs|: 2.966e-04  t[s]:    100.80
	FillingsUpdate:  mu: -0.079888167  nElectrons: 33.000000  magneticMoment: [ Abs: 0.46322  Tot: +0.42000 ]
SCF: Cycle: 21   F: -54.032356831992047   dF: -3.595e-08   |Residual|: 6.473e-05   |deigs|: 2.606e-04  t[s]:    104.38
	FillingsUpdate:  mu: -0.079806965  nElectrons: 33.000000  magneticMoment: [ Abs: 0.46318  Tot: +0.42000 ]
SCF: Cycle: 22   F: -54.032356848455620   dF: -1.646e-08   |Residual|: 3.080e-05   |deigs|: 2.667e-04  t[s]:    107.98
	FillingsUpdate:  mu: -0.079763481  nElectrons: 33.000000  magneticMoment: [ Abs: 0.46314  Tot: +0.42000 ]
SCF: Cycle: 23   F: -54.032356855060797   dF: -6.605e-09   |Residual|: 1.755e-05   |deigs|: 4.530e-04  t[s]:    111.58
	FillingsUpdate:  mu: -0.079746728  nElectrons: 33.000000  magneticMoment: [ Abs: 0.46314  Tot: +0.42000 ]
SCF: Cycle: 24   F: -54.032356857919197   dF: -2.858e-09   |Residual|: 1.214e-05   |deigs|: 1.561e-04  t[s]:    115.17
SCF: Converged (|Delta E|<1.000000e-08 for 2 iters).


# Ionic positions in lattice coordinates:
ion C  -0.000000000000000   0.000000000000000   0.000000000000000 1
ion N   0.164313074529992   0.328626149059985   0.000000000000000 1
ion N   0.164313074529992   0.835686925470008   0.000000000000000 1
ion N   0.666666666666667   0.333333333333333   0.000000000000000 1
ion N   0.671373850940015   0.835686925470008   0.000000000000000 1
ion B  -0.001576660817548   0.499211669591226   0.000000000000000 1
ion B   0.500788330408774   0.001576660817548   0.000000000000000 1
ion B   0.500788330408774   0.499211669591226   0.000000000000000 1

# Forces in Lattice coordinates:
force C   0.000000000000000  -0.000000000000000   0.000000000000000 1
force N   0.000000000000000  -0.035667266512242   0.000000000000000 1
force N  -0.035667266512244   0.035667266512241   0.000000000000000 1
force N   0.000000000000000   0.000000000000000   0.000000000000000 1
force N   0.035667266512244  -0.000000000000000   0.000000000000000 1
force B   0.007107736290263   0.000000000000000   0.000000000000000 1
force B  -0.000000000000000  -0.007107736290263  -0.000000000000000 1
force B  -0.007107736290263   0.007107736290263   0.000000000000000 1

# Energy components:
   Eewald =      -85.5148968124686775
       EH =      -43.5260104026962011
     Eloc =       54.1303587366019698
      Enl =       -2.2712098808290069
   Epulay =       -0.0000008322926719
      Exc =      -15.3377710273093690
       KE =       38.4871741346003517
-------------------------------------
     Etot =      -54.0323560843935979
       TS =        0.0000007735255995
-------------------------------------
        F =      -54.0323568579191971

IonicMinimize: Iter:   0  F: -54.032356857919197  |grad|_K:  1.587e-03  t[s]:    115.50
IonicMinimize: None of the convergence criteria satisfied after 0 iterations.

#--- Lowdin population analysis ---
# oxidation-state C +0.259
# magnetic-moments C +0.226
# oxidation-state N -0.256 -0.256 -0.381 -0.256
# magnetic-moments N -0.002 -0.002 +0.007 -0.002
# oxidation-state B +0.403 +0.403 +0.403
# magnetic-moments B +0.061 +0.061 +0.061


Dumping 'BN22BC-0.42.fillings' ... done
Dumping 'BN22BC-0.42.wfns' ... done
Dumping 'BN22BC-0.42.n_up' ... done
Dumping 'BN22BC-0.42.n_dn' ... done
Dumping 'BN22BC-0.42.eigenvals' ... done
End date and time: Sun Jan 30 23:13:19 2022  (Duration: 0-0:01:58.32)
Done!
