magnetization is 0.88
--------------------------------------------------------------------------
The library attempted to open the following supporting CUDA libraries,
but each of them failed.  CUDA-aware support is disabled.
libcuda.so.1: cannot open shared object file: No such file or directory
libcuda.dylib: cannot open shared object file: No such file or directory
/usr/lib64/libcuda.so.1: cannot open shared object file: No such file or directory
/usr/lib64/libcuda.dylib: cannot open shared object file: No such file or directory
If you are not interested in CUDA-aware support, then run with
--mca opal_warn_on_missing_libcuda 0 to suppress this message.  If you are interested
in CUDA-aware support, then try setting LD_LIBRARY_PATH to the location
of libcuda.so.1 to get passed this issue.
--------------------------------------------------------------------------
--------------------------------------------------------------------------
No OpenFabrics connection schemes reported that they were able to be
used on a specific port.  As such, the openib BTL (OpenFabrics
support) will be disabled for this port.

  Local host:           d-17-12-4
  Local device:         mlx5_1
  Local port:           1
  CPCs attempted:       rdmacm, udcm
--------------------------------------------------------------------------

*************** JDFTx 1.6.0 (git hash 42ebbcc2) ***************

Start date and time: Sun Jan 30 23:13:23 2022
Executable jdftx with command-line: -i BN22BC.in
Running on hosts (process indices):  d-17-12-4 (0-37)
Divided in process groups (process indices):  0 (0)  1 (1)  2 (2)  3 (3)  4 (4)  5 (5)  6 (6)  7 (7)  8 (8)  9 (9)  10 (10)  11 (11)  12 (12)  13 (13)  14 (14)  15 (15)  16 (16)  17 (17)  18 (18)  19 (19)  20 (20)  21 (21)  22 (22)  23 (23)  24 (24)  25 (25)  26 (26)  27 (27)  28 (28)  29 (29)  30 (30)  31 (31)  32 (32)  33 (33)  34 (34)  35 (35)  36 (36)  37 (37)
Resource initialization completed at t[s]:      0.00
Run totals: 38 processes, 48 threads, 0 GPUs


Input parsed successfully to the following command list (including defaults):

basis kpoint-dependent
coords-type Lattice
core-overlap-check vector
coulomb-interaction Slab 001
davidson-band-ratio 1.1
dump End State ElecDensity BandEigs
dump-name BN22BC-0.88.$VAR
elec-cutoff 20
elec-eigen-algo Davidson
elec-ex-corr gga-PBE
elec-initial-magnetization 0.880000 yes
elec-smearing Fermi 1e-05
electronic-minimize  \
	dirUpdateScheme      FletcherReeves \
	linminMethod         DirUpdateRecommended \
	nIterations          100 \
	history              15 \
	knormThreshold       0 \
	energyDiffThreshold  1e-08 \
	nEnergyDiff          2 \
	alphaTstart          1 \
	alphaTmin            1e-10 \
	updateTestStepSize   yes \
	alphaTreduceFactor   0.1 \
	alphaTincreaseFactor 3 \
	nAlphaAdjustMax      3 \
	wolfeEnergy          0.0001 \
	wolfeGradient        0.9 \
	fdTest               no
electronic-scf  \
	nIterations	1000 \
	energyDiffThreshold	1e-08 \
	residualThreshold	1e-07 \
	mixFraction	0.5 \
	qMetric	0.8 \
	history	10 \
	nEigSteps	2 \
	eigDiffThreshold	1e-08 \
	mixedVariable	Density \
	qKerker	0.8 \
	qKappa	-1 \
	verbose	no \
	mixFractionMag	1.5
exchange-regularization WignerSeitzTruncated
fluid None
fluid-ex-corr (null) lda-PZ
fluid-gummel-loop 10 1.000000e-05
fluid-minimize  \
	dirUpdateScheme      PolakRibiere \
	linminMethod         DirUpdateRecommended \
	nIterations          100 \
	history              15 \
	knormThreshold       0 \
	energyDiffThreshold  0 \
	nEnergyDiff          2 \
	alphaTstart          1 \
	alphaTmin            1e-10 \
	updateTestStepSize   yes \
	alphaTreduceFactor   0.1 \
	alphaTincreaseFactor 3 \
	nAlphaAdjustMax      3 \
	wolfeEnergy          0.0001 \
	wolfeGradient        0.9 \
	fdTest               no
fluid-solvent H2O 55.338 ScalarEOS \
	epsBulk 78.4 \
	pMol 0.92466 \
	epsInf 1.77 \
	Pvap 1.06736e-10 \
	sigmaBulk 4.62e-05 \
	Rvdw 2.61727 \
	Res 1.42 \
	tauNuc 343133 \
	poleEl 15 7 1
forces-output-coords Positions
ion C   0.000000000000000  -0.000000000000000   0.000000000000000 1
ion N   0.164313074529992   0.328626149059985   0.000000000000000 1
ion N   0.164313074529992   0.835686925470008   0.000000000000000 1
ion N   0.666666666666667   0.333333333333333   0.000000000000000 1
ion N   0.671373850940015   0.835686925470008   0.000000000000000 1
ion B  -0.001576660817548   0.499211669591226   0.000000000000000 1
ion B   0.500788330408774   0.001576660817548   0.000000000000000 1
ion B   0.500788330408774   0.499211669591226   0.000000000000000 1
ion-species SG15/$ID_ONCV_PBE.upf
ion-width 0
ionic-minimize  \
	dirUpdateScheme      L-BFGS \
	linminMethod         DirUpdateRecommended \
	nIterations          0 \
	history              15 \
	knormThreshold       0.0001 \
	energyDiffThreshold  1e-06 \
	nEnergyDiff          2 \
	alphaTstart          1 \
	alphaTmin            1e-10 \
	updateTestStepSize   yes \
	alphaTreduceFactor   0.1 \
	alphaTincreaseFactor 3 \
	nAlphaAdjustMax      3 \
	wolfeEnergy          0.0001 \
	wolfeGradient        0.9 \
	fdTest               no
kpoint   0.000000000000   0.000000000000   0.000000000000  1.00000000000000
kpoint-folding 12 12 1 
latt-move-scale 1 1 1
latt-scale 1 1 1 
lattice  \
	   9.356640512437433   -4.678320256218713    0.000000000000000  \
	  -0.000000000000000    8.103088377849462    0.000000000000000  \
	   0.000000000000000    0.000000000000000   40.000000000000000 
lattice-minimize  \
	dirUpdateScheme      L-BFGS \
	linminMethod         DirUpdateRecommended \
	nIterations          0 \
	history              15 \
	knormThreshold       0 \
	energyDiffThreshold  1e-06 \
	nEnergyDiff          2 \
	alphaTstart          1 \
	alphaTmin            1e-10 \
	updateTestStepSize   yes \
	alphaTreduceFactor   0.1 \
	alphaTincreaseFactor 3 \
	nAlphaAdjustMax      3 \
	wolfeEnergy          0.0001 \
	wolfeGradient        0.9 \
	fdTest               no
lcao-params -1 1e-06 1e-05
pcm-variant GLSSA13
spintype z-spin
subspace-rotation-factor 1 yes
symmetries automatic
symmetry-threshold 0.0001



---------- Setting up symmetries ----------

Found 24 point-group symmetries of the bravais lattice
Found 12 space-group symmetries with basis
Applied RMS atom displacement 3.80214e-15 bohrs to make symmetries exact.

---------- Initializing the Grid ----------
R = 
[      9.35664     -4.67832            0  ]
[            0      8.10309            0  ]
[            0            0           40  ]
unit cell volume = 3032.71
G =
[   0.671522   0.387703         -0  ]
[          0   0.775406         -0  ]
[         -0         -0    0.15708  ]
Minimum fftbox size, Smin = [  40  40  164  ]
Chosen fftbox size, S = [  40  40  168  ]

---------- Exchange Correlation functional ----------
Initalized PBE GGA exchange.
Initalized PBE GGA correlation.

---------- Setting up pseudopotentials ----------
Width of ionic core gaussian charges (only for fluid interactions / plotting) set to 0

Reading pseudopotential file '/home/gridsan/aligho/DFT/build-Nov24/pseudopotentials/SG15/C_ONCV_PBE.upf':
  'C' pseudopotential, 'PBE' functional
  Generated using ONCVPSP code by D. R. Hamann
  Author: Martin Schlipf and Francois Gygi  Date: 150915.
  4 valence electrons, 2 orbitals, 4 projectors, 1248 radial grid points, with lMax = 1
  Transforming local potential to a uniform radial grid of dG=0.02 with 1502 points.
  Transforming nonlocal projectors to a uniform radial grid of dG=0.02 with 432 points.
    2S    l: 0   occupation:  2.0   eigenvalue: -0.505335
    2P    l: 1   occupation:  2.0   eigenvalue: -0.194238
  Transforming atomic orbitals to a uniform radial grid of dG=0.02 with 432 points.
  Core radius for overlap checks: 1.23 bohrs.
  Reading pulay file /home/gridsan/aligho/DFT/build-Nov24/pseudopotentials/SG15/C_ONCV_PBE.pulay ... using dE_dnG = -9.239532e-03 computed for Ecut = 20.

Reading pseudopotential file '/home/gridsan/aligho/DFT/build-Nov24/pseudopotentials/SG15/N_ONCV_PBE.upf':
  'N' pseudopotential, 'PBE' functional
  Generated using ONCVPSP code by D. R. Hamann
  Author: Martin Schlipf and Francois Gygi  Date: 150915.
  5 valence electrons, 2 orbitals, 4 projectors, 1058 radial grid points, with lMax = 1
  Transforming local potential to a uniform radial grid of dG=0.02 with 1502 points.
  Transforming nonlocal projectors to a uniform radial grid of dG=0.02 with 432 points.
    2S    l: 0   occupation:  2.0   eigenvalue: -0.682907
    2P    l: 1   occupation:  3.0   eigenvalue: -0.260548
  Transforming atomic orbitals to a uniform radial grid of dG=0.02 with 432 points.
  Core radius for overlap checks: 1.35 bohrs.
  Reading pulay file /home/gridsan/aligho/DFT/build-Nov24/pseudopotentials/SG15/N_ONCV_PBE.pulay ... using dE_dnG = -2.956256e-02 computed for Ecut = 20.

Reading pseudopotential file '/home/gridsan/aligho/DFT/build-Nov24/pseudopotentials/SG15/B_ONCV_PBE.upf':
  'B' pseudopotential, 'PBE' functional
  Generated using ONCVPSP code by D. R. Hamann
  Author: Martin Schlipf and Francois Gygi  Date: 150915.
  3 valence electrons, 2 orbitals, 4 projectors, 1534 radial grid points, with lMax = 1
  Transforming local potential to a uniform radial grid of dG=0.02 with 1502 points.
  Transforming nonlocal projectors to a uniform radial grid of dG=0.02 with 432 points.
    2S    l: 0   occupation:  2.0   eigenvalue: -0.347027
    2P    l: 1   occupation:  1.0   eigenvalue: -0.132548
  Transforming atomic orbitals to a uniform radial grid of dG=0.02 with 432 points.
  Core radius for overlap checks: 1.60 bohrs.
  Reading pulay file /home/gridsan/aligho/DFT/build-Nov24/pseudopotentials/SG15/B_ONCV_PBE.pulay ... using dE_dnG = -3.748568e-04 computed for Ecut = 20.

Initialized 3 species with 8 total atoms.

Folded 1 k-points by 12x12x1 to 144 k-points.

---------- Setting up k-points, bands, fillings ----------
Adding inversion symmetry to k-mesh for non-inversion-symmetric unit cell.
Reduced to 19 k-points under symmetry. 
Computing the number of bands and number of electrons
Calculating initial fillings.
nElectrons:  33.000000   nBands: 32   nStates: 38

----- Setting up reduced wavefunction bases (one per k-point) -----
average nbasis = 12955.938 , ideal nbasis = 12955.957

---------- Setting up coulomb interaction ----------
Initialized slab truncation along lattice direction 001

---------- Setting up 2D ewald sum ----------
Optimum gaussian width for ewald sums = 5.194429 bohr.
Real space sums over 289 unit cells with max indices [  8  8  0  ]
Reciprocal space sums over 81 terms with max indices [  4  4  0  ]

---------- Allocating electronic variables ----------
Initializing wave functions:  linear combination of atomic orbitals
C pseudo-atom occupations:   s ( 2 )  p ( 2 )
N pseudo-atom occupations:   s ( 2 )  p ( 3 )
B pseudo-atom occupations:   s ( 2 )  p ( 1 )
[d-17-12-4:64610] 37 more processes have sent help message help-mpi-common-cuda.txt / dlopen failed
[d-17-12-4:64610] Set MCA parameter "orte_base_help_aggregate" to 0 to see all help / error messages
[d-17-12-4:64610] 37 more processes have sent help message help-mpi-btl-openib-cpc-base.txt / no cpcs for port
	FillingsUpdate:  mu: -0.180837557  nElectrons: 33.000000  magneticMoment: [ Abs: 0.90380  Tot: +0.88000 ]
LCAOMinimize: Iter:   0  F: -53.3610772947518726  |grad|_K:  5.258e-03  alpha:  1.000e+00
	FillingsUpdate:  mu: -0.182033668  nElectrons: 33.000000  magneticMoment: [ Abs: 0.90870  Tot: +0.88000 ]
LCAOMinimize: Iter:   1  F: -53.5647878755977942  |grad|_K:  9.106e-04  alpha:  4.280e-01  linmin:  3.144e-01  cgtest: -7.844e-01  t[s]:      6.83
	FillingsUpdate:  mu: -0.177206433  nElectrons: 33.000000  magneticMoment: [ Abs: 0.91099  Tot: +0.88000 ]
LCAOMinimize: Iter:   2  F: -53.5663921059009738  |grad|_K:  7.379e-04  alpha:  2.531e-01  linmin:  6.781e-04  cgtest:  8.598e-01  t[s]:      8.84
LCAOMinimize: Encountered beta<0, resetting CG.
	FillingsUpdate:  mu: -0.176712345  nElectrons: 33.000000  magneticMoment: [ Abs: 0.91360  Tot: +0.88000 ]
LCAOMinimize: Iter:   3  F: -53.5706529295632521  |grad|_K:  9.298e-05  alpha:  3.818e-01  linmin:  7.640e-02  cgtest: -1.742e-01  t[s]:     10.83
	FillingsUpdate:  mu: -0.177509813  nElectrons: 33.000000  magneticMoment: [ Abs: 0.91627  Tot: +0.88000 ]
LCAOMinimize: Iter:   4  F: -53.5707181823304950  |grad|_K:  2.547e-05  alpha:  3.867e-01  linmin:  2.545e-03  cgtest:  2.012e-01  t[s]:     12.83
	FillingsUpdate:  mu: -0.177511824  nElectrons: 33.000000  magneticMoment: [ Abs: 0.91905  Tot: +0.88000 ]
LCAOMinimize: Iter:   5  F: -53.5707260234436546  |grad|_K:  1.443e-05  alpha:  5.842e-01  linmin: -8.114e-04  cgtest:  3.245e-03  t[s]:     14.81
	FillingsUpdate:  mu: -0.177387575  nElectrons: 33.000000  magneticMoment: [ Abs: 0.92219  Tot: +0.88000 ]
LCAOMinimize: Iter:   6  F: -53.5707291548910405  |grad|_K:  6.381e-06  alpha:  7.257e-01  linmin: -1.332e-03  cgtest: -2.697e-03  t[s]:     16.79
	FillingsUpdate:  mu: -0.177430780  nElectrons: 33.000000  magneticMoment: [ Abs: 0.92294  Tot: +0.88000 ]
LCAOMinimize: Iter:   7  F: -53.5707295458167607  |grad|_K:  1.142e-06  alpha:  4.632e-01  linmin: -5.235e-05  cgtest: -1.222e-02  t[s]:     18.78
	FillingsUpdate:  mu: -0.177441900  nElectrons: 33.000000  magneticMoment: [ Abs: 0.92314  Tot: +0.88000 ]
LCAOMinimize: Iter:   8  F: -53.5707295656408391  |grad|_K:  4.727e-07  alpha:  7.340e-01  linmin: -6.455e-04  cgtest:  2.244e-03  t[s]:     20.75
LCAOMinimize: Converged (|Delta F|<1.000000e-06 for 2 iters).


---- Citations for features of the code used in this run ----

   Software package:
      R. Sundararaman, K. Letchworth-Weaver, K.A. Schwarz, D. Gunceler, Y. Ozhabes and T.A. Arias, 'JDFTx: software for joint density-functional theory', SoftwareX 6, 278 (2017)

   gga-PBE exchange-correlation functional:
      J.P. Perdew, K. Burke and M. Ernzerhof, Phys. Rev. Lett. 77, 3865 (1996)

   Pseudopotentials:
      M Schlipf and F Gygi, Comput. Phys. Commun. 196, 36 (2015)

   Truncated Coulomb potentials:
      R. Sundararaman and T.A. Arias, Phys. Rev. B 87, 165122 (2013)

This list may not be complete. Please suggest additional citations or
report any other bugs at https://github.com/shankar1729/jdftx/issues

Initialization completed successfully at t[s]:     20.95


-------- Electronic minimization -----------
Will mix electronic density at each iteration.
	FillingsUpdate:  mu: -0.177441900  nElectrons: 33.000000  magneticMoment: [ Abs: 0.92314  Tot: +0.88000 ]
	FillingsUpdate:  mu: -0.191716469  nElectrons: 33.000000  magneticMoment: [ Abs: 0.92314  Tot: +0.88000 ]
SCF: Cycle:  0   F: -54.001013745566837   dF: -4.303e-01   |Residual|: 2.321e-01   |deigs|: 1.089e-01  t[s]:     25.54
	FillingsUpdate:  mu: -0.170161580  nElectrons: 33.000000  magneticMoment: [ Abs: 0.95809  Tot: +0.88000 ]
SCF: Cycle:  1   F: -54.020777140269580   dF: -1.976e-02   |Residual|: 1.295e-01   |deigs|: 2.699e-02  t[s]:     28.92
	FillingsUpdate:  mu: -0.140666117  nElectrons: 33.000000  magneticMoment: [ Abs: 0.97773  Tot: +0.88000 ]
SCF: Cycle:  2   F: -54.033399500305705   dF: -1.262e-02   |Residual|: 2.847e-02   |deigs|: 3.113e-02  t[s]:     32.34
	FillingsUpdate:  mu: -0.137490808  nElectrons: 33.000000  magneticMoment: [ Abs: 0.98132  Tot: +0.88000 ]
SCF: Cycle:  3   F: -54.033779968319230   dF: -3.805e-04   |Residual|: 1.628e-02   |deigs|: 8.702e-03  t[s]:     35.78
	FillingsUpdate:  mu: -0.127237188  nElectrons: 33.000000  magneticMoment: [ Abs: 0.96416  Tot: +0.88000 ]
SCF: Cycle:  4   F: -54.034361679298136   dF: -5.817e-04   |Residual|: 8.579e-03   |deigs|: 9.708e-03  t[s]:     39.23
	FillingsUpdate:  mu: -0.121495265  nElectrons: 33.000000  magneticMoment: [ Abs: 0.96877  Tot: +0.88000 ]
SCF: Cycle:  5   F: -54.034580491684459   dF: -2.188e-04   |Residual|: 6.679e-03   |deigs|: 5.369e-03  t[s]:     42.71
	FillingsUpdate:  mu: -0.115482227  nElectrons: 33.000000  magneticMoment: [ Abs: 0.96863  Tot: +0.88000 ]
SCF: Cycle:  6   F: -54.034648853410637   dF: -6.836e-05   |Residual|: 4.392e-03   |deigs|: 5.501e-03  t[s]:     46.22
	FillingsUpdate:  mu: -0.110447368  nElectrons: 33.000000  magneticMoment: [ Abs: 0.96690  Tot: +0.88000 ]
SCF: Cycle:  7   F: -54.034644432120380   dF: +4.421e-06   |Residual|: 3.344e-03   |deigs|: 6.248e-03  t[s]:     49.78
	FillingsUpdate:  mu: -0.106290655  nElectrons: 33.000000  magneticMoment: [ Abs: 0.96773  Tot: +0.88000 ]
SCF: Cycle:  8   F: -54.034664023322485   dF: -1.959e-05   |Residual|: 2.915e-03   |deigs|: 4.289e-03  t[s]:     53.35
	FillingsUpdate:  mu: -0.102967350  nElectrons: 33.000000  magneticMoment: [ Abs: 0.96432  Tot: +0.88000 ]
SCF: Cycle:  9   F: -54.034686459236354   dF: -2.244e-05   |Residual|: 2.086e-03   |deigs|: 3.550e-03  t[s]:     56.95
	FillingsUpdate:  mu: -0.100693832  nElectrons: 33.000000  magneticMoment: [ Abs: 0.96464  Tot: +0.88000 ]
SCF: Cycle: 10   F: -54.034700259215789   dF: -1.380e-05   |Residual|: 1.848e-03   |deigs|: 2.381e-03  t[s]:     60.56
	FillingsUpdate:  mu: -0.097945463  nElectrons: 33.000000  magneticMoment: [ Abs: 0.96624  Tot: +0.88000 ]
SCF: Cycle: 11   F: -54.034709441965532   dF: -9.183e-06   |Residual|: 1.465e-03   |deigs|: 2.691e-03  t[s]:     64.16
	FillingsUpdate:  mu: -0.095311051  nElectrons: 33.000000  magneticMoment: [ Abs: 0.96580  Tot: +0.88000 ]
SCF: Cycle: 12   F: -54.034714034728189   dF: -4.593e-06   |Residual|: 1.327e-03   |deigs|: 2.488e-03  t[s]:     67.76
	FillingsUpdate:  mu: -0.092264106  nElectrons: 33.000000  magneticMoment: [ Abs: 0.96556  Tot: +0.88000 ]
SCF: Cycle: 13   F: -54.034716277631283   dF: -2.243e-06   |Residual|: 1.189e-03   |deigs|: 2.811e-03  t[s]:     71.36
	FillingsUpdate:  mu: -0.088507221  nElectrons: 33.000000  magneticMoment: [ Abs: 0.96430  Tot: +0.88000 ]
SCF: Cycle: 14   F: -54.034716423665948   dF: -1.460e-07   |Residual|: 1.101e-03   |deigs|: 3.488e-03  t[s]:     74.96
	FillingsUpdate:  mu: -0.084787195  nElectrons: 33.000000  magneticMoment: [ Abs: 0.96483  Tot: +0.88000 ]
SCF: Cycle: 15   F: -54.034716643070020   dF: -2.194e-07   |Residual|: 1.033e-03   |deigs|: 3.308e-03  t[s]:     78.56
	FillingsUpdate:  mu: -0.081298795  nElectrons: 33.000000  magneticMoment: [ Abs: 0.96508  Tot: +0.88000 ]
SCF: Cycle: 16   F: -54.034717628769251   dF: -9.857e-07   |Residual|: 9.117e-04   |deigs|: 3.174e-03  t[s]:     82.16
	FillingsUpdate:  mu: -0.078408433  nElectrons: 33.000000  magneticMoment: [ Abs: 0.96513  Tot: +0.88000 ]
SCF: Cycle: 17   F: -54.034719616344326   dF: -1.988e-06   |Residual|: 6.760e-04   |deigs|: 2.629e-03  t[s]:     85.77
	FillingsUpdate:  mu: -0.076463461  nElectrons: 33.000000  magneticMoment: [ Abs: 0.96467  Tot: +0.88000 ]
SCF: Cycle: 18   F: -54.034721494542552   dF: -1.878e-06   |Residual|: 4.112e-04   |deigs|: 1.715e-03  t[s]:     89.38
	FillingsUpdate:  mu: -0.075639260  nElectrons: 33.000000  magneticMoment: [ Abs: 0.96441  Tot: +0.88000 ]
SCF: Cycle: 19   F: -54.034722098537692   dF: -6.040e-07   |Residual|: 2.369e-04   |deigs|: 8.306e-04  t[s]:     92.98
	FillingsUpdate:  mu: -0.075228186  nElectrons: 33.000000  magneticMoment: [ Abs: 0.96435  Tot: +0.88000 ]
SCF: Cycle: 20   F: -54.034722295638311   dF: -1.971e-07   |Residual|: 1.316e-04   |deigs|: 6.454e-04  t[s]:     96.59
	FillingsUpdate:  mu: -0.075047638  nElectrons: 33.000000  magneticMoment: [ Abs: 0.96435  Tot: +0.88000 ]
SCF: Cycle: 21   F: -54.034722341615407   dF: -4.598e-08   |Residual|: 7.059e-05   |deigs|: 3.669e-04  t[s]:    100.19
	FillingsUpdate:  mu: -0.074981716  nElectrons: 33.000000  magneticMoment: [ Abs: 0.96434  Tot: +0.88000 ]
SCF: Cycle: 22   F: -54.034722355570956   dF: -1.396e-08   |Residual|: 3.049e-05   |deigs|: 3.005e-04  t[s]:    103.80
	FillingsUpdate:  mu: -0.074960032  nElectrons: 33.000000  magneticMoment: [ Abs: 0.96433  Tot: +0.88000 ]
SCF: Cycle: 23   F: -54.034722363474081   dF: -7.903e-09   |Residual|: 1.247e-05   |deigs|: 3.243e-04  t[s]:    107.42
	FillingsUpdate:  mu: -0.074956123  nElectrons: 33.000000  magneticMoment: [ Abs: 0.96432  Tot: +0.88000 ]
SCF: Cycle: 24   F: -54.034722365414105   dF: -1.940e-09   |Residual|: 7.464e-06   |deigs|: 3.968e-04  t[s]:    111.03
SCF: Converged (|Delta E|<1.000000e-08 for 2 iters).


# Ionic positions in lattice coordinates:
ion C  -0.000000000000000   0.000000000000000   0.000000000000000 1
ion N   0.164313074529992   0.328626149059985   0.000000000000000 1
ion N   0.164313074529992   0.835686925470008   0.000000000000000 1
ion N   0.666666666666667   0.333333333333333   0.000000000000000 1
ion N   0.671373850940015   0.835686925470008   0.000000000000000 1
ion B  -0.001576660817548   0.499211669591226   0.000000000000000 1
ion B   0.500788330408774   0.001576660817548   0.000000000000000 1
ion B   0.500788330408774   0.499211669591226   0.000000000000000 1

# Forces in Lattice coordinates:
force C   0.000000000000000  -0.000000000000000   0.000000000000000 1
force N   0.000000000000000  -0.010734668331482   0.000000000000000 1
force N  -0.010734668331484   0.010734668331481   0.000000000000000 1
force N  -0.000000000000000   0.000000000000000   0.000000000000000 1
force N   0.010734668331484   0.000000000000000   0.000000000000000 1
force B   0.004140181894343   0.000000000000000   0.000000000000000 1
force B   0.000000000000000  -0.004140181894343   0.000000000000000 1
force B  -0.004140181894344   0.004140181894343  -0.000000000000000 1

# Energy components:
   Eewald =      -85.5148968124686775
       EH =      -43.4799473367792046
     Eloc =       54.0680902110426871
      Enl =       -2.2811283106946663
   Epulay =       -0.0000008322926719
      Exc =      -15.3519158863508309
       KE =       38.5250769410932890
-------------------------------------
     Etot =      -54.0347220264500834
       TS =        0.0000003389640239
-------------------------------------
        F =      -54.0347223654141047

IonicMinimize: Iter:   0  F: -54.034722365414105  |grad|_K:  5.020e-04  t[s]:    111.36
IonicMinimize: None of the convergence criteria satisfied after 0 iterations.

#--- Lowdin population analysis ---
# oxidation-state C +0.275
# magnetic-moments C +0.489
# oxidation-state N -0.264 -0.264 -0.383 -0.264
# magnetic-moments N +0.001 +0.001 +0.027 +0.001
# oxidation-state B +0.405 +0.405 +0.405
# magnetic-moments B +0.114 +0.114 +0.114


Dumping 'BN22BC-0.88.fillings' ... done
Dumping 'BN22BC-0.88.wfns' ... done
Dumping 'BN22BC-0.88.n_up' ... done
Dumping 'BN22BC-0.88.n_dn' ... done
Dumping 'BN22BC-0.88.eigenvals' ... done
End date and time: Sun Jan 30 23:15:17 2022  (Duration: 0-0:01:53.90)
Done!
