magnetization is 0.0
--------------------------------------------------------------------------
The library attempted to open the following supporting CUDA libraries,
but each of them failed.  CUDA-aware support is disabled.
libcuda.so.1: cannot open shared object file: No such file or directory
libcuda.dylib: cannot open shared object file: No such file or directory
/usr/lib64/libcuda.so.1: cannot open shared object file: No such file or directory
/usr/lib64/libcuda.dylib: cannot open shared object file: No such file or directory
If you are not interested in CUDA-aware support, then run with
--mca opal_warn_on_missing_libcuda 0 to suppress this message.  If you are interested
in CUDA-aware support, then try setting LD_LIBRARY_PATH to the location
of libcuda.so.1 to get passed this issue.
--------------------------------------------------------------------------
--------------------------------------------------------------------------
No OpenFabrics connection schemes reported that they were able to be
used on a specific port.  As such, the openib BTL (OpenFabrics
support) will be disabled for this port.

  Local host:           d-5-1-1
  Local device:         mlx5_1
  Local port:           1
  CPCs attempted:       rdmacm, udcm
--------------------------------------------------------------------------

*************** JDFTx 1.6.0 (git hash 42ebbcc2) ***************

Start date and time: Sun Jan 30 23:09:17 2022
Executable jdftx with command-line: -i BN22BC.in
Running on hosts (process indices):  d-5-1-1 (0-37)
Divided in process groups (process indices):  0 (0)  1 (1)  2 (2)  3 (3)  4 (4)  5 (5)  6 (6)  7 (7)  8 (8)  9 (9)  10 (10)  11 (11)  12 (12)  13 (13)  14 (14)  15 (15)  16 (16)  17 (17)  18 (18)  19 (19)  20 (20)  21 (21)  22 (22)  23 (23)  24 (24)  25 (25)  26 (26)  27 (27)  28 (28)  29 (29)  30 (30)  31 (31)  32 (32)  33 (33)  34 (34)  35 (35)  36 (36)  37 (37)
Resource initialization completed at t[s]:      0.00
Run totals: 38 processes, 48 threads, 0 GPUs


Input parsed successfully to the following command list (including defaults):

basis kpoint-dependent
coords-type Lattice
core-overlap-check vector
coulomb-interaction Slab 001
davidson-band-ratio 1.1
dump End State ElecDensity BandEigs
dump-name BN22BC-0.0.$VAR
elec-cutoff 20
elec-eigen-algo Davidson
elec-ex-corr gga-PBE
elec-initial-magnetization 0.000000 yes
elec-smearing Fermi 1e-05
electronic-minimize  \
	dirUpdateScheme      FletcherReeves \
	linminMethod         DirUpdateRecommended \
	nIterations          100 \
	history              15 \
	knormThreshold       0 \
	energyDiffThreshold  1e-08 \
	nEnergyDiff          2 \
	alphaTstart          1 \
	alphaTmin            1e-10 \
	updateTestStepSize   yes \
	alphaTreduceFactor   0.1 \
	alphaTincreaseFactor 3 \
	nAlphaAdjustMax      3 \
	wolfeEnergy          0.0001 \
	wolfeGradient        0.9 \
	fdTest               no
electronic-scf  \
	nIterations	1000 \
	energyDiffThreshold	1e-08 \
	residualThreshold	1e-07 \
	mixFraction	0.5 \
	qMetric	0.8 \
	history	10 \
	nEigSteps	2 \
	eigDiffThreshold	1e-08 \
	mixedVariable	Density \
	qKerker	0.8 \
	qKappa	-1 \
	verbose	no \
	mixFractionMag	1.5
exchange-regularization WignerSeitzTruncated
fluid None
fluid-ex-corr (null) lda-PZ
fluid-gummel-loop 10 1.000000e-05
fluid-minimize  \
	dirUpdateScheme      PolakRibiere \
	linminMethod         DirUpdateRecommended \
	nIterations          100 \
	history              15 \
	knormThreshold       0 \
	energyDiffThreshold  0 \
	nEnergyDiff          2 \
	alphaTstart          1 \
	alphaTmin            1e-10 \
	updateTestStepSize   yes \
	alphaTreduceFactor   0.1 \
	alphaTincreaseFactor 3 \
	nAlphaAdjustMax      3 \
	wolfeEnergy          0.0001 \
	wolfeGradient        0.9 \
	fdTest               no
fluid-solvent H2O 55.338 ScalarEOS \
	epsBulk 78.4 \
	pMol 0.92466 \
	epsInf 1.77 \
	Pvap 1.06736e-10 \
	sigmaBulk 4.62e-05 \
	Rvdw 2.61727 \
	Res 1.42 \
	tauNuc 343133 \
	poleEl 15 7 1
forces-output-coords Positions
ion C   0.000000000000000  -0.000000000000000   0.000000000000000 1
ion N   0.164313074529992   0.328626149059985   0.000000000000000 1
ion N   0.164313074529992   0.835686925470008   0.000000000000000 1
ion N   0.666666666666667   0.333333333333333   0.000000000000000 1
ion N   0.671373850940015   0.835686925470008   0.000000000000000 1
ion B  -0.001576660817548   0.499211669591226   0.000000000000000 1
ion B   0.500788330408774   0.001576660817548   0.000000000000000 1
ion B   0.500788330408774   0.499211669591226   0.000000000000000 1
ion-species SG15/$ID_ONCV_PBE.upf
ion-width 0
ionic-minimize  \
	dirUpdateScheme      L-BFGS \
	linminMethod         DirUpdateRecommended \
	nIterations          0 \
	history              15 \
	knormThreshold       0.0001 \
	energyDiffThreshold  1e-06 \
	nEnergyDiff          2 \
	alphaTstart          1 \
	alphaTmin            1e-10 \
	updateTestStepSize   yes \
	alphaTreduceFactor   0.1 \
	alphaTincreaseFactor 3 \
	nAlphaAdjustMax      3 \
	wolfeEnergy          0.0001 \
	wolfeGradient        0.9 \
	fdTest               no
kpoint   0.000000000000   0.000000000000   0.000000000000  1.00000000000000
kpoint-folding 12 12 1 
latt-move-scale 1 1 1
latt-scale 1 1 1 
lattice  \
	   9.356640512437433   -4.678320256218713    0.000000000000000  \
	  -0.000000000000000    8.103088377849462    0.000000000000000  \
	   0.000000000000000    0.000000000000000   40.000000000000000 
lattice-minimize  \
	dirUpdateScheme      L-BFGS \
	linminMethod         DirUpdateRecommended \
	nIterations          0 \
	history              15 \
	knormThreshold       0 \
	energyDiffThreshold  1e-06 \
	nEnergyDiff          2 \
	alphaTstart          1 \
	alphaTmin            1e-10 \
	updateTestStepSize   yes \
	alphaTreduceFactor   0.1 \
	alphaTincreaseFactor 3 \
	nAlphaAdjustMax      3 \
	wolfeEnergy          0.0001 \
	wolfeGradient        0.9 \
	fdTest               no
lcao-params -1 1e-06 1e-05
pcm-variant GLSSA13
spintype z-spin
subspace-rotation-factor 1 yes
symmetries automatic
symmetry-threshold 0.0001



---------- Setting up symmetries ----------

Found 24 point-group symmetries of the bravais lattice
Found 12 space-group symmetries with basis
Applied RMS atom displacement 3.80214e-15 bohrs to make symmetries exact.

---------- Initializing the Grid ----------
R = 
[      9.35664     -4.67832            0  ]
[            0      8.10309            0  ]
[            0            0           40  ]
unit cell volume = 3032.71
G =
[   0.671522   0.387703         -0  ]
[          0   0.775406         -0  ]
[         -0         -0    0.15708  ]
Minimum fftbox size, Smin = [  40  40  164  ]
Chosen fftbox size, S = [  40  40  168  ]

---------- Exchange Correlation functional ----------
Initalized PBE GGA exchange.
Initalized PBE GGA correlation.

---------- Setting up pseudopotentials ----------
Width of ionic core gaussian charges (only for fluid interactions / plotting) set to 0

Reading pseudopotential file '/home/gridsan/aligho/DFT/build-Nov24/pseudopotentials/SG15/C_ONCV_PBE.upf':
  'C' pseudopotential, 'PBE' functional
  Generated using ONCVPSP code by D. R. Hamann
  Author: Martin Schlipf and Francois Gygi  Date: 150915.
  4 valence electrons, 2 orbitals, 4 projectors, 1248 radial grid points, with lMax = 1
  Transforming local potential to a uniform radial grid of dG=0.02 with 1502 points.
  Transforming nonlocal projectors to a uniform radial grid of dG=0.02 with 432 points.
    2S    l: 0   occupation:  2.0   eigenvalue: -0.505335
    2P    l: 1   occupation:  2.0   eigenvalue: -0.194238
  Transforming atomic orbitals to a uniform radial grid of dG=0.02 with 432 points.
  Core radius for overlap checks: 1.23 bohrs.
  Reading pulay file /home/gridsan/aligho/DFT/build-Nov24/pseudopotentials/SG15/C_ONCV_PBE.pulay ... using dE_dnG = -9.239532e-03 computed for Ecut = 20.

Reading pseudopotential file '/home/gridsan/aligho/DFT/build-Nov24/pseudopotentials/SG15/N_ONCV_PBE.upf':
  'N' pseudopotential, 'PBE' functional
  Generated using ONCVPSP code by D. R. Hamann
  Author: Martin Schlipf and Francois Gygi  Date: 150915.
  5 valence electrons, 2 orbitals, 4 projectors, 1058 radial grid points, with lMax = 1
  Transforming local potential to a uniform radial grid of dG=0.02 with 1502 points.
  Transforming nonlocal projectors to a uniform radial grid of dG=0.02 with 432 points.
    2S    l: 0   occupation:  2.0   eigenvalue: -0.682907
    2P    l: 1   occupation:  3.0   eigenvalue: -0.260548
  Transforming atomic orbitals to a uniform radial grid of dG=0.02 with 432 points.
  Core radius for overlap checks: 1.35 bohrs.
  Reading pulay file /home/gridsan/aligho/DFT/build-Nov24/pseudopotentials/SG15/N_ONCV_PBE.pulay ... using dE_dnG = -2.956256e-02 computed for Ecut = 20.

Reading pseudopotential file '/home/gridsan/aligho/DFT/build-Nov24/pseudopotentials/SG15/B_ONCV_PBE.upf':
  'B' pseudopotential, 'PBE' functional
  Generated using ONCVPSP code by D. R. Hamann
  Author: Martin Schlipf and Francois Gygi  Date: 150915.
  3 valence electrons, 2 orbitals, 4 projectors, 1534 radial grid points, with lMax = 1
  Transforming local potential to a uniform radial grid of dG=0.02 with 1502 points.
  Transforming nonlocal projectors to a uniform radial grid of dG=0.02 with 432 points.
    2S    l: 0   occupation:  2.0   eigenvalue: -0.347027
    2P    l: 1   occupation:  1.0   eigenvalue: -0.132548
  Transforming atomic orbitals to a uniform radial grid of dG=0.02 with 432 points.
  Core radius for overlap checks: 1.60 bohrs.
  Reading pulay file /home/gridsan/aligho/DFT/build-Nov24/pseudopotentials/SG15/B_ONCV_PBE.pulay ... using dE_dnG = -3.748568e-04 computed for Ecut = 20.

Initialized 3 species with 8 total atoms.

Folded 1 k-points by 12x12x1 to 144 k-points.

---------- Setting up k-points, bands, fillings ----------
Adding inversion symmetry to k-mesh for non-inversion-symmetric unit cell.
Reduced to 19 k-points under symmetry. 
Computing the number of bands and number of electrons
Calculating initial fillings.
nElectrons:  33.000000   nBands: 32   nStates: 38

----- Setting up reduced wavefunction bases (one per k-point) -----
average nbasis = 12955.938 , ideal nbasis = 12955.957

---------- Setting up coulomb interaction ----------
Initialized slab truncation along lattice direction 001

---------- Setting up 2D ewald sum ----------
Optimum gaussian width for ewald sums = 5.194429 bohr.
Real space sums over 289 unit cells with max indices [  8  8  0  ]
Reciprocal space sums over 81 terms with max indices [  4  4  0  ]

---------- Allocating electronic variables ----------
Initializing wave functions:  linear combination of atomic orbitals
C pseudo-atom occupations:   s ( 2 )  p ( 2 )
N pseudo-atom occupations:   s ( 2 )  p ( 3 )
B pseudo-atom occupations:   s ( 2 )  p ( 1 )
	FillingsUpdate:  mu: -0.151479253  nElectrons: 33.000000  magneticMoment: [ Abs: 0.00080  Tot: -0.00000 ]
LCAOMinimize: Iter:   0  F: -53.4784469511825691  |grad|_K:  3.132e-03  alpha:  1.000e+00
[d-5-1-1:77940] 37 more processes have sent help message help-mpi-common-cuda.txt / dlopen failed
[d-5-1-1:77940] Set MCA parameter "orte_base_help_aggregate" to 0 to see all help / error messages
[d-5-1-1:77940] 37 more processes have sent help message help-mpi-btl-openib-cpc-base.txt / no cpcs for port
	FillingsUpdate:  mu: -0.178569843  nElectrons: 33.000000  magneticMoment: [ Abs: 0.00085  Tot: +0.00000 ]
LCAOMinimize: Iter:   1  F: -53.5652687389561635  |grad|_K:  3.797e-04  alpha:  3.709e-01  linmin: -3.671e-01  cgtest:  7.892e-01  t[s]:      5.72
LCAOMinimize: Encountered beta<0, resetting CG.
	FillingsUpdate:  mu: -0.182705210  nElectrons: 33.000000  magneticMoment: [ Abs: 0.00087  Tot: -0.00000 ]
LCAOMinimize: Iter:   2  F: -53.5665483537485372  |grad|_K:  5.845e-05  alpha:  4.295e-01  linmin:  2.525e-02  cgtest: -3.030e-02  t[s]:      7.68
	FillingsUpdate:  mu: -0.182888253  nElectrons: 33.000000  magneticMoment: [ Abs: 0.00090  Tot: -0.00000 ]
LCAOMinimize: Iter:   3  F: -53.5665997584529876  |grad|_K:  2.257e-05  alpha:  7.317e-01  linmin:  7.939e-05  cgtest:  1.481e-02  t[s]:      9.65
	FillingsUpdate:  mu: -0.182877306  nElectrons: 33.000000  magneticMoment: [ Abs: 0.00090  Tot: +0.00000 ]
LCAOMinimize: Iter:   4  F: -53.5666039131093328  |grad|_K:  2.991e-06  alpha:  3.945e-01  linmin:  6.460e-04  cgtest: -4.067e-03  t[s]:     11.62
	FillingsUpdate:  mu: -0.182828425  nElectrons: 33.000000  magneticMoment: [ Abs: 0.00091  Tot: +0.00000 ]
LCAOMinimize: Iter:   5  F: -53.5666040437486970  |grad|_K:  1.224e-06  alpha:  7.060e-01  linmin: -2.491e-04  cgtest:  1.505e-03  t[s]:     13.58
	FillingsUpdate:  mu: -0.182850753  nElectrons: 33.000000  magneticMoment: [ Abs: 0.00091  Tot: +0.00000 ]
LCAOMinimize: Iter:   6  F: -53.5666040581746259  |grad|_K:  8.313e-08  alpha:  4.656e-01  linmin: -1.514e-03  cgtest: -2.481e-03  t[s]:     15.58
LCAOMinimize: Converged (|Delta F|<1.000000e-06 for 2 iters).


---- Citations for features of the code used in this run ----

   Software package:
      R. Sundararaman, K. Letchworth-Weaver, K.A. Schwarz, D. Gunceler, Y. Ozhabes and T.A. Arias, 'JDFTx: software for joint density-functional theory', SoftwareX 6, 278 (2017)

   gga-PBE exchange-correlation functional:
      J.P. Perdew, K. Burke and M. Ernzerhof, Phys. Rev. Lett. 77, 3865 (1996)

   Pseudopotentials:
      M Schlipf and F Gygi, Comput. Phys. Commun. 196, 36 (2015)

   Truncated Coulomb potentials:
      R. Sundararaman and T.A. Arias, Phys. Rev. B 87, 165122 (2013)

This list may not be complete. Please suggest additional citations or
report any other bugs at https://github.com/shankar1729/jdftx/issues

Initialization completed successfully at t[s]:     15.78


-------- Electronic minimization -----------
Will mix electronic density at each iteration.
	FillingsUpdate:  mu: -0.182850753  nElectrons: 33.000000  magneticMoment: [ Abs: 0.00091  Tot: +0.00000 ]
	FillingsUpdate:  mu: -0.197518043  nElectrons: 33.000000  magneticMoment: [ Abs: 0.00091  Tot: +0.00000 ]
SCF: Cycle:  0   F: -53.996784203563479   dF: -4.302e-01   |Residual|: 2.308e-01   |deigs|: 1.091e-01  t[s]:     20.31
	FillingsUpdate:  mu: -0.175715059  nElectrons: 33.000000  magneticMoment: [ Abs: 0.00371  Tot: +0.00000 ]
SCF: Cycle:  1   F: -54.017249859103039   dF: -2.047e-02   |Residual|: 1.286e-01   |deigs|: 2.707e-02  t[s]:     23.65
	FillingsUpdate:  mu: -0.145392705  nElectrons: 33.000000  magneticMoment: [ Abs: 0.00432  Tot: +0.00000 ]
SCF: Cycle:  2   F: -54.029960414789073   dF: -1.271e-02   |Residual|: 2.830e-02   |deigs|: 3.120e-02  t[s]:     27.00
	FillingsUpdate:  mu: -0.141841392  nElectrons: 33.000000  magneticMoment: [ Abs: 0.00370  Tot: +0.00000 ]
SCF: Cycle:  3   F: -54.030298270389544   dF: -3.379e-04   |Residual|: 1.544e-02   |deigs|: 8.501e-03  t[s]:     30.40
	FillingsUpdate:  mu: -0.129504926  nElectrons: 33.000000  magneticMoment: [ Abs: 0.00342  Tot: +0.00000 ]
SCF: Cycle:  4   F: -54.030998439047536   dF: -7.002e-04   |Residual|: 8.060e-03   |deigs|: 1.145e-02  t[s]:     33.85
	FillingsUpdate:  mu: -0.123704366  nElectrons: 33.000000  magneticMoment: [ Abs: 0.00649  Tot: -0.00000 ]
SCF: Cycle:  5   F: -54.031147580511927   dF: -1.491e-04   |Residual|: 5.020e-03   |deigs|: 5.457e-03  t[s]:     37.32
	FillingsUpdate:  mu: -0.117652682  nElectrons: 33.000000  magneticMoment: [ Abs: 0.00411  Tot: +0.00000 ]
SCF: Cycle:  6   F: -54.031171129473975   dF: -2.355e-05   |Residual|: 3.964e-03   |deigs|: 6.375e-03  t[s]:     40.79
	FillingsUpdate:  mu: -0.112408133  nElectrons: 33.000000  magneticMoment: [ Abs: 0.00599  Tot: -0.00000 ]
SCF: Cycle:  7   F: -54.031183757344607   dF: -1.263e-05   |Residual|: 3.170e-03   |deigs|: 5.832e-03  t[s]:     44.28
	FillingsUpdate:  mu: -0.108869490  nElectrons: 33.000000  magneticMoment: [ Abs: 0.00811  Tot: -0.00000 ]
SCF: Cycle:  8   F: -54.031208893794272   dF: -2.514e-05   |Residual|: 2.396e-03   |deigs|: 3.721e-03  t[s]:     47.80
	FillingsUpdate:  mu: -0.106690188  nElectrons: 33.000000  magneticMoment: [ Abs: 0.00309  Tot: +0.00000 ]
SCF: Cycle:  9   F: -54.031222852830027   dF: -1.396e-05   |Residual|: 2.072e-03   |deigs|: 2.278e-03  t[s]:     51.38
	FillingsUpdate:  mu: -0.102881434  nElectrons: 33.000000  magneticMoment: [ Abs: 0.00494  Tot: +0.00000 ]
SCF: Cycle: 10   F: -54.031238650366141   dF: -1.580e-05   |Residual|: 1.658e-03   |deigs|: 3.744e-03  t[s]:     54.98
	FillingsUpdate:  mu: -0.100607380  nElectrons: 33.000000  magneticMoment: [ Abs: 0.00376  Tot: +0.00000 ]
SCF: Cycle: 11   F: -54.031243573342174   dF: -4.923e-06   |Residual|: 1.381e-03   |deigs|: 2.084e-03  t[s]:     58.56
	FillingsUpdate:  mu: -0.097725972  nElectrons: 33.000000  magneticMoment: [ Abs: 0.00529  Tot: +0.00000 ]
SCF: Cycle: 12   F: -54.031244885916713   dF: -1.313e-06   |Residual|: 1.229e-03   |deigs|: 2.787e-03  t[s]:     62.14
	FillingsUpdate:  mu: -0.094080093  nElectrons: 33.000000  magneticMoment: [ Abs: 0.00257  Tot: -0.00000 ]
SCF: Cycle: 13   F: -54.031245822845896   dF: -9.369e-07   |Residual|: 1.129e-03   |deigs|: 3.332e-03  t[s]:     65.74
	FillingsUpdate:  mu: -0.090316003  nElectrons: 33.000000  magneticMoment: [ Abs: 0.00451  Tot: +0.00000 ]
SCF: Cycle: 14   F: -54.031246504649395   dF: -6.818e-07   |Residual|: 1.034e-03   |deigs|: 3.400e-03  t[s]:     69.33
	FillingsUpdate:  mu: -0.086213889  nElectrons: 33.000000  magneticMoment: [ Abs: 0.00397  Tot: +0.00000 ]
SCF: Cycle: 15   F: -54.031246699456695   dF: -1.948e-07   |Residual|: 9.052e-04   |deigs|: 3.938e-03  t[s]:     72.92
	FillingsUpdate:  mu: -0.082857853  nElectrons: 33.000000  magneticMoment: [ Abs: 0.00344  Tot: +0.00000 ]
SCF: Cycle: 16   F: -54.031248358474009   dF: -1.659e-06   |Residual|: 6.958e-04   |deigs|: 3.082e-03  t[s]:     76.49
	FillingsUpdate:  mu: -0.080759866  nElectrons: 33.000000  magneticMoment: [ Abs: 0.00275  Tot: +0.00000 ]
SCF: Cycle: 17   F: -54.031250709827987   dF: -2.351e-06   |Residual|: 4.638e-04   |deigs|: 1.903e-03  t[s]:     80.05
	FillingsUpdate:  mu: -0.080016571  nElectrons: 33.000000  magneticMoment: [ Abs: 0.00127  Tot: +0.00000 ]
SCF: Cycle: 18   F: -54.031251563746892   dF: -8.539e-07   |Residual|: 2.786e-04   |deigs|: 8.960e-04  t[s]:     83.61
	FillingsUpdate:  mu: -0.079764749  nElectrons: 33.000000  magneticMoment: [ Abs: 0.00113  Tot: +0.00000 ]
SCF: Cycle: 19   F: -54.031252000722624   dF: -4.370e-07   |Residual|: 1.334e-04   |deigs|: 5.273e-04  t[s]:     87.18
	FillingsUpdate:  mu: -0.079694207  nElectrons: 33.000000  magneticMoment: [ Abs: 0.00043  Tot: +0.00000 ]
SCF: Cycle: 20   F: -54.031252091758169   dF: -9.104e-08   |Residual|: 7.914e-05   |deigs|: 3.201e-04  t[s]:     90.75
	FillingsUpdate:  mu: -0.079714398  nElectrons: 33.000000  magneticMoment: [ Abs: 0.00036  Tot: -0.00000 ]
SCF: Cycle: 21   F: -54.031252137980744   dF: -4.622e-08   |Residual|: 4.670e-05   |deigs|: 4.121e-04  t[s]:     94.31
	FillingsUpdate:  mu: -0.079720462  nElectrons: 33.000000  magneticMoment: [ Abs: 0.00018  Tot: -0.00000 ]
SCF: Cycle: 22   F: -54.031252158341360   dF: -2.036e-08   |Residual|: 3.025e-05   |deigs|: 5.890e-04  t[s]:     97.88
	FillingsUpdate:  mu: -0.079734214  nElectrons: 33.000000  magneticMoment: [ Abs: 0.00009  Tot: -0.00000 ]
SCF: Cycle: 23   F: -54.031252166626352   dF: -8.285e-09   |Residual|: 2.098e-05   |deigs|: 3.113e-04  t[s]:    101.45
	FillingsUpdate:  mu: -0.079751697  nElectrons: 33.000000  magneticMoment: [ Abs: 0.00006  Tot: -0.00000 ]
SCF: Cycle: 24   F: -54.031252171398165   dF: -4.772e-09   |Residual|: 1.337e-05   |deigs|: 2.886e-04  t[s]:    105.02
SCF: Converged (|Delta E|<1.000000e-08 for 2 iters).


# Ionic positions in lattice coordinates:
ion C  -0.000000000000000   0.000000000000000   0.000000000000000 1
ion N   0.164313074529992   0.328626149059985   0.000000000000000 1
ion N   0.164313074529992   0.835686925470008   0.000000000000000 1
ion N   0.666666666666667   0.333333333333333   0.000000000000000 1
ion N   0.671373850940015   0.835686925470008   0.000000000000000 1
ion B  -0.001576660817548   0.499211669591226   0.000000000000000 1
ion B   0.500788330408774   0.001576660817548   0.000000000000000 1
ion B   0.500788330408774   0.499211669591226   0.000000000000000 1

# Forces in Lattice coordinates:
force C   0.000000000000000   0.000000000000000   0.000000000000000 1
force N  -0.000000000000000  -0.042029411429287  -0.000000000000000 1
force N  -0.042029411429289   0.042029411429286  -0.000000000000000 1
force N   0.000000000000000  -0.000000000000000   0.000000000000000 1
force N   0.042029411429289  -0.000000000000000   0.000000000000000 1
force B   0.006908535773373   0.000000000000000   0.000000000000000 1
force B  -0.000000000000000  -0.006908535773374   0.000000000000000 1
force B  -0.006908535773374   0.006908535773374   0.000000000000000 1

# Energy components:
   Eewald =      -85.5148968124686775
       EH =      -43.5375516783328891
     Eloc =       54.1459777051497611
      Enl =       -2.2686708262920403
   Epulay =       -0.0000008322926719
      Exc =      -15.3338995412147945
       KE =       38.4777907512783770
-------------------------------------
     Etot =      -54.0312512341729274
       TS =        0.0000009372252410
-------------------------------------
        F =      -54.0312521713981653

IonicMinimize: Iter:   0  F: -54.031252171398165  |grad|_K:  1.858e-03  t[s]:    105.34
IonicMinimize: None of the convergence criteria satisfied after 0 iterations.

#--- Lowdin population analysis ---
# oxidation-state C +0.255
# magnetic-moments C +0.000
# oxidation-state N -0.254 -0.254 -0.380 -0.254
# magnetic-moments N -0.000 -0.000 -0.000 -0.000
# oxidation-state B +0.402 +0.402 +0.402
# magnetic-moments B +0.000 +0.000 +0.000


Dumping 'BN22BC-0.0.fillings' ... done
Dumping 'BN22BC-0.0.wfns' ... done
Dumping 'BN22BC-0.0.n_up' ... done
Dumping 'BN22BC-0.0.n_dn' ... done
Dumping 'BN22BC-0.0.eigenvals' ... done
End date and time: Sun Jan 30 23:11:04 2022  (Duration: 0-0:01:47.17)
Done!
