magnetization is 0.16
--------------------------------------------------------------------------
The library attempted to open the following supporting CUDA libraries,
but each of them failed.  CUDA-aware support is disabled.
libcuda.so.1: cannot open shared object file: No such file or directory
libcuda.dylib: cannot open shared object file: No such file or directory
/usr/lib64/libcuda.so.1: cannot open shared object file: No such file or directory
/usr/lib64/libcuda.dylib: cannot open shared object file: No such file or directory
If you are not interested in CUDA-aware support, then run with
--mca opal_warn_on_missing_libcuda 0 to suppress this message.  If you are interested
in CUDA-aware support, then try setting LD_LIBRARY_PATH to the location
of libcuda.so.1 to get passed this issue.
--------------------------------------------------------------------------
--------------------------------------------------------------------------
No OpenFabrics connection schemes reported that they were able to be
used on a specific port.  As such, the openib BTL (OpenFabrics
support) will be disabled for this port.

  Local host:           d-6-4-4
  Local device:         mlx5_1
  Local port:           1
  CPCs attempted:       rdmacm, udcm
--------------------------------------------------------------------------

*************** JDFTx 1.6.0 (git hash 42ebbcc2) ***************

Start date and time: Sun Jan 30 23:09:17 2022
Executable jdftx with command-line: -i BN22BC.in
Running on hosts (process indices):  d-6-4-4 (0-37)
Divided in process groups (process indices):  0 (0)  1 (1)  2 (2)  3 (3)  4 (4)  5 (5)  6 (6)  7 (7)  8 (8)  9 (9)  10 (10)  11 (11)  12 (12)  13 (13)  14 (14)  15 (15)  16 (16)  17 (17)  18 (18)  19 (19)  20 (20)  21 (21)  22 (22)  23 (23)  24 (24)  25 (25)  26 (26)  27 (27)  28 (28)  29 (29)  30 (30)  31 (31)  32 (32)  33 (33)  34 (34)  35 (35)  36 (36)  37 (37)
Resource initialization completed at t[s]:      0.00
Run totals: 38 processes, 48 threads, 0 GPUs


Input parsed successfully to the following command list (including defaults):

basis kpoint-dependent
coords-type Lattice
core-overlap-check vector
coulomb-interaction Slab 001
davidson-band-ratio 1.1
dump End State ElecDensity BandEigs
dump-name BN22BC-0.16.$VAR
elec-cutoff 20
elec-eigen-algo Davidson
elec-ex-corr gga-PBE
elec-initial-magnetization 0.160000 yes
elec-smearing Fermi 1e-05
electronic-minimize  \
	dirUpdateScheme      FletcherReeves \
	linminMethod         DirUpdateRecommended \
	nIterations          100 \
	history              15 \
	knormThreshold       0 \
	energyDiffThreshold  1e-08 \
	nEnergyDiff          2 \
	alphaTstart          1 \
	alphaTmin            1e-10 \
	updateTestStepSize   yes \
	alphaTreduceFactor   0.1 \
	alphaTincreaseFactor 3 \
	nAlphaAdjustMax      3 \
	wolfeEnergy          0.0001 \
	wolfeGradient        0.9 \
	fdTest               no
electronic-scf  \
	nIterations	1000 \
	energyDiffThreshold	1e-08 \
	residualThreshold	1e-07 \
	mixFraction	0.5 \
	qMetric	0.8 \
	history	10 \
	nEigSteps	2 \
	eigDiffThreshold	1e-08 \
	mixedVariable	Density \
	qKerker	0.8 \
	qKappa	-1 \
	verbose	no \
	mixFractionMag	1.5
exchange-regularization WignerSeitzTruncated
fluid None
fluid-ex-corr (null) lda-PZ
fluid-gummel-loop 10 1.000000e-05
fluid-minimize  \
	dirUpdateScheme      PolakRibiere \
	linminMethod         DirUpdateRecommended \
	nIterations          100 \
	history              15 \
	knormThreshold       0 \
	energyDiffThreshold  0 \
	nEnergyDiff          2 \
	alphaTstart          1 \
	alphaTmin            1e-10 \
	updateTestStepSize   yes \
	alphaTreduceFactor   0.1 \
	alphaTincreaseFactor 3 \
	nAlphaAdjustMax      3 \
	wolfeEnergy          0.0001 \
	wolfeGradient        0.9 \
	fdTest               no
fluid-solvent H2O 55.338 ScalarEOS \
	epsBulk 78.4 \
	pMol 0.92466 \
	epsInf 1.77 \
	Pvap 1.06736e-10 \
	sigmaBulk 4.62e-05 \
	Rvdw 2.61727 \
	Res 1.42 \
	tauNuc 343133 \
	poleEl 15 7 1
forces-output-coords Positions
ion C   0.000000000000000  -0.000000000000000   0.000000000000000 1
ion N   0.164313074529992   0.328626149059985   0.000000000000000 1
ion N   0.164313074529992   0.835686925470008   0.000000000000000 1
ion N   0.666666666666667   0.333333333333333   0.000000000000000 1
ion N   0.671373850940015   0.835686925470008   0.000000000000000 1
ion B  -0.001576660817548   0.499211669591226   0.000000000000000 1
ion B   0.500788330408774   0.001576660817548   0.000000000000000 1
ion B   0.500788330408774   0.499211669591226   0.000000000000000 1
ion-species SG15/$ID_ONCV_PBE.upf
ion-width 0
ionic-minimize  \
	dirUpdateScheme      L-BFGS \
	linminMethod         DirUpdateRecommended \
	nIterations          0 \
	history              15 \
	knormThreshold       0.0001 \
	energyDiffThreshold  1e-06 \
	nEnergyDiff          2 \
	alphaTstart          1 \
	alphaTmin            1e-10 \
	updateTestStepSize   yes \
	alphaTreduceFactor   0.1 \
	alphaTincreaseFactor 3 \
	nAlphaAdjustMax      3 \
	wolfeEnergy          0.0001 \
	wolfeGradient        0.9 \
	fdTest               no
kpoint   0.000000000000   0.000000000000   0.000000000000  1.00000000000000
kpoint-folding 12 12 1 
latt-move-scale 1 1 1
latt-scale 1 1 1 
lattice  \
	   9.356640512437433   -4.678320256218713    0.000000000000000  \
	  -0.000000000000000    8.103088377849462    0.000000000000000  \
	   0.000000000000000    0.000000000000000   40.000000000000000 
lattice-minimize  \
	dirUpdateScheme      L-BFGS \
	linminMethod         DirUpdateRecommended \
	nIterations          0 \
	history              15 \
	knormThreshold       0 \
	energyDiffThreshold  1e-06 \
	nEnergyDiff          2 \
	alphaTstart          1 \
	alphaTmin            1e-10 \
	updateTestStepSize   yes \
	alphaTreduceFactor   0.1 \
	alphaTincreaseFactor 3 \
	nAlphaAdjustMax      3 \
	wolfeEnergy          0.0001 \
	wolfeGradient        0.9 \
	fdTest               no
lcao-params -1 1e-06 1e-05
pcm-variant GLSSA13
spintype z-spin
subspace-rotation-factor 1 yes
symmetries automatic
symmetry-threshold 0.0001



---------- Setting up symmetries ----------

Found 24 point-group symmetries of the bravais lattice
Found 12 space-group symmetries with basis
Applied RMS atom displacement 3.80214e-15 bohrs to make symmetries exact.

---------- Initializing the Grid ----------
R = 
[      9.35664     -4.67832            0  ]
[            0      8.10309            0  ]
[            0            0           40  ]
unit cell volume = 3032.71
G =
[   0.671522   0.387703         -0  ]
[          0   0.775406         -0  ]
[         -0         -0    0.15708  ]
Minimum fftbox size, Smin = [  40  40  164  ]
Chosen fftbox size, S = [  40  40  168  ]

---------- Exchange Correlation functional ----------
Initalized PBE GGA exchange.
Initalized PBE GGA correlation.

---------- Setting up pseudopotentials ----------
Width of ionic core gaussian charges (only for fluid interactions / plotting) set to 0

Reading pseudopotential file '/home/gridsan/aligho/DFT/build-Nov24/pseudopotentials/SG15/C_ONCV_PBE.upf':
  'C' pseudopotential, 'PBE' functional
  Generated using ONCVPSP code by D. R. Hamann
  Author: Martin Schlipf and Francois Gygi  Date: 150915.
  4 valence electrons, 2 orbitals, 4 projectors, 1248 radial grid points, with lMax = 1
  Transforming local potential to a uniform radial grid of dG=0.02 with 1502 points.
  Transforming nonlocal projectors to a uniform radial grid of dG=0.02 with 432 points.
    2S    l: 0   occupation:  2.0   eigenvalue: -0.505335
    2P    l: 1   occupation:  2.0   eigenvalue: -0.194238
  Transforming atomic orbitals to a uniform radial grid of dG=0.02 with 432 points.
  Core radius for overlap checks: 1.23 bohrs.
  Reading pulay file /home/gridsan/aligho/DFT/build-Nov24/pseudopotentials/SG15/C_ONCV_PBE.pulay ... using dE_dnG = -9.239532e-03 computed for Ecut = 20.

Reading pseudopotential file '/home/gridsan/aligho/DFT/build-Nov24/pseudopotentials/SG15/N_ONCV_PBE.upf':
  'N' pseudopotential, 'PBE' functional
  Generated using ONCVPSP code by D. R. Hamann
  Author: Martin Schlipf and Francois Gygi  Date: 150915.
  5 valence electrons, 2 orbitals, 4 projectors, 1058 radial grid points, with lMax = 1
  Transforming local potential to a uniform radial grid of dG=0.02 with 1502 points.
  Transforming nonlocal projectors to a uniform radial grid of dG=0.02 with 432 points.
    2S    l: 0   occupation:  2.0   eigenvalue: -0.682907
    2P    l: 1   occupation:  3.0   eigenvalue: -0.260548
  Transforming atomic orbitals to a uniform radial grid of dG=0.02 with 432 points.
  Core radius for overlap checks: 1.35 bohrs.
  Reading pulay file /home/gridsan/aligho/DFT/build-Nov24/pseudopotentials/SG15/N_ONCV_PBE.pulay ... using dE_dnG = -2.956256e-02 computed for Ecut = 20.

Reading pseudopotential file '/home/gridsan/aligho/DFT/build-Nov24/pseudopotentials/SG15/B_ONCV_PBE.upf':
  'B' pseudopotential, 'PBE' functional
  Generated using ONCVPSP code by D. R. Hamann
  Author: Martin Schlipf and Francois Gygi  Date: 150915.
  3 valence electrons, 2 orbitals, 4 projectors, 1534 radial grid points, with lMax = 1
  Transforming local potential to a uniform radial grid of dG=0.02 with 1502 points.
  Transforming nonlocal projectors to a uniform radial grid of dG=0.02 with 432 points.
    2S    l: 0   occupation:  2.0   eigenvalue: -0.347027
    2P    l: 1   occupation:  1.0   eigenvalue: -0.132548
  Transforming atomic orbitals to a uniform radial grid of dG=0.02 with 432 points.
  Core radius for overlap checks: 1.60 bohrs.
  Reading pulay file /home/gridsan/aligho/DFT/build-Nov24/pseudopotentials/SG15/B_ONCV_PBE.pulay ... using dE_dnG = -3.748568e-04 computed for Ecut = 20.

Initialized 3 species with 8 total atoms.

Folded 1 k-points by 12x12x1 to 144 k-points.

---------- Setting up k-points, bands, fillings ----------
Adding inversion symmetry to k-mesh for non-inversion-symmetric unit cell.
Reduced to 19 k-points under symmetry. 
Computing the number of bands and number of electrons
Calculating initial fillings.
nElectrons:  33.000000   nBands: 32   nStates: 38

----- Setting up reduced wavefunction bases (one per k-point) -----
average nbasis = 12955.938 , ideal nbasis = 12955.957

---------- Setting up coulomb interaction ----------
Initialized slab truncation along lattice direction 001

---------- Setting up 2D ewald sum ----------
Optimum gaussian width for ewald sums = 5.194429 bohr.
Real space sums over 289 unit cells with max indices [  8  8  0  ]
Reciprocal space sums over 81 terms with max indices [  4  4  0  ]

---------- Allocating electronic variables ----------
Initializing wave functions:  linear combination of atomic orbitals
C pseudo-atom occupations:   s ( 2 )  p ( 2 )
N pseudo-atom occupations:   s ( 2 )  p ( 3 )
B pseudo-atom occupations:   s ( 2 )  p ( 1 )
[d-6-4-4:55652] 37 more processes have sent help message help-mpi-common-cuda.txt / dlopen failed
[d-6-4-4:55652] Set MCA parameter "orte_base_help_aggregate" to 0 to see all help / error messages
[d-6-4-4:55652] 37 more processes have sent help message help-mpi-btl-openib-cpc-base.txt / no cpcs for port
	FillingsUpdate:  mu: -0.182346934  nElectrons: 33.000000  magneticMoment: [ Abs: 0.16401  Tot: +0.16000 ]
LCAOMinimize: Iter:   0  F: -53.3329602758153030  |grad|_K:  5.544e-03  alpha:  1.000e+00
	FillingsUpdate:  mu: -0.188386074  nElectrons: 33.000000  magneticMoment: [ Abs: 0.16457  Tot: +0.16000 ]
LCAOMinimize: Iter:   1  F: -53.5591620695252502  |grad|_K:  1.029e-03  alpha:  4.232e-01  linmin:  3.599e-01  cgtest: -8.209e-01  t[s]:      6.89
	FillingsUpdate:  mu: -0.183199119  nElectrons: 33.000000  magneticMoment: [ Abs: 0.16492  Tot: +0.16000 ]
LCAOMinimize: Iter:   2  F: -53.5607376331424732  |grad|_K:  8.792e-04  alpha:  2.269e-01  linmin:  3.488e-04  cgtest:  8.950e-01  t[s]:      8.94
LCAOMinimize: Encountered beta<0, resetting CG.
	FillingsUpdate:  mu: -0.181993036  nElectrons: 33.000000  magneticMoment: [ Abs: 0.16542  Tot: +0.16000 ]
LCAOMinimize: Iter:   3  F: -53.5666889932140009  |grad|_K:  1.028e-04  alpha:  3.776e-01  linmin:  1.038e-01  cgtest: -2.712e-01  t[s]:     10.92
	FillingsUpdate:  mu: -0.183139506  nElectrons: 33.000000  magneticMoment: [ Abs: 0.16590  Tot: +0.16000 ]
LCAOMinimize: Iter:   4  F: -53.5667606192097736  |grad|_K:  3.110e-05  alpha:  3.682e-01  linmin:  2.625e-03  cgtest:  3.771e-01  t[s]:     12.92
LCAOMinimize: Encountered beta<0, resetting CG.
	FillingsUpdate:  mu: -0.183253167  nElectrons: 33.000000  magneticMoment: [ Abs: 0.16624  Tot: +0.16000 ]
LCAOMinimize: Iter:   5  F: -53.5667679303601361  |grad|_K:  5.198e-06  alpha:  3.654e-01  linmin: -3.826e-04  cgtest:  3.987e-05  t[s]:     14.90
	FillingsUpdate:  mu: -0.183185462  nElectrons: 33.000000  magneticMoment: [ Abs: 0.16670  Tot: +0.16000 ]
LCAOMinimize: Iter:   6  F: -53.5667682774665295  |grad|_K:  2.681e-06  alpha:  6.202e-01  linmin: -1.976e-04  cgtest: -9.694e-04  t[s]:     16.90
	FillingsUpdate:  mu: -0.183233890  nElectrons: 33.000000  magneticMoment: [ Abs: 0.16719  Tot: +0.16000 ]
LCAOMinimize: Iter:   7  F: -53.5667683906289156  |grad|_K:  1.563e-06  alpha:  7.892e-01  linmin:  2.019e-02  cgtest: -2.891e-01  t[s]:     18.90
LCAOMinimize: Converged (|Delta F|<1.000000e-06 for 2 iters).


---- Citations for features of the code used in this run ----

   Software package:
      R. Sundararaman, K. Letchworth-Weaver, K.A. Schwarz, D. Gunceler, Y. Ozhabes and T.A. Arias, 'JDFTx: software for joint density-functional theory', SoftwareX 6, 278 (2017)

   gga-PBE exchange-correlation functional:
      J.P. Perdew, K. Burke and M. Ernzerhof, Phys. Rev. Lett. 77, 3865 (1996)

   Pseudopotentials:
      M Schlipf and F Gygi, Comput. Phys. Commun. 196, 36 (2015)

   Truncated Coulomb potentials:
      R. Sundararaman and T.A. Arias, Phys. Rev. B 87, 165122 (2013)

This list may not be complete. Please suggest additional citations or
report any other bugs at https://github.com/shankar1729/jdftx/issues

Initialization completed successfully at t[s]:     19.10


-------- Electronic minimization -----------
Will mix electronic density at each iteration.
	FillingsUpdate:  mu: -0.183233890  nElectrons: 33.000000  magneticMoment: [ Abs: 0.16719  Tot: +0.16000 ]
	FillingsUpdate:  mu: -0.197786385  nElectrons: 33.000000  magneticMoment: [ Abs: 0.16719  Tot: +0.16000 ]
SCF: Cycle:  0   F: -53.997079441784557   dF: -4.303e-01   |Residual|: 2.309e-01   |deigs|: 1.091e-01  t[s]:     23.68
	FillingsUpdate:  mu: -0.175398739  nElectrons: 33.000000  magneticMoment: [ Abs: 0.17357  Tot: +0.16000 ]
SCF: Cycle:  1   F: -54.017408612079450   dF: -2.033e-02   |Residual|: 1.289e-01   |deigs|: 2.702e-02  t[s]:     27.04
	FillingsUpdate:  mu: -0.144824284  nElectrons: 33.000000  magneticMoment: [ Abs: 0.17916  Tot: +0.16000 ]
SCF: Cycle:  2   F: -54.030084715255413   dF: -1.268e-02   |Residual|: 2.805e-02   |deigs|: 3.111e-02  t[s]:     30.40
	FillingsUpdate:  mu: -0.141257875  nElectrons: 33.000000  magneticMoment: [ Abs: 0.17807  Tot: +0.16000 ]
SCF: Cycle:  3   F: -54.030456362364269   dF: -3.716e-04   |Residual|: 1.599e-02   |deigs|: 8.563e-03  t[s]:     33.86
	FillingsUpdate:  mu: -0.128841874  nElectrons: 33.000000  magneticMoment: [ Abs: 0.17308  Tot: +0.16000 ]
SCF: Cycle:  4   F: -54.031130587133070   dF: -6.742e-04   |Residual|: 8.319e-03   |deigs|: 1.150e-02  t[s]:     37.31
	FillingsUpdate:  mu: -0.123999212  nElectrons: 33.000000  magneticMoment: [ Abs: 0.17726  Tot: +0.16000 ]
SCF: Cycle:  5   F: -54.031282363579315   dF: -1.518e-04   |Residual|: 5.749e-03   |deigs|: 4.726e-03  t[s]:     40.78
	FillingsUpdate:  mu: -0.117096792  nElectrons: 33.000000  magneticMoment: [ Abs: 0.17564  Tot: +0.16000 ]
SCF: Cycle:  6   F: -54.031318848418266   dF: -3.648e-05   |Residual|: 3.863e-03   |deigs|: 6.951e-03  t[s]:     44.27
	FillingsUpdate:  mu: -0.113010079  nElectrons: 33.000000  magneticMoment: [ Abs: 0.17576  Tot: +0.16000 ]
SCF: Cycle:  7   F: -54.031321236274486   dF: -2.388e-06   |Residual|: 3.174e-03   |deigs|: 4.661e-03  t[s]:     47.80
	FillingsUpdate:  mu: -0.108593940  nElectrons: 33.000000  magneticMoment: [ Abs: 0.17467  Tot: +0.16000 ]
SCF: Cycle:  8   F: -54.031349204475198   dF: -2.797e-05   |Residual|: 2.589e-03   |deigs|: 4.578e-03  t[s]:     51.36
	FillingsUpdate:  mu: -0.106316454  nElectrons: 33.000000  magneticMoment: [ Abs: 0.17393  Tot: +0.16000 ]
SCF: Cycle:  9   F: -54.031365683150810   dF: -1.648e-05   |Residual|: 2.003e-03   |deigs|: 2.506e-03  t[s]:     54.96
	FillingsUpdate:  mu: -0.103122803  nElectrons: 33.000000  magneticMoment: [ Abs: 0.17611  Tot: +0.16000 ]
SCF: Cycle: 10   F: -54.031380170421009   dF: -1.449e-05   |Residual|: 1.793e-03   |deigs|: 3.216e-03  t[s]:     58.57
	FillingsUpdate:  mu: -0.100451914  nElectrons: 33.000000  magneticMoment: [ Abs: 0.17514  Tot: +0.16000 ]
SCF: Cycle: 11   F: -54.031387245391990   dF: -7.075e-06   |Residual|: 1.407e-03   |deigs|: 2.489e-03  t[s]:     62.16
	FillingsUpdate:  mu: -0.098020738  nElectrons: 33.000000  magneticMoment: [ Abs: 0.17482  Tot: +0.16000 ]
SCF: Cycle: 12   F: -54.031389799734761   dF: -2.554e-06   |Residual|: 1.261e-03   |deigs|: 2.297e-03  t[s]:     65.77
	FillingsUpdate:  mu: -0.094073028  nElectrons: 33.000000  magneticMoment: [ Abs: 0.17447  Tot: +0.16000 ]
SCF: Cycle: 13   F: -54.031390922397527   dF: -1.123e-06   |Residual|: 1.119e-03   |deigs|: 3.698e-03  t[s]:     69.37
	FillingsUpdate:  mu: -0.090795133  nElectrons: 33.000000  magneticMoment: [ Abs: 0.17427  Tot: +0.16000 ]
SCF: Cycle: 14   F: -54.031391109332823   dF: -1.869e-07   |Residual|: 1.074e-03   |deigs|: 2.930e-03  t[s]:     73.00
	FillingsUpdate:  mu: -0.086425147  nElectrons: 33.000000  magneticMoment: [ Abs: 0.17560  Tot: +0.16000 ]
SCF: Cycle: 15   F: -54.031391368481415   dF: -2.591e-07   |Residual|: 9.530e-04   |deigs|: 4.132e-03  t[s]:     76.61
	FillingsUpdate:  mu: -0.082954782  nElectrons: 33.000000  magneticMoment: [ Abs: 0.17482  Tot: +0.16000 ]
SCF: Cycle: 16   F: -54.031392996082410   dF: -1.628e-06   |Residual|: 7.281e-04   |deigs|: 3.229e-03  t[s]:     80.21
	FillingsUpdate:  mu: -0.080761319  nElectrons: 33.000000  magneticMoment: [ Abs: 0.17442  Tot: +0.16000 ]
SCF: Cycle: 17   F: -54.031395295418513   dF: -2.299e-06   |Residual|: 5.091e-04   |deigs|: 1.930e-03  t[s]:     83.80
	FillingsUpdate:  mu: -0.079758427  nElectrons: 33.000000  magneticMoment: [ Abs: 0.17434  Tot: +0.16000 ]
SCF: Cycle: 18   F: -54.031396732140614   dF: -1.437e-06   |Residual|: 2.881e-04   |deigs|: 9.975e-04  t[s]:     87.40
	FillingsUpdate:  mu: -0.079422766  nElectrons: 33.000000  magneticMoment: [ Abs: 0.17423  Tot: +0.16000 ]
SCF: Cycle: 19   F: -54.031397038114015   dF: -3.060e-07   |Residual|: 1.663e-04   |deigs|: 4.666e-04  t[s]:     91.00
	FillingsUpdate:  mu: -0.079267879  nElectrons: 33.000000  magneticMoment: [ Abs: 0.17416  Tot: +0.16000 ]
SCF: Cycle: 20   F: -54.031397104653273   dF: -6.654e-08   |Residual|: 9.705e-05   |deigs|: 2.938e-04  t[s]:     94.59
	FillingsUpdate:  mu: -0.079168210  nElectrons: 33.000000  magneticMoment: [ Abs: 0.17415  Tot: +0.16000 ]
SCF: Cycle: 21   F: -54.031397121682353   dF: -1.703e-08   |Residual|: 4.816e-05   |deigs|: 5.751e-04  t[s]:     98.18
	FillingsUpdate:  mu: -0.079124525  nElectrons: 33.000000  magneticMoment: [ Abs: 0.17411  Tot: +0.16000 ]
SCF: Cycle: 22   F: -54.031397128939616   dF: -7.257e-09   |Residual|: 2.537e-05   |deigs|: 3.804e-04  t[s]:    101.78
	FillingsUpdate:  mu: -0.079099931  nElectrons: 33.000000  magneticMoment: [ Abs: 0.17409  Tot: +0.16000 ]
SCF: Cycle: 23   F: -54.031397132367061   dF: -3.427e-09   |Residual|: 1.650e-05   |deigs|: 3.939e-04  t[s]:    105.39
SCF: Converged (|Delta E|<1.000000e-08 for 2 iters).


# Ionic positions in lattice coordinates:
ion C  -0.000000000000000   0.000000000000000   0.000000000000000 1
ion N   0.164313074529992   0.328626149059985   0.000000000000000 1
ion N   0.164313074529992   0.835686925470008   0.000000000000000 1
ion N   0.666666666666667   0.333333333333333   0.000000000000000 1
ion N   0.671373850940015   0.835686925470008   0.000000000000000 1
ion B  -0.001576660817548   0.499211669591226   0.000000000000000 1
ion B   0.500788330408774   0.001576660817548   0.000000000000000 1
ion B   0.500788330408774   0.499211669591226   0.000000000000000 1

# Forces in Lattice coordinates:
force C   0.000000000000000   0.000000000000000   0.000000000000000 1
force N   0.000000000000000  -0.040152616558512   0.000000000000000 1
force N  -0.040152616558514   0.040152616558511   0.000000000000000 1
force N  -0.000000000000000   0.000000000000000   0.000000000000000 1
force N   0.040152616558514  -0.000000000000000   0.000000000000000 1
force B   0.008443989792189  -0.000000000000000  -0.000000000000000 1
force B   0.000000000000000  -0.008443989792189   0.000000000000000 1
force B  -0.008443989792189   0.008443989792189   0.000000000000000 1

# Energy components:
   Eewald =      -85.5148968124686775
       EH =      -43.5353499702605973
     Eloc =       54.1430546456988395
      Enl =       -2.2692170290048921
   Epulay =       -0.0000008322926719
      Exc =      -15.3346239332733418
       KE =       38.4796375844823686
-------------------------------------
     Etot =      -54.0313963471189922
       TS =        0.0000007852480689
-------------------------------------
        F =      -54.0313971323670614

IonicMinimize: Iter:   0  F: -54.031397132367061  |grad|_K:  1.790e-03  t[s]:    105.71
IonicMinimize: None of the convergence criteria satisfied after 0 iterations.

#--- Lowdin population analysis ---
# oxidation-state C +0.255
# magnetic-moments C +0.089
# oxidation-state N -0.254 -0.254 -0.381 -0.254
# magnetic-moments N +0.001 +0.001 +0.005 +0.001
# oxidation-state B +0.403 +0.403 +0.403
# magnetic-moments B +0.020 +0.020 +0.020


Dumping 'BN22BC-0.16.fillings' ... done
Dumping 'BN22BC-0.16.wfns' ... done
Dumping 'BN22BC-0.16.n_up' ... done
Dumping 'BN22BC-0.16.n_dn' ... done
Dumping 'BN22BC-0.16.eigenvals' ... done
End date and time: Sun Jan 30 23:11:06 2022  (Duration: 0-0:01:49.00)
Done!
