magnetization is 0.4
--------------------------------------------------------------------------
The library attempted to open the following supporting CUDA libraries,
but each of them failed.  CUDA-aware support is disabled.
libcuda.so.1: cannot open shared object file: No such file or directory
libcuda.dylib: cannot open shared object file: No such file or directory
/usr/lib64/libcuda.so.1: cannot open shared object file: No such file or directory
/usr/lib64/libcuda.dylib: cannot open shared object file: No such file or directory
If you are not interested in CUDA-aware support, then run with
--mca opal_warn_on_missing_libcuda 0 to suppress this message.  If you are interested
in CUDA-aware support, then try setting LD_LIBRARY_PATH to the location
of libcuda.so.1 to get passed this issue.
--------------------------------------------------------------------------
--------------------------------------------------------------------------
No OpenFabrics connection schemes reported that they were able to be
used on a specific port.  As such, the openib BTL (OpenFabrics
support) will be disabled for this port.

  Local host:           d-16-7-1
  Local device:         mlx5_1
  Local port:           1
  CPCs attempted:       rdmacm, udcm
--------------------------------------------------------------------------

*************** JDFTx 1.6.0 (git hash 42ebbcc2) ***************

Start date and time: Sun Jan 30 23:09:48 2022
Executable jdftx with command-line: -i BN22BC.in
Running on hosts (process indices):  d-16-7-1 (0-37)
Divided in process groups (process indices):  0 (0)  1 (1)  2 (2)  3 (3)  4 (4)  5 (5)  6 (6)  7 (7)  8 (8)  9 (9)  10 (10)  11 (11)  12 (12)  13 (13)  14 (14)  15 (15)  16 (16)  17 (17)  18 (18)  19 (19)  20 (20)  21 (21)  22 (22)  23 (23)  24 (24)  25 (25)  26 (26)  27 (27)  28 (28)  29 (29)  30 (30)  31 (31)  32 (32)  33 (33)  34 (34)  35 (35)  36 (36)  37 (37)
Resource initialization completed at t[s]:      0.00
Run totals: 38 processes, 48 threads, 0 GPUs


Input parsed successfully to the following command list (including defaults):

basis kpoint-dependent
coords-type Lattice
core-overlap-check vector
coulomb-interaction Slab 001
davidson-band-ratio 1.1
dump End State ElecDensity BandEigs
dump-name BN22BC-0.4.$VAR
elec-cutoff 20
elec-eigen-algo Davidson
elec-ex-corr gga-PBE
elec-initial-magnetization 0.400000 yes
elec-smearing Fermi 1e-05
electronic-minimize  \
	dirUpdateScheme      FletcherReeves \
	linminMethod         DirUpdateRecommended \
	nIterations          100 \
	history              15 \
	knormThreshold       0 \
	energyDiffThreshold  1e-08 \
	nEnergyDiff          2 \
	alphaTstart          1 \
	alphaTmin            1e-10 \
	updateTestStepSize   yes \
	alphaTreduceFactor   0.1 \
	alphaTincreaseFactor 3 \
	nAlphaAdjustMax      3 \
	wolfeEnergy          0.0001 \
	wolfeGradient        0.9 \
	fdTest               no
electronic-scf  \
	nIterations	1000 \
	energyDiffThreshold	1e-08 \
	residualThreshold	1e-07 \
	mixFraction	0.5 \
	qMetric	0.8 \
	history	10 \
	nEigSteps	2 \
	eigDiffThreshold	1e-08 \
	mixedVariable	Density \
	qKerker	0.8 \
	qKappa	-1 \
	verbose	no \
	mixFractionMag	1.5
exchange-regularization WignerSeitzTruncated
fluid None
fluid-ex-corr (null) lda-PZ
fluid-gummel-loop 10 1.000000e-05
fluid-minimize  \
	dirUpdateScheme      PolakRibiere \
	linminMethod         DirUpdateRecommended \
	nIterations          100 \
	history              15 \
	knormThreshold       0 \
	energyDiffThreshold  0 \
	nEnergyDiff          2 \
	alphaTstart          1 \
	alphaTmin            1e-10 \
	updateTestStepSize   yes \
	alphaTreduceFactor   0.1 \
	alphaTincreaseFactor 3 \
	nAlphaAdjustMax      3 \
	wolfeEnergy          0.0001 \
	wolfeGradient        0.9 \
	fdTest               no
fluid-solvent H2O 55.338 ScalarEOS \
	epsBulk 78.4 \
	pMol 0.92466 \
	epsInf 1.77 \
	Pvap 1.06736e-10 \
	sigmaBulk 4.62e-05 \
	Rvdw 2.61727 \
	Res 1.42 \
	tauNuc 343133 \
	poleEl 15 7 1
forces-output-coords Positions
ion C   0.000000000000000  -0.000000000000000   0.000000000000000 1
ion N   0.164313074529992   0.328626149059985   0.000000000000000 1
ion N   0.164313074529992   0.835686925470008   0.000000000000000 1
ion N   0.666666666666667   0.333333333333333   0.000000000000000 1
ion N   0.671373850940015   0.835686925470008   0.000000000000000 1
ion B  -0.001576660817548   0.499211669591226   0.000000000000000 1
ion B   0.500788330408774   0.001576660817548   0.000000000000000 1
ion B   0.500788330408774   0.499211669591226   0.000000000000000 1
ion-species SG15/$ID_ONCV_PBE.upf
ion-width 0
ionic-minimize  \
	dirUpdateScheme      L-BFGS \
	linminMethod         DirUpdateRecommended \
	nIterations          0 \
	history              15 \
	knormThreshold       0.0001 \
	energyDiffThreshold  1e-06 \
	nEnergyDiff          2 \
	alphaTstart          1 \
	alphaTmin            1e-10 \
	updateTestStepSize   yes \
	alphaTreduceFactor   0.1 \
	alphaTincreaseFactor 3 \
	nAlphaAdjustMax      3 \
	wolfeEnergy          0.0001 \
	wolfeGradient        0.9 \
	fdTest               no
kpoint   0.000000000000   0.000000000000   0.000000000000  1.00000000000000
kpoint-folding 12 12 1 
latt-move-scale 1 1 1
latt-scale 1 1 1 
lattice  \
	   9.356640512437433   -4.678320256218713    0.000000000000000  \
	  -0.000000000000000    8.103088377849462    0.000000000000000  \
	   0.000000000000000    0.000000000000000   40.000000000000000 
lattice-minimize  \
	dirUpdateScheme      L-BFGS \
	linminMethod         DirUpdateRecommended \
	nIterations          0 \
	history              15 \
	knormThreshold       0 \
	energyDiffThreshold  1e-06 \
	nEnergyDiff          2 \
	alphaTstart          1 \
	alphaTmin            1e-10 \
	updateTestStepSize   yes \
	alphaTreduceFactor   0.1 \
	alphaTincreaseFactor 3 \
	nAlphaAdjustMax      3 \
	wolfeEnergy          0.0001 \
	wolfeGradient        0.9 \
	fdTest               no
lcao-params -1 1e-06 1e-05
pcm-variant GLSSA13
spintype z-spin
subspace-rotation-factor 1 yes
symmetries automatic
symmetry-threshold 0.0001



---------- Setting up symmetries ----------

Found 24 point-group symmetries of the bravais lattice
Found 12 space-group symmetries with basis
Applied RMS atom displacement 3.80214e-15 bohrs to make symmetries exact.

---------- Initializing the Grid ----------
R = 
[      9.35664     -4.67832            0  ]
[            0      8.10309            0  ]
[            0            0           40  ]
unit cell volume = 3032.71
G =
[   0.671522   0.387703         -0  ]
[          0   0.775406         -0  ]
[         -0         -0    0.15708  ]
Minimum fftbox size, Smin = [  40  40  164  ]
Chosen fftbox size, S = [  40  40  168  ]

---------- Exchange Correlation functional ----------
Initalized PBE GGA exchange.
Initalized PBE GGA correlation.

---------- Setting up pseudopotentials ----------
Width of ionic core gaussian charges (only for fluid interactions / plotting) set to 0

Reading pseudopotential file '/home/gridsan/aligho/DFT/build-Nov24/pseudopotentials/SG15/C_ONCV_PBE.upf':
  'C' pseudopotential, 'PBE' functional
  Generated using ONCVPSP code by D. R. Hamann
  Author: Martin Schlipf and Francois Gygi  Date: 150915.
  4 valence electrons, 2 orbitals, 4 projectors, 1248 radial grid points, with lMax = 1
  Transforming local potential to a uniform radial grid of dG=0.02 with 1502 points.
  Transforming nonlocal projectors to a uniform radial grid of dG=0.02 with 432 points.
    2S    l: 0   occupation:  2.0   eigenvalue: -0.505335
    2P    l: 1   occupation:  2.0   eigenvalue: -0.194238
  Transforming atomic orbitals to a uniform radial grid of dG=0.02 with 432 points.
  Core radius for overlap checks: 1.23 bohrs.
  Reading pulay file /home/gridsan/aligho/DFT/build-Nov24/pseudopotentials/SG15/C_ONCV_PBE.pulay ... using dE_dnG = -9.239532e-03 computed for Ecut = 20.

Reading pseudopotential file '/home/gridsan/aligho/DFT/build-Nov24/pseudopotentials/SG15/N_ONCV_PBE.upf':
  'N' pseudopotential, 'PBE' functional
  Generated using ONCVPSP code by D. R. Hamann
  Author: Martin Schlipf and Francois Gygi  Date: 150915.
  5 valence electrons, 2 orbitals, 4 projectors, 1058 radial grid points, with lMax = 1
  Transforming local potential to a uniform radial grid of dG=0.02 with 1502 points.
  Transforming nonlocal projectors to a uniform radial grid of dG=0.02 with 432 points.
    2S    l: 0   occupation:  2.0   eigenvalue: -0.682907
    2P    l: 1   occupation:  3.0   eigenvalue: -0.260548
  Transforming atomic orbitals to a uniform radial grid of dG=0.02 with 432 points.
  Core radius for overlap checks: 1.35 bohrs.
  Reading pulay file /home/gridsan/aligho/DFT/build-Nov24/pseudopotentials/SG15/N_ONCV_PBE.pulay ... using dE_dnG = -2.956256e-02 computed for Ecut = 20.

Reading pseudopotential file '/home/gridsan/aligho/DFT/build-Nov24/pseudopotentials/SG15/B_ONCV_PBE.upf':
  'B' pseudopotential, 'PBE' functional
  Generated using ONCVPSP code by D. R. Hamann
  Author: Martin Schlipf and Francois Gygi  Date: 150915.
  3 valence electrons, 2 orbitals, 4 projectors, 1534 radial grid points, with lMax = 1
  Transforming local potential to a uniform radial grid of dG=0.02 with 1502 points.
  Transforming nonlocal projectors to a uniform radial grid of dG=0.02 with 432 points.
    2S    l: 0   occupation:  2.0   eigenvalue: -0.347027
    2P    l: 1   occupation:  1.0   eigenvalue: -0.132548
  Transforming atomic orbitals to a uniform radial grid of dG=0.02 with 432 points.
  Core radius for overlap checks: 1.60 bohrs.
  Reading pulay file /home/gridsan/aligho/DFT/build-Nov24/pseudopotentials/SG15/B_ONCV_PBE.pulay ... using dE_dnG = -3.748568e-04 computed for Ecut = 20.

Initialized 3 species with 8 total atoms.

Folded 1 k-points by 12x12x1 to 144 k-points.

---------- Setting up k-points, bands, fillings ----------
Adding inversion symmetry to k-mesh for non-inversion-symmetric unit cell.
Reduced to 19 k-points under symmetry. 
Computing the number of bands and number of electrons
Calculating initial fillings.
nElectrons:  33.000000   nBands: 32   nStates: 38

----- Setting up reduced wavefunction bases (one per k-point) -----
average nbasis = 12955.938 , ideal nbasis = 12955.957

---------- Setting up coulomb interaction ----------
Initialized slab truncation along lattice direction 001

---------- Setting up 2D ewald sum ----------
Optimum gaussian width for ewald sums = 5.194429 bohr.
Real space sums over 289 unit cells with max indices [  8  8  0  ]
Reciprocal space sums over 81 terms with max indices [  4  4  0  ]

---------- Allocating electronic variables ----------
Initializing wave functions:  linear combination of atomic orbitals
C pseudo-atom occupations:   s ( 2 )  p ( 2 )
N pseudo-atom occupations:   s ( 2 )  p ( 3 )
B pseudo-atom occupations:   s ( 2 )  p ( 1 )
[d-16-7-1:88667] 37 more processes have sent help message help-mpi-common-cuda.txt / dlopen failed
[d-16-7-1:88667] Set MCA parameter "orte_base_help_aggregate" to 0 to see all help / error messages
[d-16-7-1:88667] 37 more processes have sent help message help-mpi-btl-openib-cpc-base.txt / no cpcs for port
	FillingsUpdate:  mu: -0.181553663  nElectrons: 33.000000  magneticMoment: [ Abs: 0.41034  Tot: +0.40000 ]
LCAOMinimize: Iter:   0  F: -53.3407123716457434  |grad|_K:  5.472e-03  alpha:  1.000e+00
	FillingsUpdate:  mu: -0.185741516  nElectrons: 33.000000  magneticMoment: [ Abs: 0.41164  Tot: +0.40000 ]
LCAOMinimize: Iter:   1  F: -53.5608334821373546  |grad|_K:  9.665e-04  alpha:  4.239e-01  linmin:  3.479e-01  cgtest: -8.166e-01  t[s]:      7.01
	FillingsUpdate:  mu: -0.180787527  nElectrons: 33.000000  magneticMoment: [ Abs: 0.41250  Tot: +0.40000 ]
LCAOMinimize: Iter:   2  F: -53.5623154552094860  |grad|_K:  8.162e-04  alpha:  2.347e-01  linmin:  1.304e-04  cgtest:  8.874e-01  t[s]:      9.05
LCAOMinimize: Encountered beta<0, resetting CG.
	FillingsUpdate:  mu: -0.179896300  nElectrons: 33.000000  magneticMoment: [ Abs: 0.41366  Tot: +0.40000 ]
LCAOMinimize: Iter:   3  F: -53.5674751768820201  |grad|_K:  9.625e-05  alpha:  3.791e-01  linmin:  9.386e-02  cgtest: -2.375e-01  t[s]:     11.10
	FillingsUpdate:  mu: -0.180933791  nElectrons: 33.000000  magneticMoment: [ Abs: 0.41475  Tot: +0.40000 ]
LCAOMinimize: Iter:   4  F: -53.5675402439751664  |grad|_K:  2.700e-05  alpha:  3.723e-01  linmin:  2.085e-03  cgtest:  3.243e-01  t[s]:     13.14
LCAOMinimize: Encountered beta<0, resetting CG.
	FillingsUpdate:  mu: -0.181011464  nElectrons: 33.000000  magneticMoment: [ Abs: 0.41558  Tot: +0.40000 ]
LCAOMinimize: Iter:   5  F: -53.5675463287863920  |grad|_K:  8.039e-06  alpha:  4.034e-01  linmin: -3.024e-04  cgtest:  1.889e-04  t[s]:     15.17
	FillingsUpdate:  mu: -0.181213219  nElectrons: 33.000000  magneticMoment: [ Abs: 0.41710  Tot: +0.40000 ]
LCAOMinimize: Iter:   6  F: -53.5675479868068223  |grad|_K:  1.022e-05  alpha:  9.106e-01  linmin:  1.460e-03  cgtest:  2.063e-01  t[s]:     17.17
LCAOMinimize: 	Wrong curvature in test step, increasing alphaT to 2.731728e+00.
	FillingsUpdate:  mu: -0.181428757  nElectrons: 33.000000  magneticMoment: [ Abs: 0.41947  Tot: +0.40000 ]
LCAOMinimize: Iter:   7  F: -53.5675526382385385  |grad|_K:  1.183e-05  alpha: -1.719e+00  linmin: -8.821e-02  cgtest:  7.028e-01  t[s]:     19.16
	FillingsUpdate:  mu: -0.181282333  nElectrons: 33.000000  magneticMoment: [ Abs: 0.41936  Tot: +0.40000 ]
LCAOMinimize: Iter:   8  F: -53.5675537995104847  |grad|_K:  6.968e-06  alpha:  2.767e-01  linmin: -7.089e-02  cgtest:  6.024e-01  t[s]:     21.20
LCAOMinimize: Encountered beta<0, resetting CG.
LCAOMinimize: 	Predicted alpha/alphaT>3.000000, increasing alphaT to 8.301436e-01.
	FillingsUpdate:  mu: -0.181412994  nElectrons: 33.000000  magneticMoment: [ Abs: 0.41732  Tot: +0.40000 ]
LCAOMinimize: Iter:   9  F: -53.5675549627785728  |grad|_K:  4.239e-06  alpha:  1.154e+00  linmin: -6.528e-04  cgtest: -7.325e-03  t[s]:     23.91
	FillingsUpdate:  mu: -0.181355566  nElectrons: 33.000000  magneticMoment: [ Abs: 0.41679  Tot: +0.40000 ]
LCAOMinimize: Iter:  10  F: -53.5675551482780605  |grad|_K:  1.538e-06  alpha:  4.670e-01  linmin: -6.405e-03  cgtest:  7.258e-02  t[s]:     25.91
	FillingsUpdate:  mu: -0.181355769  nElectrons: 33.000000  magneticMoment: [ Abs: 0.41651  Tot: +0.40000 ]
LCAOMinimize: Iter:  11  F: -53.5675551924165205  |grad|_K:  5.584e-07  alpha:  8.732e-01  linmin:  5.250e-04  cgtest: -6.476e-02  t[s]:     27.91
LCAOMinimize: Converged (|Delta F|<1.000000e-06 for 2 iters).


---- Citations for features of the code used in this run ----

   Software package:
      R. Sundararaman, K. Letchworth-Weaver, K.A. Schwarz, D. Gunceler, Y. Ozhabes and T.A. Arias, 'JDFTx: software for joint density-functional theory', SoftwareX 6, 278 (2017)

   gga-PBE exchange-correlation functional:
      J.P. Perdew, K. Burke and M. Ernzerhof, Phys. Rev. Lett. 77, 3865 (1996)

   Pseudopotentials:
      M Schlipf and F Gygi, Comput. Phys. Commun. 196, 36 (2015)

   Truncated Coulomb potentials:
      R. Sundararaman and T.A. Arias, Phys. Rev. B 87, 165122 (2013)

This list may not be complete. Please suggest additional citations or
report any other bugs at https://github.com/shankar1729/jdftx/issues

Initialization completed successfully at t[s]:     28.11


-------- Electronic minimization -----------
Will mix electronic density at each iteration.
	FillingsUpdate:  mu: -0.181355769  nElectrons: 33.000000  magneticMoment: [ Abs: 0.41651  Tot: +0.40000 ]
	FillingsUpdate:  mu: -0.198151924  nElectrons: 33.000000  magneticMoment: [ Abs: 0.41651  Tot: +0.40000 ]
SCF: Cycle:  0   F: -53.997932678573434   dF: -4.304e-01   |Residual|: 2.313e-01   |deigs|: 1.091e-01  t[s]:     32.79
	FillingsUpdate:  mu: -0.176585456  nElectrons: 33.000000  magneticMoment: [ Abs: 0.43104  Tot: +0.40000 ]
SCF: Cycle:  1   F: -54.018210784058716   dF: -2.028e-02   |Residual|: 1.288e-01   |deigs|: 2.702e-02  t[s]:     36.22
	FillingsUpdate:  mu: -0.145305404  nElectrons: 33.000000  magneticMoment: [ Abs: 0.44822  Tot: +0.40000 ]
SCF: Cycle:  2   F: -54.030964064582072   dF: -1.275e-02   |Residual|: 2.871e-02   |deigs|: 3.126e-02  t[s]:     39.69
	FillingsUpdate:  mu: -0.142047740  nElectrons: 33.000000  magneticMoment: [ Abs: 0.45125  Tot: +0.40000 ]
SCF: Cycle:  3   F: -54.031295045988266   dF: -3.310e-04   |Residual|: 1.558e-02   |deigs|: 8.546e-03  t[s]:     43.17
	FillingsUpdate:  mu: -0.130968788  nElectrons: 33.000000  magneticMoment: [ Abs: 0.43977  Tot: +0.40000 ]
SCF: Cycle:  4   F: -54.031945607202474   dF: -6.506e-04   |Residual|: 8.131e-03   |deigs|: 1.030e-02  t[s]:     46.69
	FillingsUpdate:  mu: -0.125720351  nElectrons: 33.000000  magneticMoment: [ Abs: 0.44415  Tot: +0.40000 ]
SCF: Cycle:  5   F: -54.032120878795041   dF: -1.753e-04   |Residual|: 6.274e-03   |deigs|: 5.029e-03  t[s]:     50.23
	FillingsUpdate:  mu: -0.119580257  nElectrons: 33.000000  magneticMoment: [ Abs: 0.44293  Tot: +0.40000 ]
SCF: Cycle:  6   F: -54.032182759512814   dF: -6.188e-05   |Residual|: 4.247e-03   |deigs|: 5.689e-03  t[s]:     53.80
	FillingsUpdate:  mu: -0.114655541  nElectrons: 33.000000  magneticMoment: [ Abs: 0.44218  Tot: +0.40000 ]
SCF: Cycle:  7   F: -54.032176069523302   dF: +6.690e-06   |Residual|: 3.268e-03   |deigs|: 6.045e-03  t[s]:     57.41
	FillingsUpdate:  mu: -0.110528101  nElectrons: 33.000000  magneticMoment: [ Abs: 0.44234  Tot: +0.40000 ]
SCF: Cycle:  8   F: -54.032198256010375   dF: -2.219e-05   |Residual|: 2.787e-03   |deigs|: 4.290e-03  t[s]:     61.03
	FillingsUpdate:  mu: -0.107249058  nElectrons: 33.000000  magneticMoment: [ Abs: 0.44011  Tot: +0.40000 ]
SCF: Cycle:  9   F: -54.032220651053905   dF: -2.240e-05   |Residual|: 2.053e-03   |deigs|: 3.511e-03  t[s]:     64.70
	FillingsUpdate:  mu: -0.105029901  nElectrons: 33.000000  magneticMoment: [ Abs: 0.44127  Tot: +0.40000 ]
SCF: Cycle: 10   F: -54.032233054651456   dF: -1.240e-05   |Residual|: 1.829e-03   |deigs|: 2.322e-03  t[s]:     68.39
	FillingsUpdate:  mu: -0.101888328  nElectrons: 33.000000  magneticMoment: [ Abs: 0.44267  Tot: +0.40000 ]
SCF: Cycle: 11   F: -54.032242496898341   dF: -9.442e-06   |Residual|: 1.417e-03   |deigs|: 3.002e-03  t[s]:     72.06
	FillingsUpdate:  mu: -0.099492314  nElectrons: 33.000000  magneticMoment: [ Abs: 0.44122  Tot: +0.40000 ]
SCF: Cycle: 12   F: -54.032246081028397   dF: -3.584e-06   |Residual|: 1.307e-03   |deigs|: 2.215e-03  t[s]:     75.75
	FillingsUpdate:  mu: -0.096138369  nElectrons: 33.000000  magneticMoment: [ Abs: 0.44116  Tot: +0.40000 ]
SCF: Cycle: 13   F: -54.032247787373464   dF: -1.706e-06   |Residual|: 1.132e-03   |deigs|: 3.177e-03  t[s]:     79.44
	FillingsUpdate:  mu: -0.092485533  nElectrons: 33.000000  magneticMoment: [ Abs: 0.44014  Tot: +0.40000 ]
SCF: Cycle: 14   F: -54.032247858720361   dF: -7.135e-08   |Residual|: 1.095e-03   |deigs|: 3.307e-03  t[s]:     83.12
	FillingsUpdate:  mu: -0.088484786  nElectrons: 33.000000  magneticMoment: [ Abs: 0.44123  Tot: +0.40000 ]
SCF: Cycle: 15   F: -54.032247831381824   dF: +2.734e-08   |Residual|: 9.878e-04   |deigs|: 3.638e-03  t[s]:     86.82
	FillingsUpdate:  mu: -0.084806089  nElectrons: 33.000000  magneticMoment: [ Abs: 0.44151  Tot: +0.40000 ]
SCF: Cycle: 16   F: -54.032249263187758   dF: -1.432e-06   |Residual|: 8.166e-04   |deigs|: 3.423e-03  t[s]:     90.49
	FillingsUpdate:  mu: -0.082240370  nElectrons: 33.000000  magneticMoment: [ Abs: 0.44076  Tot: +0.40000 ]
SCF: Cycle: 17   F: -54.032251699307238   dF: -2.436e-06   |Residual|: 5.882e-04   |deigs|: 2.302e-03  t[s]:     94.17
	FillingsUpdate:  mu: -0.080872323  nElectrons: 33.000000  magneticMoment: [ Abs: 0.44054  Tot: +0.40000 ]
SCF: Cycle: 18   F: -54.032253322453030   dF: -1.623e-06   |Residual|: 3.649e-04   |deigs|: 1.234e-03  t[s]:     97.86
	FillingsUpdate:  mu: -0.080327726  nElectrons: 33.000000  magneticMoment: [ Abs: 0.44036  Tot: +0.40000 ]
SCF: Cycle: 19   F: -54.032253772256304   dF: -4.498e-07   |Residual|: 2.084e-04   |deigs|: 5.836e-04  t[s]:    101.53
	FillingsUpdate:  mu: -0.080078360  nElectrons: 33.000000  magneticMoment: [ Abs: 0.44034  Tot: +0.40000 ]
SCF: Cycle: 20   F: -54.032253875732664   dF: -1.035e-07   |Residual|: 1.171e-04   |deigs|: 3.111e-04  t[s]:    105.19
	FillingsUpdate:  mu: -0.079951724  nElectrons: 33.000000  magneticMoment: [ Abs: 0.44031  Tot: +0.40000 ]
SCF: Cycle: 21   F: -54.032253909149951   dF: -3.342e-08   |Residual|: 6.540e-05   |deigs|: 2.420e-04  t[s]:    108.84
	FillingsUpdate:  mu: -0.079871657  nElectrons: 33.000000  magneticMoment: [ Abs: 0.44026  Tot: +0.40000 ]
SCF: Cycle: 22   F: -54.032253924122330   dF: -1.497e-08   |Residual|: 2.975e-05   |deigs|: 2.694e-04  t[s]:    112.52
	FillingsUpdate:  mu: -0.079835005  nElectrons: 33.000000  magneticMoment: [ Abs: 0.44023  Tot: +0.40000 ]
SCF: Cycle: 23   F: -54.032253930065032   dF: -5.943e-09   |Residual|: 1.707e-05   |deigs|: 4.033e-04  t[s]:    116.17
	FillingsUpdate:  mu: -0.079818040  nElectrons: 33.000000  magneticMoment: [ Abs: 0.44023  Tot: +0.40000 ]
SCF: Cycle: 24   F: -54.032253932850679   dF: -2.786e-09   |Residual|: 1.177e-05   |deigs|: 1.331e-04  t[s]:    119.82
SCF: Converged (|Delta E|<1.000000e-08 for 2 iters).


# Ionic positions in lattice coordinates:
ion C  -0.000000000000000   0.000000000000000   0.000000000000000 1
ion N   0.164313074529992   0.328626149059985   0.000000000000000 1
ion N   0.164313074529992   0.835686925470008   0.000000000000000 1
ion N   0.666666666666667   0.333333333333333   0.000000000000000 1
ion N   0.671373850940015   0.835686925470008   0.000000000000000 1
ion B  -0.001576660817548   0.499211669591226   0.000000000000000 1
ion B   0.500788330408774   0.001576660817548   0.000000000000000 1
ion B   0.500788330408774   0.499211669591226   0.000000000000000 1

# Forces in Lattice coordinates:
force C   0.000000000000000   0.000000000000000   0.000000000000000 1
force N  -0.000000000000000  -0.036245848332938   0.000000000000000 1
force N  -0.036245848332940   0.036245848332937   0.000000000000000 1
force N   0.000000000000000  -0.000000000000000   0.000000000000000 1
force N   0.036245848332938  -0.000000000000000   0.000000000000000 1
force B   0.006879444953006  -0.000000000000000   0.000000000000000 1
force B   0.000000000000000  -0.006879444953006  -0.000000000000000 1
force B  -0.006879444953007   0.006879444953006   0.000000000000000 1

# Energy components:
   Eewald =      -85.5148968124686775
       EH =      -43.5269020784510587
     Eloc =       54.1315549405650600
      Enl =       -2.2709762846051071
   Epulay =       -0.0000008322926719
      Exc =      -15.3374163722506580
       KE =       38.4863841134367988
-------------------------------------
     Etot =      -54.0322533260663107
       TS =        0.0000006067843657
-------------------------------------
        F =      -54.0322539328506792

IonicMinimize: Iter:   0  F: -54.032253932850679  |grad|_K:  1.610e-03  t[s]:    120.16
IonicMinimize: None of the convergence criteria satisfied after 0 iterations.

#--- Lowdin population analysis ---
# oxidation-state C +0.259
# magnetic-moments C +0.216
# oxidation-state N -0.255 -0.255 -0.381 -0.255
# magnetic-moments N -0.001 -0.001 +0.008 -0.001
# oxidation-state B +0.403 +0.403 +0.403
# magnetic-moments B +0.057 +0.057 +0.057


Dumping 'BN22BC-0.4.fillings' ... done
Dumping 'BN22BC-0.4.wfns' ... done
Dumping 'BN22BC-0.4.n_up' ... done
Dumping 'BN22BC-0.4.n_dn' ... done
Dumping 'BN22BC-0.4.eigenvals' ... done
End date and time: Sun Jan 30 23:11:50 2022  (Duration: 0-0:02:01.95)
Done!
