magnetization is -0.5
--------------------------------------------------------------------------
The library attempted to open the following supporting CUDA libraries,
but each of them failed.  CUDA-aware support is disabled.
libcuda.so.1: cannot open shared object file: No such file or directory
libcuda.dylib: cannot open shared object file: No such file or directory
/usr/lib64/libcuda.so.1: cannot open shared object file: No such file or directory
/usr/lib64/libcuda.dylib: cannot open shared object file: No such file or directory
If you are not interested in CUDA-aware support, then run with
--mca opal_warn_on_missing_libcuda 0 to suppress this message.  If you are interested
in CUDA-aware support, then try setting LD_LIBRARY_PATH to the location
of libcuda.so.1 to get passed this issue.
--------------------------------------------------------------------------
--------------------------------------------------------------------------
No OpenFabrics connection schemes reported that they were able to be
used on a specific port.  As such, the openib BTL (OpenFabrics
support) will be disabled for this port.

  Local host:           d-5-1-1
  Local device:         mlx5_1
  Local port:           1
  CPCs attempted:       rdmacm, udcm
--------------------------------------------------------------------------

*************** JDFTx 1.6.0 (git hash 42ebbcc2) ***************

Start date and time: Sun Jan 30 23:07:14 2022
Executable jdftx with command-line: -i BN22BC.in
Running on hosts (process indices):  d-5-1-1 (0-37)
Divided in process groups (process indices):  0 (0)  1 (1)  2 (2)  3 (3)  4 (4)  5 (5)  6 (6)  7 (7)  8 (8)  9 (9)  10 (10)  11 (11)  12 (12)  13 (13)  14 (14)  15 (15)  16 (16)  17 (17)  18 (18)  19 (19)  20 (20)  21 (21)  22 (22)  23 (23)  24 (24)  25 (25)  26 (26)  27 (27)  28 (28)  29 (29)  30 (30)  31 (31)  32 (32)  33 (33)  34 (34)  35 (35)  36 (36)  37 (37)
Resource initialization completed at t[s]:      0.00
Run totals: 38 processes, 48 threads, 0 GPUs


Input parsed successfully to the following command list (including defaults):

basis kpoint-dependent
coords-type Lattice
core-overlap-check vector
coulomb-interaction Slab 001
davidson-band-ratio 1.1
dump End State ElecDensity BandEigs
dump-name BN22BC--0.5.$VAR
elec-cutoff 20
elec-eigen-algo Davidson
elec-ex-corr gga-PBE
elec-initial-magnetization -0.500000 yes
elec-smearing Fermi 1e-05
electronic-minimize  \
	dirUpdateScheme      FletcherReeves \
	linminMethod         DirUpdateRecommended \
	nIterations          100 \
	history              15 \
	knormThreshold       0 \
	energyDiffThreshold  1e-08 \
	nEnergyDiff          2 \
	alphaTstart          1 \
	alphaTmin            1e-10 \
	updateTestStepSize   yes \
	alphaTreduceFactor   0.1 \
	alphaTincreaseFactor 3 \
	nAlphaAdjustMax      3 \
	wolfeEnergy          0.0001 \
	wolfeGradient        0.9 \
	fdTest               no
electronic-scf  \
	nIterations	1000 \
	energyDiffThreshold	1e-08 \
	residualThreshold	1e-07 \
	mixFraction	0.5 \
	qMetric	0.8 \
	history	10 \
	nEigSteps	2 \
	eigDiffThreshold	1e-08 \
	mixedVariable	Density \
	qKerker	0.8 \
	qKappa	-1 \
	verbose	no \
	mixFractionMag	1.5
exchange-regularization WignerSeitzTruncated
fluid None
fluid-ex-corr (null) lda-PZ
fluid-gummel-loop 10 1.000000e-05
fluid-minimize  \
	dirUpdateScheme      PolakRibiere \
	linminMethod         DirUpdateRecommended \
	nIterations          100 \
	history              15 \
	knormThreshold       0 \
	energyDiffThreshold  0 \
	nEnergyDiff          2 \
	alphaTstart          1 \
	alphaTmin            1e-10 \
	updateTestStepSize   yes \
	alphaTreduceFactor   0.1 \
	alphaTincreaseFactor 3 \
	nAlphaAdjustMax      3 \
	wolfeEnergy          0.0001 \
	wolfeGradient        0.9 \
	fdTest               no
fluid-solvent H2O 55.338 ScalarEOS \
	epsBulk 78.4 \
	pMol 0.92466 \
	epsInf 1.77 \
	Pvap 1.06736e-10 \
	sigmaBulk 4.62e-05 \
	Rvdw 2.61727 \
	Res 1.42 \
	tauNuc 343133 \
	poleEl 15 7 1
forces-output-coords Positions
ion C   0.000000000000000  -0.000000000000000   0.000000000000000 1
ion N   0.164313074529992   0.328626149059985   0.000000000000000 1
ion N   0.164313074529992   0.835686925470008   0.000000000000000 1
ion N   0.666666666666667   0.333333333333333   0.000000000000000 1
ion N   0.671373850940015   0.835686925470008   0.000000000000000 1
ion B  -0.001576660817548   0.499211669591226   0.000000000000000 1
ion B   0.500788330408774   0.001576660817548   0.000000000000000 1
ion B   0.500788330408774   0.499211669591226   0.000000000000000 1
ion-species SG15/$ID_ONCV_PBE.upf
ion-width 0
ionic-minimize  \
	dirUpdateScheme      L-BFGS \
	linminMethod         DirUpdateRecommended \
	nIterations          0 \
	history              15 \
	knormThreshold       0.0001 \
	energyDiffThreshold  1e-06 \
	nEnergyDiff          2 \
	alphaTstart          1 \
	alphaTmin            1e-10 \
	updateTestStepSize   yes \
	alphaTreduceFactor   0.1 \
	alphaTincreaseFactor 3 \
	nAlphaAdjustMax      3 \
	wolfeEnergy          0.0001 \
	wolfeGradient        0.9 \
	fdTest               no
kpoint   0.000000000000   0.000000000000   0.000000000000  1.00000000000000
kpoint-folding 12 12 1 
latt-move-scale 1 1 1
latt-scale 1 1 1 
lattice  \
	   9.356640512437433   -4.678320256218713    0.000000000000000  \
	  -0.000000000000000    8.103088377849462    0.000000000000000  \
	   0.000000000000000    0.000000000000000   40.000000000000000 
lattice-minimize  \
	dirUpdateScheme      L-BFGS \
	linminMethod         DirUpdateRecommended \
	nIterations          0 \
	history              15 \
	knormThreshold       0 \
	energyDiffThreshold  1e-06 \
	nEnergyDiff          2 \
	alphaTstart          1 \
	alphaTmin            1e-10 \
	updateTestStepSize   yes \
	alphaTreduceFactor   0.1 \
	alphaTincreaseFactor 3 \
	nAlphaAdjustMax      3 \
	wolfeEnergy          0.0001 \
	wolfeGradient        0.9 \
	fdTest               no
lcao-params -1 1e-06 1e-05
pcm-variant GLSSA13
spintype z-spin
subspace-rotation-factor 1 yes
symmetries automatic
symmetry-threshold 0.0001



---------- Setting up symmetries ----------

Found 24 point-group symmetries of the bravais lattice
Found 12 space-group symmetries with basis
Applied RMS atom displacement 3.80214e-15 bohrs to make symmetries exact.

---------- Initializing the Grid ----------
R = 
[      9.35664     -4.67832            0  ]
[            0      8.10309            0  ]
[            0            0           40  ]
unit cell volume = 3032.71
G =
[   0.671522   0.387703         -0  ]
[          0   0.775406         -0  ]
[         -0         -0    0.15708  ]
Minimum fftbox size, Smin = [  40  40  164  ]
Chosen fftbox size, S = [  40  40  168  ]

---------- Exchange Correlation functional ----------
Initalized PBE GGA exchange.
Initalized PBE GGA correlation.

---------- Setting up pseudopotentials ----------
Width of ionic core gaussian charges (only for fluid interactions / plotting) set to 0

Reading pseudopotential file '/home/gridsan/aligho/DFT/build-Nov24/pseudopotentials/SG15/C_ONCV_PBE.upf':
  'C' pseudopotential, 'PBE' functional
  Generated using ONCVPSP code by D. R. Hamann
  Author: Martin Schlipf and Francois Gygi  Date: 150915.
  4 valence electrons, 2 orbitals, 4 projectors, 1248 radial grid points, with lMax = 1
  Transforming local potential to a uniform radial grid of dG=0.02 with 1502 points.
  Transforming nonlocal projectors to a uniform radial grid of dG=0.02 with 432 points.
    2S    l: 0   occupation:  2.0   eigenvalue: -0.505335
    2P    l: 1   occupation:  2.0   eigenvalue: -0.194238
  Transforming atomic orbitals to a uniform radial grid of dG=0.02 with 432 points.
  Core radius for overlap checks: 1.23 bohrs.
  Reading pulay file /home/gridsan/aligho/DFT/build-Nov24/pseudopotentials/SG15/C_ONCV_PBE.pulay ... using dE_dnG = -9.239532e-03 computed for Ecut = 20.

Reading pseudopotential file '/home/gridsan/aligho/DFT/build-Nov24/pseudopotentials/SG15/N_ONCV_PBE.upf':
  'N' pseudopotential, 'PBE' functional
  Generated using ONCVPSP code by D. R. Hamann
  Author: Martin Schlipf and Francois Gygi  Date: 150915.
  5 valence electrons, 2 orbitals, 4 projectors, 1058 radial grid points, with lMax = 1
  Transforming local potential to a uniform radial grid of dG=0.02 with 1502 points.
  Transforming nonlocal projectors to a uniform radial grid of dG=0.02 with 432 points.
    2S    l: 0   occupation:  2.0   eigenvalue: -0.682907
    2P    l: 1   occupation:  3.0   eigenvalue: -0.260548
  Transforming atomic orbitals to a uniform radial grid of dG=0.02 with 432 points.
  Core radius for overlap checks: 1.35 bohrs.
  Reading pulay file /home/gridsan/aligho/DFT/build-Nov24/pseudopotentials/SG15/N_ONCV_PBE.pulay ... using dE_dnG = -2.956256e-02 computed for Ecut = 20.

Reading pseudopotential file '/home/gridsan/aligho/DFT/build-Nov24/pseudopotentials/SG15/B_ONCV_PBE.upf':
  'B' pseudopotential, 'PBE' functional
  Generated using ONCVPSP code by D. R. Hamann
  Author: Martin Schlipf and Francois Gygi  Date: 150915.
  3 valence electrons, 2 orbitals, 4 projectors, 1534 radial grid points, with lMax = 1
  Transforming local potential to a uniform radial grid of dG=0.02 with 1502 points.
  Transforming nonlocal projectors to a uniform radial grid of dG=0.02 with 432 points.
    2S    l: 0   occupation:  2.0   eigenvalue: -0.347027
    2P    l: 1   occupation:  1.0   eigenvalue: -0.132548
  Transforming atomic orbitals to a uniform radial grid of dG=0.02 with 432 points.
  Core radius for overlap checks: 1.60 bohrs.
  Reading pulay file /home/gridsan/aligho/DFT/build-Nov24/pseudopotentials/SG15/B_ONCV_PBE.pulay ... using dE_dnG = -3.748568e-04 computed for Ecut = 20.

Initialized 3 species with 8 total atoms.

Folded 1 k-points by 12x12x1 to 144 k-points.

---------- Setting up k-points, bands, fillings ----------
Adding inversion symmetry to k-mesh for non-inversion-symmetric unit cell.
Reduced to 19 k-points under symmetry. 
Computing the number of bands and number of electrons
Calculating initial fillings.
nElectrons:  33.000000   nBands: 32   nStates: 38

----- Setting up reduced wavefunction bases (one per k-point) -----
average nbasis = 12955.938 , ideal nbasis = 12955.957

---------- Setting up coulomb interaction ----------
Initialized slab truncation along lattice direction 001

---------- Setting up 2D ewald sum ----------
Optimum gaussian width for ewald sums = 5.194429 bohr.
Real space sums over 289 unit cells with max indices [  8  8  0  ]
Reciprocal space sums over 81 terms with max indices [  4  4  0  ]

---------- Allocating electronic variables ----------
Initializing wave functions:  linear combination of atomic orbitals
C pseudo-atom occupations:   s ( 2 )  p ( 2 )
N pseudo-atom occupations:   s ( 2 )  p ( 3 )
B pseudo-atom occupations:   s ( 2 )  p ( 1 )
	FillingsUpdate:  mu: -0.181509976  nElectrons: 33.000000  magneticMoment: [ Abs: 0.51310  Tot: -0.50000 ]
LCAOMinimize: Iter:   0  F: -53.3433731170844752  |grad|_K:  5.446e-03  alpha:  1.000e+00
[d-5-1-1:57664] 37 more processes have sent help message help-mpi-common-cuda.txt / dlopen failed
[d-5-1-1:57664] Set MCA parameter "orte_base_help_aggregate" to 0 to see all help / error messages
[d-5-1-1:57664] 37 more processes have sent help message help-mpi-btl-openib-cpc-base.txt / no cpcs for port
	FillingsUpdate:  mu: -0.183767621  nElectrons: 33.000000  magneticMoment: [ Abs: 0.51500  Tot: -0.50000 ]
LCAOMinimize: Iter:   1  F: -53.5614156877911682  |grad|_K:  9.625e-04  alpha:  4.248e-01  linmin:  3.459e-01  cgtest: -8.168e-01  t[s]:      6.78
	FillingsUpdate:  mu: -0.178613701  nElectrons: 33.000000  magneticMoment: [ Abs: 0.51609  Tot: -0.50000 ]
LCAOMinimize: Iter:   2  F: -53.5628653741093927  |grad|_K:  8.116e-04  alpha:  2.337e-01  linmin:  1.081e-03  cgtest:  8.873e-01  t[s]:      8.75
LCAOMinimize: Encountered beta<0, resetting CG.
	FillingsUpdate:  mu: -0.178301591  nElectrons: 33.000000  magneticMoment: [ Abs: 0.51755  Tot: -0.50000 ]
LCAOMinimize: Iter:   3  F: -53.5680139667951067  |grad|_K:  9.949e-05  alpha:  3.822e-01  linmin:  9.935e-03  cgtest: -2.751e-01  t[s]:     10.75
	FillingsUpdate:  mu: -0.179351958  nElectrons: 33.000000  magneticMoment: [ Abs: 0.51882  Tot: -0.50000 ]
LCAOMinimize: Iter:   4  F: -53.5680827780252287  |grad|_K:  3.876e-05  alpha:  3.718e-01  linmin:  2.700e-02  cgtest:  3.162e-01  t[s]:     12.73
	FillingsUpdate:  mu: -0.179139299  nElectrons: 33.000000  magneticMoment: [ Abs: 0.51978  Tot: -0.50000 ]
LCAOMinimize: Iter:   5  F: -53.5680963774720027  |grad|_K:  1.483e-05  alpha:  4.392e-01  linmin: -8.617e-04  cgtest:  1.919e-02  t[s]:     14.72
	FillingsUpdate:  mu: -0.178972904  nElectrons: 33.000000  magneticMoment: [ Abs: 0.52107  Tot: -0.50000 ]
LCAOMinimize: Iter:   6  F: -53.5680998473749526  |grad|_K:  9.211e-06  alpha:  7.610e-01  linmin: -9.484e-04  cgtest: -1.547e-03  t[s]:     16.70
	FillingsUpdate:  mu: -0.179084742  nElectrons: 33.000000  magneticMoment: [ Abs: 0.52174  Tot: -0.50000 ]
LCAOMinimize: Iter:   7  F: -53.5681008964306926  |grad|_K:  1.683e-06  alpha:  5.966e-01  linmin:  1.570e-04  cgtest: -1.186e-02  t[s]:     18.67
	FillingsUpdate:  mu: -0.179078702  nElectrons: 33.000000  magneticMoment: [ Abs: 0.52174  Tot: -0.50000 ]
LCAOMinimize: Iter:   8  F: -53.5681009363487135  |grad|_K:  8.481e-07  alpha:  6.804e-01  linmin: -2.695e-05  cgtest:  1.865e-04  t[s]:     20.65
	FillingsUpdate:  mu: -0.179079662  nElectrons: 33.000000  magneticMoment: [ Abs: 0.52171  Tot: -0.50000 ]
LCAOMinimize: Iter:   9  F: -53.5681009436886555  |grad|_K:  2.786e-07  alpha:  4.925e-01  linmin: -1.666e-03  cgtest:  3.880e-03  t[s]:     22.62
LCAOMinimize: Converged (|Delta F|<1.000000e-06 for 2 iters).


---- Citations for features of the code used in this run ----

   Software package:
      R. Sundararaman, K. Letchworth-Weaver, K.A. Schwarz, D. Gunceler, Y. Ozhabes and T.A. Arias, 'JDFTx: software for joint density-functional theory', SoftwareX 6, 278 (2017)

   gga-PBE exchange-correlation functional:
      J.P. Perdew, K. Burke and M. Ernzerhof, Phys. Rev. Lett. 77, 3865 (1996)

   Pseudopotentials:
      M Schlipf and F Gygi, Comput. Phys. Commun. 196, 36 (2015)

   Truncated Coulomb potentials:
      R. Sundararaman and T.A. Arias, Phys. Rev. B 87, 165122 (2013)

This list may not be complete. Please suggest additional citations or
report any other bugs at https://github.com/shankar1729/jdftx/issues

Initialization completed successfully at t[s]:     22.82


-------- Electronic minimization -----------
Will mix electronic density at each iteration.
	FillingsUpdate:  mu: -0.179079662  nElectrons: 33.000000  magneticMoment: [ Abs: 0.52171  Tot: -0.50000 ]
	FillingsUpdate:  mu: -0.195168789  nElectrons: 33.000000  magneticMoment: [ Abs: 0.52171  Tot: -0.50000 ]
SCF: Cycle:  0   F: -53.998538145832129   dF: -4.304e-01   |Residual|: 2.315e-01   |deigs|: 1.092e-01  t[s]:     27.34
	FillingsUpdate:  mu: -0.173040445  nElectrons: 33.000000  magneticMoment: [ Abs: 0.53988  Tot: -0.50000 ]
SCF: Cycle:  1   F: -54.018636248604558   dF: -2.010e-02   |Residual|: 1.291e-01   |deigs|: 2.696e-02  t[s]:     30.66
	FillingsUpdate:  mu: -0.142150811  nElectrons: 33.000000  magneticMoment: [ Abs: 0.55551  Tot: -0.50000 ]
SCF: Cycle:  2   F: -54.031433827596317   dF: -1.280e-02   |Residual|: 2.837e-02   |deigs|: 3.124e-02  t[s]:     33.99
	FillingsUpdate:  mu: -0.138753607  nElectrons: 33.000000  magneticMoment: [ Abs: 0.56032  Tot: -0.50000 ]
SCF: Cycle:  3   F: -54.031790755062417   dF: -3.569e-04   |Residual|: 1.601e-02   |deigs|: 8.593e-03  t[s]:     37.35
	FillingsUpdate:  mu: -0.127009334  nElectrons: 33.000000  magneticMoment: [ Abs: 0.55734  Tot: -0.50000 ]
SCF: Cycle:  4   F: -54.032436534531911   dF: -6.458e-04   |Residual|: 8.509e-03   |deigs|: 1.087e-02  t[s]:     40.74
	FillingsUpdate:  mu: -0.122643836  nElectrons: 33.000000  magneticMoment: [ Abs: 0.56008  Tot: -0.50000 ]
SCF: Cycle:  5   F: -54.032594415643402   dF: -1.579e-04   |Residual|: 6.483e-03   |deigs|: 4.402e-03  t[s]:     44.14
	FillingsUpdate:  mu: -0.115500141  nElectrons: 33.000000  magneticMoment: [ Abs: 0.55550  Tot: -0.50000 ]
SCF: Cycle:  6   F: -54.032660972723065   dF: -6.656e-05   |Residual|: 3.935e-03   |deigs|: 6.705e-03  t[s]:     47.58
	FillingsUpdate:  mu: -0.111402027  nElectrons: 33.000000  magneticMoment: [ Abs: 0.55427  Tot: -0.50000 ]
SCF: Cycle:  7   F: -54.032653358918772   dF: +7.614e-06   |Residual|: 3.301e-03   |deigs|: 5.003e-03  t[s]:     51.03
	FillingsUpdate:  mu: -0.106511213  nElectrons: 33.000000  magneticMoment: [ Abs: 0.55680  Tot: -0.50000 ]
SCF: Cycle:  8   F: -54.032680137338616   dF: -2.678e-05   |Residual|: 2.619e-03   |deigs|: 5.097e-03  t[s]:     54.51
	FillingsUpdate:  mu: -0.104043380  nElectrons: 33.000000  magneticMoment: [ Abs: 0.55558  Tot: -0.50000 ]
SCF: Cycle:  9   F: -54.032698586404990   dF: -1.845e-05   |Residual|: 2.015e-03   |deigs|: 2.711e-03  t[s]:     58.00
	FillingsUpdate:  mu: -0.101609139  nElectrons: 33.000000  magneticMoment: [ Abs: 0.55475  Tot: -0.50000 ]
SCF: Cycle: 10   F: -54.032711334643466   dF: -1.275e-05   |Residual|: 1.822e-03   |deigs|: 2.530e-03  t[s]:     61.54
	FillingsUpdate:  mu: -0.098225942  nElectrons: 33.000000  magneticMoment: [ Abs: 0.55432  Tot: -0.50000 ]
SCF: Cycle: 11   F: -54.032721604368291   dF: -1.027e-05   |Residual|: 1.431e-03   |deigs|: 3.166e-03  t[s]:     65.10
	FillingsUpdate:  mu: -0.095912365  nElectrons: 33.000000  magneticMoment: [ Abs: 0.55434  Tot: -0.50000 ]
SCF: Cycle: 12   F: -54.032724722627677   dF: -3.118e-06   |Residual|: 1.300e-03   |deigs|: 2.169e-03  t[s]:     68.63
	FillingsUpdate:  mu: -0.092351937  nElectrons: 33.000000  magneticMoment: [ Abs: 0.55581  Tot: -0.50000 ]
SCF: Cycle: 13   F: -54.032726007377221   dF: -1.285e-06   |Residual|: 1.128e-03   |deigs|: 3.441e-03  t[s]:     72.14
	FillingsUpdate:  mu: -0.089060721  nElectrons: 33.000000  magneticMoment: [ Abs: 0.55487  Tot: -0.50000 ]
SCF: Cycle: 14   F: -54.032725691370494   dF: +3.160e-07   |Residual|: 1.108e-03   |deigs|: 2.907e-03  t[s]:     75.69
	FillingsUpdate:  mu: -0.084772600  nElectrons: 33.000000  magneticMoment: [ Abs: 0.55493  Tot: -0.50000 ]
SCF: Cycle: 15   F: -54.032726752542146   dF: -1.061e-06   |Residual|: 9.949e-04   |deigs|: 3.955e-03  t[s]:     79.21
	FillingsUpdate:  mu: -0.081207546  nElectrons: 33.000000  magneticMoment: [ Abs: 0.55412  Tot: -0.50000 ]
SCF: Cycle: 16   F: -54.032727947456564   dF: -1.195e-06   |Residual|: 8.212e-04   |deigs|: 3.338e-03  t[s]:     82.75
	FillingsUpdate:  mu: -0.078864694  nElectrons: 33.000000  magneticMoment: [ Abs: 0.55413  Tot: -0.50000 ]
SCF: Cycle: 17   F: -54.032730081624194   dF: -2.134e-06   |Residual|: 5.916e-04   |deigs|: 2.087e-03  t[s]:     86.27
	FillingsUpdate:  mu: -0.077841697  nElectrons: 33.000000  magneticMoment: [ Abs: 0.55417  Tot: -0.50000 ]
SCF: Cycle: 18   F: -54.032731513659506   dF: -1.432e-06   |Residual|: 4.045e-04   |deigs|: 1.101e-03  t[s]:     89.81
	FillingsUpdate:  mu: -0.077226623  nElectrons: 33.000000  magneticMoment: [ Abs: 0.55406  Tot: -0.50000 ]
SCF: Cycle: 19   F: -54.032731982865883   dF: -4.692e-07   |Residual|: 2.381e-04   |deigs|: 6.127e-04  t[s]:     93.36
	FillingsUpdate:  mu: -0.076891778  nElectrons: 33.000000  magneticMoment: [ Abs: 0.55400  Tot: -0.50000 ]
SCF: Cycle: 20   F: -54.032732130609901   dF: -1.477e-07   |Residual|: 1.515e-04   |deigs|: 4.893e-04  t[s]:     96.92
	FillingsUpdate:  mu: -0.076599485  nElectrons: 33.000000  magneticMoment: [ Abs: 0.55395  Tot: -0.50000 ]
SCF: Cycle: 21   F: -54.032732223285592   dF: -9.268e-08   |Residual|: 8.015e-05   |deigs|: 9.560e-04  t[s]:    100.50
	FillingsUpdate:  mu: -0.076471341  nElectrons: 33.000000  magneticMoment: [ Abs: 0.55392  Tot: -0.50000 ]
SCF: Cycle: 22   F: -54.032732253298022   dF: -3.001e-08   |Residual|: 3.277e-05   |deigs|: 5.692e-04  t[s]:    104.06
	FillingsUpdate:  mu: -0.076426898  nElectrons: 33.000000  magneticMoment: [ Abs: 0.55391  Tot: -0.50000 ]
SCF: Cycle: 23   F: -54.032732260022939   dF: -6.725e-09   |Residual|: 1.926e-05   |deigs|: 1.616e-04  t[s]:    107.59
	FillingsUpdate:  mu: -0.076414116  nElectrons: 33.000000  magneticMoment: [ Abs: 0.55390  Tot: -0.50000 ]
SCF: Cycle: 24   F: -54.032732262965439   dF: -2.942e-09   |Residual|: 1.172e-05   |deigs|: 7.794e-05  t[s]:    111.12
SCF: Converged (|Delta E|<1.000000e-08 for 2 iters).


# Ionic positions in lattice coordinates:
ion C  -0.000000000000000   0.000000000000000   0.000000000000000 1
ion N   0.164313074529992   0.328626149059985   0.000000000000000 1
ion N   0.164313074529992   0.835686925470008   0.000000000000000 1
ion N   0.666666666666667   0.333333333333333   0.000000000000000 1
ion N   0.671373850940015   0.835686925470008   0.000000000000000 1
ion B  -0.001576660817548   0.499211669591226   0.000000000000000 1
ion B   0.500788330408774   0.001576660817548   0.000000000000000 1
ion B   0.500788330408774   0.499211669591226   0.000000000000000 1

# Forces in Lattice coordinates:
force C   0.000000000000000  -0.000000000000000   0.000000000000000 1
force N   0.000000000000000  -0.032427870814613  -0.000000000000000 1
force N  -0.032427870814614   0.032427870814612   0.000000000000000 1
force N  -0.000000000000000   0.000000000000000   0.000000000000000 1
force N   0.032427870814614   0.000000000000000  -0.000000000000000 1
force B   0.009025780234658  -0.000000000000000   0.000000000000000 1
force B  -0.000000000000000  -0.009025780234658   0.000000000000000 1
force B  -0.009025780234658   0.009025780234658   0.000000000000000 1

# Energy components:
   Eewald =      -85.5148968124686775
       EH =      -43.5216749466206991
     Eloc =       54.1245849482019352
      Enl =       -2.2724002171899698
   Epulay =       -0.0000008322926719
      Exc =      -15.3394740028897658
       KE =       38.4911305375196378
-------------------------------------
     Etot =      -54.0327313257402011
       TS =        0.0000009372252410
-------------------------------------
        F =      -54.0327322629654390

IonicMinimize: Iter:   0  F: -54.032732262965439  |grad|_K:  1.469e-03  t[s]:    111.45
IonicMinimize: None of the convergence criteria satisfied after 0 iterations.

#--- Lowdin population analysis ---
# oxidation-state C +0.260
# magnetic-moments C -0.265
# oxidation-state N -0.257 -0.257 -0.383 -0.257
# magnetic-moments N +0.004 +0.004 -0.005 +0.004
# oxidation-state B +0.405 +0.405 +0.405
# magnetic-moments B -0.077 -0.077 -0.077


Dumping 'BN22BC--0.5.fillings' ... done
Dumping 'BN22BC--0.5.wfns' ... done
Dumping 'BN22BC--0.5.n_up' ... done
Dumping 'BN22BC--0.5.n_dn' ... done
Dumping 'BN22BC--0.5.eigenvals' ... done
End date and time: Sun Jan 30 23:09:08 2022  (Duration: 0-0:01:53.98)
Done!
