magnetization is 0.32
--------------------------------------------------------------------------
The library attempted to open the following supporting CUDA libraries,
but each of them failed.  CUDA-aware support is disabled.
libcuda.so.1: cannot open shared object file: No such file or directory
libcuda.dylib: cannot open shared object file: No such file or directory
/usr/lib64/libcuda.so.1: cannot open shared object file: No such file or directory
/usr/lib64/libcuda.dylib: cannot open shared object file: No such file or directory
If you are not interested in CUDA-aware support, then run with
--mca opal_warn_on_missing_libcuda 0 to suppress this message.  If you are interested
in CUDA-aware support, then try setting LD_LIBRARY_PATH to the location
of libcuda.so.1 to get passed this issue.
--------------------------------------------------------------------------
--------------------------------------------------------------------------
No OpenFabrics connection schemes reported that they were able to be
used on a specific port.  As such, the openib BTL (OpenFabrics
support) will be disabled for this port.

  Local host:           d-17-6-2
  Local device:         mlx5_1
  Local port:           1
  CPCs attempted:       rdmacm, udcm
--------------------------------------------------------------------------

*************** JDFTx 1.6.0 (git hash 42ebbcc2) ***************

Start date and time: Sun Jan 30 23:09:17 2022
Executable jdftx with command-line: -i BN22BC.in
Running on hosts (process indices):  d-17-6-2 (0-37)
Divided in process groups (process indices):  0 (0)  1 (1)  2 (2)  3 (3)  4 (4)  5 (5)  6 (6)  7 (7)  8 (8)  9 (9)  10 (10)  11 (11)  12 (12)  13 (13)  14 (14)  15 (15)  16 (16)  17 (17)  18 (18)  19 (19)  20 (20)  21 (21)  22 (22)  23 (23)  24 (24)  25 (25)  26 (26)  27 (27)  28 (28)  29 (29)  30 (30)  31 (31)  32 (32)  33 (33)  34 (34)  35 (35)  36 (36)  37 (37)
Resource initialization completed at t[s]:      0.00
Run totals: 38 processes, 48 threads, 0 GPUs


Input parsed successfully to the following command list (including defaults):

basis kpoint-dependent
coords-type Lattice
core-overlap-check vector
coulomb-interaction Slab 001
davidson-band-ratio 1.1
dump End State ElecDensity BandEigs
dump-name BN22BC-0.32.$VAR
elec-cutoff 20
elec-eigen-algo Davidson
elec-ex-corr gga-PBE
elec-initial-magnetization 0.320000 yes
elec-smearing Fermi 1e-05
electronic-minimize  \
	dirUpdateScheme      FletcherReeves \
	linminMethod         DirUpdateRecommended \
	nIterations          100 \
	history              15 \
	knormThreshold       0 \
	energyDiffThreshold  1e-08 \
	nEnergyDiff          2 \
	alphaTstart          1 \
	alphaTmin            1e-10 \
	updateTestStepSize   yes \
	alphaTreduceFactor   0.1 \
	alphaTincreaseFactor 3 \
	nAlphaAdjustMax      3 \
	wolfeEnergy          0.0001 \
	wolfeGradient        0.9 \
	fdTest               no
electronic-scf  \
	nIterations	1000 \
	energyDiffThreshold	1e-08 \
	residualThreshold	1e-07 \
	mixFraction	0.5 \
	qMetric	0.8 \
	history	10 \
	nEigSteps	2 \
	eigDiffThreshold	1e-08 \
	mixedVariable	Density \
	qKerker	0.8 \
	qKappa	-1 \
	verbose	no \
	mixFractionMag	1.5
exchange-regularization WignerSeitzTruncated
fluid None
fluid-ex-corr (null) lda-PZ
fluid-gummel-loop 10 1.000000e-05
fluid-minimize  \
	dirUpdateScheme      PolakRibiere \
	linminMethod         DirUpdateRecommended \
	nIterations          100 \
	history              15 \
	knormThreshold       0 \
	energyDiffThreshold  0 \
	nEnergyDiff          2 \
	alphaTstart          1 \
	alphaTmin            1e-10 \
	updateTestStepSize   yes \
	alphaTreduceFactor   0.1 \
	alphaTincreaseFactor 3 \
	nAlphaAdjustMax      3 \
	wolfeEnergy          0.0001 \
	wolfeGradient        0.9 \
	fdTest               no
fluid-solvent H2O 55.338 ScalarEOS \
	epsBulk 78.4 \
	pMol 0.92466 \
	epsInf 1.77 \
	Pvap 1.06736e-10 \
	sigmaBulk 4.62e-05 \
	Rvdw 2.61727 \
	Res 1.42 \
	tauNuc 343133 \
	poleEl 15 7 1
forces-output-coords Positions
ion C   0.000000000000000  -0.000000000000000   0.000000000000000 1
ion N   0.164313074529992   0.328626149059985   0.000000000000000 1
ion N   0.164313074529992   0.835686925470008   0.000000000000000 1
ion N   0.666666666666667   0.333333333333333   0.000000000000000 1
ion N   0.671373850940015   0.835686925470008   0.000000000000000 1
ion B  -0.001576660817548   0.499211669591226   0.000000000000000 1
ion B   0.500788330408774   0.001576660817548   0.000000000000000 1
ion B   0.500788330408774   0.499211669591226   0.000000000000000 1
ion-species SG15/$ID_ONCV_PBE.upf
ion-width 0
ionic-minimize  \
	dirUpdateScheme      L-BFGS \
	linminMethod         DirUpdateRecommended \
	nIterations          0 \
	history              15 \
	knormThreshold       0.0001 \
	energyDiffThreshold  1e-06 \
	nEnergyDiff          2 \
	alphaTstart          1 \
	alphaTmin            1e-10 \
	updateTestStepSize   yes \
	alphaTreduceFactor   0.1 \
	alphaTincreaseFactor 3 \
	nAlphaAdjustMax      3 \
	wolfeEnergy          0.0001 \
	wolfeGradient        0.9 \
	fdTest               no
kpoint   0.000000000000   0.000000000000   0.000000000000  1.00000000000000
kpoint-folding 12 12 1 
latt-move-scale 1 1 1
latt-scale 1 1 1 
lattice  \
	   9.356640512437433   -4.678320256218713    0.000000000000000  \
	  -0.000000000000000    8.103088377849462    0.000000000000000  \
	   0.000000000000000    0.000000000000000   40.000000000000000 
lattice-minimize  \
	dirUpdateScheme      L-BFGS \
	linminMethod         DirUpdateRecommended \
	nIterations          0 \
	history              15 \
	knormThreshold       0 \
	energyDiffThreshold  1e-06 \
	nEnergyDiff          2 \
	alphaTstart          1 \
	alphaTmin            1e-10 \
	updateTestStepSize   yes \
	alphaTreduceFactor   0.1 \
	alphaTincreaseFactor 3 \
	nAlphaAdjustMax      3 \
	wolfeEnergy          0.0001 \
	wolfeGradient        0.9 \
	fdTest               no
lcao-params -1 1e-06 1e-05
pcm-variant GLSSA13
spintype z-spin
subspace-rotation-factor 1 yes
symmetries automatic
symmetry-threshold 0.0001



---------- Setting up symmetries ----------

Found 24 point-group symmetries of the bravais lattice
Found 12 space-group symmetries with basis
Applied RMS atom displacement 3.80214e-15 bohrs to make symmetries exact.

---------- Initializing the Grid ----------
R = 
[      9.35664     -4.67832            0  ]
[            0      8.10309            0  ]
[            0            0           40  ]
unit cell volume = 3032.71
G =
[   0.671522   0.387703         -0  ]
[          0   0.775406         -0  ]
[         -0         -0    0.15708  ]
Minimum fftbox size, Smin = [  40  40  164  ]
Chosen fftbox size, S = [  40  40  168  ]

---------- Exchange Correlation functional ----------
Initalized PBE GGA exchange.
Initalized PBE GGA correlation.

---------- Setting up pseudopotentials ----------
Width of ionic core gaussian charges (only for fluid interactions / plotting) set to 0

Reading pseudopotential file '/home/gridsan/aligho/DFT/build-Nov24/pseudopotentials/SG15/C_ONCV_PBE.upf':
  'C' pseudopotential, 'PBE' functional
  Generated using ONCVPSP code by D. R. Hamann
  Author: Martin Schlipf and Francois Gygi  Date: 150915.
  4 valence electrons, 2 orbitals, 4 projectors, 1248 radial grid points, with lMax = 1
  Transforming local potential to a uniform radial grid of dG=0.02 with 1502 points.
  Transforming nonlocal projectors to a uniform radial grid of dG=0.02 with 432 points.
    2S    l: 0   occupation:  2.0   eigenvalue: -0.505335
    2P    l: 1   occupation:  2.0   eigenvalue: -0.194238
  Transforming atomic orbitals to a uniform radial grid of dG=0.02 with 432 points.
  Core radius for overlap checks: 1.23 bohrs.
  Reading pulay file /home/gridsan/aligho/DFT/build-Nov24/pseudopotentials/SG15/C_ONCV_PBE.pulay ... using dE_dnG = -9.239532e-03 computed for Ecut = 20.

Reading pseudopotential file '/home/gridsan/aligho/DFT/build-Nov24/pseudopotentials/SG15/N_ONCV_PBE.upf':
  'N' pseudopotential, 'PBE' functional
  Generated using ONCVPSP code by D. R. Hamann
  Author: Martin Schlipf and Francois Gygi  Date: 150915.
  5 valence electrons, 2 orbitals, 4 projectors, 1058 radial grid points, with lMax = 1
  Transforming local potential to a uniform radial grid of dG=0.02 with 1502 points.
  Transforming nonlocal projectors to a uniform radial grid of dG=0.02 with 432 points.
    2S    l: 0   occupation:  2.0   eigenvalue: -0.682907
    2P    l: 1   occupation:  3.0   eigenvalue: -0.260548
  Transforming atomic orbitals to a uniform radial grid of dG=0.02 with 432 points.
  Core radius for overlap checks: 1.35 bohrs.
  Reading pulay file /home/gridsan/aligho/DFT/build-Nov24/pseudopotentials/SG15/N_ONCV_PBE.pulay ... using dE_dnG = -2.956256e-02 computed for Ecut = 20.

Reading pseudopotential file '/home/gridsan/aligho/DFT/build-Nov24/pseudopotentials/SG15/B_ONCV_PBE.upf':
  'B' pseudopotential, 'PBE' functional
  Generated using ONCVPSP code by D. R. Hamann
  Author: Martin Schlipf and Francois Gygi  Date: 150915.
  3 valence electrons, 2 orbitals, 4 projectors, 1534 radial grid points, with lMax = 1
  Transforming local potential to a uniform radial grid of dG=0.02 with 1502 points.
  Transforming nonlocal projectors to a uniform radial grid of dG=0.02 with 432 points.
    2S    l: 0   occupation:  2.0   eigenvalue: -0.347027
    2P    l: 1   occupation:  1.0   eigenvalue: -0.132548
  Transforming atomic orbitals to a uniform radial grid of dG=0.02 with 432 points.
  Core radius for overlap checks: 1.60 bohrs.
  Reading pulay file /home/gridsan/aligho/DFT/build-Nov24/pseudopotentials/SG15/B_ONCV_PBE.pulay ... using dE_dnG = -3.748568e-04 computed for Ecut = 20.

Initialized 3 species with 8 total atoms.

Folded 1 k-points by 12x12x1 to 144 k-points.

---------- Setting up k-points, bands, fillings ----------
Adding inversion symmetry to k-mesh for non-inversion-symmetric unit cell.
Reduced to 19 k-points under symmetry. 
Computing the number of bands and number of electrons
Calculating initial fillings.
nElectrons:  33.000000   nBands: 32   nStates: 38

----- Setting up reduced wavefunction bases (one per k-point) -----
average nbasis = 12955.938 , ideal nbasis = 12955.957

---------- Setting up coulomb interaction ----------
Initialized slab truncation along lattice direction 001

---------- Setting up 2D ewald sum ----------
Optimum gaussian width for ewald sums = 5.194429 bohr.
Real space sums over 289 unit cells with max indices [  8  8  0  ]
Reciprocal space sums over 81 terms with max indices [  4  4  0  ]

---------- Allocating electronic variables ----------
Initializing wave functions:  linear combination of atomic orbitals
C pseudo-atom occupations:   s ( 2 )  p ( 2 )
N pseudo-atom occupations:   s ( 2 )  p ( 3 )
B pseudo-atom occupations:   s ( 2 )  p ( 1 )
[d-17-6-2:82422] 37 more processes have sent help message help-mpi-common-cuda.txt / dlopen failed
[d-17-6-2:82422] Set MCA parameter "orte_base_help_aggregate" to 0 to see all help / error messages
[d-17-6-2:82422] 37 more processes have sent help message help-mpi-btl-openib-cpc-base.txt / no cpcs for port
	FillingsUpdate:  mu: -0.182181702  nElectrons: 33.000000  magneticMoment: [ Abs: 0.32817  Tot: +0.32000 ]
LCAOMinimize: Iter:   0  F: -53.3375597464038691  |grad|_K:  5.503e-03  alpha:  1.000e+00
	FillingsUpdate:  mu: -0.186281738  nElectrons: 33.000000  magneticMoment: [ Abs: 0.32914  Tot: +0.32000 ]
LCAOMinimize: Iter:   1  F: -53.5600620877586735  |grad|_K:  9.982e-04  alpha:  4.241e-01  linmin:  3.468e-01  cgtest: -8.188e-01  t[s]:      6.87
	FillingsUpdate:  mu: -0.181136911  nElectrons: 33.000000  magneticMoment: [ Abs: 0.32976  Tot: +0.32000 ]
LCAOMinimize: Iter:   2  F: -53.5615814493687310  |grad|_K:  8.500e-04  alpha:  2.237e-01  linmin: -6.466e-03  cgtest:  8.993e-01  t[s]:      8.86
LCAOMinimize: Encountered beta<0, resetting CG.
	FillingsUpdate:  mu: -0.180311794  nElectrons: 33.000000  magneticMoment: [ Abs: 0.33065  Tot: +0.32000 ]
LCAOMinimize: Iter:   3  F: -53.5671395380085045  |grad|_K:  9.994e-05  alpha:  3.772e-01  linmin:  1.002e-01  cgtest: -2.610e-01  t[s]:     10.84
	FillingsUpdate:  mu: -0.181339322  nElectrons: 33.000000  magneticMoment: [ Abs: 0.33148  Tot: +0.32000 ]
LCAOMinimize: Iter:   4  F: -53.5672085036343688  |grad|_K:  3.011e-05  alpha:  3.719e-01  linmin:  1.906e-03  cgtest:  3.561e-01  t[s]:     12.85
LCAOMinimize: Encountered beta<0, resetting CG.
	FillingsUpdate:  mu: -0.181443490  nElectrons: 33.000000  magneticMoment: [ Abs: 0.33207  Tot: +0.32000 ]
LCAOMinimize: Iter:   5  F: -53.5672157322206601  |grad|_K:  7.603e-06  alpha:  3.854e-01  linmin: -3.096e-04  cgtest:  1.552e-04  t[s]:     14.84
	FillingsUpdate:  mu: -0.181350486  nElectrons: 33.000000  magneticMoment: [ Abs: 0.33312  Tot: +0.32000 ]
LCAOMinimize: Iter:   6  F: -53.5672167359759612  |grad|_K:  4.584e-06  alpha:  8.389e-01  linmin: -1.555e-04  cgtest:  1.036e-03  t[s]:     16.84
	FillingsUpdate:  mu: -0.181378653  nElectrons: 33.000000  magneticMoment: [ Abs: 0.33365  Tot: +0.32000 ]
LCAOMinimize: Iter:   7  F: -53.5672169863657714  |grad|_K:  1.122e-06  alpha:  5.758e-01  linmin:  5.348e-05  cgtest: -2.312e-03  t[s]:     18.83
	FillingsUpdate:  mu: -0.181392116  nElectrons: 33.000000  magneticMoment: [ Abs: 0.33377  Tot: +0.32000 ]
LCAOMinimize: Iter:   8  F: -53.5672170081584369  |grad|_K:  3.118e-07  alpha:  8.354e-01  linmin:  4.027e-04  cgtest: -1.102e-03  t[s]:     20.81
LCAOMinimize: Converged (|Delta F|<1.000000e-06 for 2 iters).


---- Citations for features of the code used in this run ----

   Software package:
      R. Sundararaman, K. Letchworth-Weaver, K.A. Schwarz, D. Gunceler, Y. Ozhabes and T.A. Arias, 'JDFTx: software for joint density-functional theory', SoftwareX 6, 278 (2017)

   gga-PBE exchange-correlation functional:
      J.P. Perdew, K. Burke and M. Ernzerhof, Phys. Rev. Lett. 77, 3865 (1996)

   Pseudopotentials:
      M Schlipf and F Gygi, Comput. Phys. Commun. 196, 36 (2015)

   Truncated Coulomb potentials:
      R. Sundararaman and T.A. Arias, Phys. Rev. B 87, 165122 (2013)

This list may not be complete. Please suggest additional citations or
report any other bugs at https://github.com/shankar1729/jdftx/issues

Initialization completed successfully at t[s]:     21.01


-------- Electronic minimization -----------
Will mix electronic density at each iteration.
	FillingsUpdate:  mu: -0.181392116  nElectrons: 33.000000  magneticMoment: [ Abs: 0.33377  Tot: +0.32000 ]
	FillingsUpdate:  mu: -0.198366611  nElectrons: 33.000000  magneticMoment: [ Abs: 0.33377  Tot: +0.32000 ]
SCF: Cycle:  0   F: -53.997649673070875   dF: -4.304e-01   |Residual|: 2.313e-01   |deigs|: 1.091e-01  t[s]:     25.57
	FillingsUpdate:  mu: -0.176295768  nElectrons: 33.000000  magneticMoment: [ Abs: 0.34580  Tot: +0.32000 ]
SCF: Cycle:  1   F: -54.017846392312052   dF: -2.020e-02   |Residual|: 1.290e-01   |deigs|: 2.699e-02  t[s]:     28.95
	FillingsUpdate:  mu: -0.145456657  nElectrons: 33.000000  magneticMoment: [ Abs: 0.36080  Tot: +0.32000 ]
SCF: Cycle:  2   F: -54.030569018949571   dF: -1.272e-02   |Residual|: 2.837e-02   |deigs|: 3.121e-02  t[s]:     32.33
	FillingsUpdate:  mu: -0.142034512  nElectrons: 33.000000  magneticMoment: [ Abs: 0.35959  Tot: +0.32000 ]
SCF: Cycle:  3   F: -54.030928231779477   dF: -3.592e-04   |Residual|: 1.594e-02   |deigs|: 8.566e-03  t[s]:     35.79
	FillingsUpdate:  mu: -0.130050592  nElectrons: 33.000000  magneticMoment: [ Abs: 0.34926  Tot: +0.32000 ]
SCF: Cycle:  4   F: -54.031588058583154   dF: -6.598e-04   |Residual|: 8.423e-03   |deigs|: 1.108e-02  t[s]:     39.22
	FillingsUpdate:  mu: -0.125614986  nElectrons: 33.000000  magneticMoment: [ Abs: 0.35158  Tot: +0.32000 ]
SCF: Cycle:  5   F: -54.031741552112258   dF: -1.535e-04   |Residual|: 6.184e-03   |deigs|: 4.452e-03  t[s]:     42.72
	FillingsUpdate:  mu: -0.118884717  nElectrons: 33.000000  magneticMoment: [ Abs: 0.35301  Tot: +0.32000 ]
SCF: Cycle:  6   F: -54.031801784529165   dF: -6.023e-05   |Residual|: 3.986e-03   |deigs|: 6.324e-03  t[s]:     46.22
	FillingsUpdate:  mu: -0.114613231  nElectrons: 33.000000  magneticMoment: [ Abs: 0.35239  Tot: +0.32000 ]
SCF: Cycle:  7   F: -54.031795428893183   dF: +6.356e-06   |Residual|: 3.284e-03   |deigs|: 5.187e-03  t[s]:     49.80
	FillingsUpdate:  mu: -0.110268874  nElectrons: 33.000000  magneticMoment: [ Abs: 0.35244  Tot: +0.32000 ]
SCF: Cycle:  8   F: -54.031819067093998   dF: -2.364e-05   |Residual|: 2.703e-03   |deigs|: 4.541e-03  t[s]:     53.34
	FillingsUpdate:  mu: -0.107289168  nElectrons: 33.000000  magneticMoment: [ Abs: 0.35124  Tot: +0.32000 ]
SCF: Cycle:  9   F: -54.031839294320051   dF: -2.023e-05   |Residual|: 2.056e-03   |deigs|: 3.221e-03  t[s]:     56.94
	FillingsUpdate:  mu: -0.104887882  nElectrons: 33.000000  magneticMoment: [ Abs: 0.35200  Tot: +0.32000 ]
SCF: Cycle: 10   F: -54.031852412887588   dF: -1.312e-05   |Residual|: 1.786e-03   |deigs|: 2.495e-03  t[s]:     60.57
	FillingsUpdate:  mu: -0.101719049  nElectrons: 33.000000  magneticMoment: [ Abs: 0.35236  Tot: +0.32000 ]
SCF: Cycle: 11   F: -54.031862317883920   dF: -9.905e-06   |Residual|: 1.415e-03   |deigs|: 3.010e-03  t[s]:     64.21
	FillingsUpdate:  mu: -0.099173706  nElectrons: 33.000000  magneticMoment: [ Abs: 0.35168  Tot: +0.32000 ]
SCF: Cycle: 12   F: -54.031865836419129   dF: -3.519e-06   |Residual|: 1.296e-03   |deigs|: 2.360e-03  t[s]:     67.85
	FillingsUpdate:  mu: -0.095383341  nElectrons: 33.000000  magneticMoment: [ Abs: 0.35271  Tot: +0.32000 ]
SCF: Cycle: 13   F: -54.031867612947423   dF: -1.777e-06   |Residual|: 1.124e-03   |deigs|: 3.591e-03  t[s]:     71.46
	FillingsUpdate:  mu: -0.092331729  nElectrons: 33.000000  magneticMoment: [ Abs: 0.35164  Tot: +0.32000 ]
SCF: Cycle: 14   F: -54.031867427883370   dF: +1.851e-07   |Residual|: 1.102e-03   |deigs|: 2.726e-03  t[s]:     75.07
	FillingsUpdate:  mu: -0.088152353  nElectrons: 33.000000  magneticMoment: [ Abs: 0.35230  Tot: +0.32000 ]
SCF: Cycle: 15   F: -54.031867325838547   dF: +1.020e-07   |Residual|: 9.596e-04   |deigs|: 3.867e-03  t[s]:     78.66
	FillingsUpdate:  mu: -0.084395326  nElectrons: 33.000000  magneticMoment: [ Abs: 0.35215  Tot: +0.32000 ]
SCF: Cycle: 16   F: -54.031868311192618   dF: -9.854e-07   |Residual|: 7.951e-04   |deigs|: 3.588e-03  t[s]:     82.25
	FillingsUpdate:  mu: -0.081956338  nElectrons: 33.000000  magneticMoment: [ Abs: 0.35144  Tot: +0.32000 ]
SCF: Cycle: 17   F: -54.031871020364733   dF: -2.709e-06   |Residual|: 5.786e-04   |deigs|: 2.148e-03  t[s]:     85.86
	FillingsUpdate:  mu: -0.080560082  nElectrons: 33.000000  magneticMoment: [ Abs: 0.35127  Tot: +0.32000 ]
SCF: Cycle: 18   F: -54.031872752066334   dF: -1.732e-06   |Residual|: 3.465e-04   |deigs|: 1.288e-03  t[s]:     89.46
	FillingsUpdate:  mu: -0.080117934  nElectrons: 33.000000  magneticMoment: [ Abs: 0.35116  Tot: +0.32000 ]
SCF: Cycle: 19   F: -54.031873301624771   dF: -5.496e-07   |Residual|: 1.988e-04   |deigs|: 5.966e-04  t[s]:     93.07
	FillingsUpdate:  mu: -0.079981473  nElectrons: 33.000000  magneticMoment: [ Abs: 0.35094  Tot: +0.32000 ]
SCF: Cycle: 20   F: -54.031873377771866   dF: -7.615e-08   |Residual|: 1.189e-04   |deigs|: 4.256e-04  t[s]:     96.68
	FillingsUpdate:  mu: -0.079909008  nElectrons: 33.000000  magneticMoment: [ Abs: 0.35092  Tot: +0.32000 ]
SCF: Cycle: 21   F: -54.031873387647785   dF: -9.876e-09   |Residual|: 6.731e-05   |deigs|: 2.753e-04  t[s]:    100.28
	FillingsUpdate:  mu: -0.079862297  nElectrons: 33.000000  magneticMoment: [ Abs: 0.35091  Tot: +0.32000 ]
SCF: Cycle: 22   F: -54.031873395954086   dF: -8.306e-09   |Residual|: 3.533e-05   |deigs|: 2.663e-04  t[s]:    103.89
SCF: Converged (|Delta E|<1.000000e-08 for 2 iters).


# Ionic positions in lattice coordinates:
ion C  -0.000000000000000   0.000000000000000   0.000000000000000 1
ion N   0.164313074529992   0.328626149059985   0.000000000000000 1
ion N   0.164313074529992   0.835686925470008   0.000000000000000 1
ion N   0.666666666666667   0.333333333333333   0.000000000000000 1
ion N   0.671373850940015   0.835686925470008   0.000000000000000 1
ion B  -0.001576660817548   0.499211669591226   0.000000000000000 1
ion B   0.500788330408774   0.001576660817548   0.000000000000000 1
ion B   0.500788330408774   0.499211669591226   0.000000000000000 1

# Forces in Lattice coordinates:
force C  -0.000000000000000   0.000000000000000   0.000000000000000 1
force N  -0.000000000000000  -0.037828314406549   0.000000000000000 1
force N  -0.037828314406551   0.037828314406547   0.000000000000000 1
force N  -0.000000000000000   0.000000000000000   0.000000000000000 1
force N   0.037828314406550   0.000000000000000  -0.000000000000000 1
force B   0.007660119650145   0.000000000000000  -0.000000000000000 1
force B  -0.000000000000000  -0.007660119650144   0.000000000000000 1
force B  -0.007660119650145   0.007660119650145  -0.000000000000000 1

# Energy components:
   Eewald =      -85.5148968124686775
       EH =      -43.5305803617203040
     Eloc =       54.1365593251220290
      Enl =       -2.2702412751761605
   Epulay =       -0.0000008322926719
      Exc =      -15.3362356085920020
       KE =       38.4835229670817185
-------------------------------------
     Etot =      -54.0318725980460854
       TS =        0.0000007979080021
-------------------------------------
        F =      -54.0318733959540864

IonicMinimize: Iter:   0  F: -54.031873395954086  |grad|_K:  1.684e-03  t[s]:    104.22
IonicMinimize: None of the convergence criteria satisfied after 0 iterations.

#--- Lowdin population analysis ---
# oxidation-state C +0.257
# magnetic-moments C +0.175
# oxidation-state N -0.255 -0.255 -0.381 -0.255
# magnetic-moments N -0.000 -0.000 +0.008 -0.000
# oxidation-state B +0.403 +0.403 +0.403
# magnetic-moments B +0.044 +0.044 +0.044


Dumping 'BN22BC-0.32.fillings' ... done
Dumping 'BN22BC-0.32.wfns' ... done
Dumping 'BN22BC-0.32.n_up' ... done
Dumping 'BN22BC-0.32.n_dn' ... done
Dumping 'BN22BC-0.32.eigenvals' ... done
End date and time: Sun Jan 30 23:11:04 2022  (Duration: 0-0:01:47.05)
Done!
