magnetization is -0.46
--------------------------------------------------------------------------
The library attempted to open the following supporting CUDA libraries,
but each of them failed.  CUDA-aware support is disabled.
libcuda.so.1: cannot open shared object file: No such file or directory
libcuda.dylib: cannot open shared object file: No such file or directory
/usr/lib64/libcuda.so.1: cannot open shared object file: No such file or directory
/usr/lib64/libcuda.dylib: cannot open shared object file: No such file or directory
If you are not interested in CUDA-aware support, then run with
--mca opal_warn_on_missing_libcuda 0 to suppress this message.  If you are interested
in CUDA-aware support, then try setting LD_LIBRARY_PATH to the location
of libcuda.so.1 to get passed this issue.
--------------------------------------------------------------------------
--------------------------------------------------------------------------
No OpenFabrics connection schemes reported that they were able to be
used on a specific port.  As such, the openib BTL (OpenFabrics
support) will be disabled for this port.

  Local host:           d-4-11-2
  Local device:         mlx5_1
  Local port:           1
  CPCs attempted:       rdmacm, udcm
--------------------------------------------------------------------------

*************** JDFTx 1.6.0 (git hash 42ebbcc2) ***************

Start date and time: Sun Jan 30 23:07:14 2022
Executable jdftx with command-line: -i BN22BC.in
Running on hosts (process indices):  d-4-11-2 (0-37)
Divided in process groups (process indices):  0 (0)  1 (1)  2 (2)  3 (3)  4 (4)  5 (5)  6 (6)  7 (7)  8 (8)  9 (9)  10 (10)  11 (11)  12 (12)  13 (13)  14 (14)  15 (15)  16 (16)  17 (17)  18 (18)  19 (19)  20 (20)  21 (21)  22 (22)  23 (23)  24 (24)  25 (25)  26 (26)  27 (27)  28 (28)  29 (29)  30 (30)  31 (31)  32 (32)  33 (33)  34 (34)  35 (35)  36 (36)  37 (37)
Resource initialization completed at t[s]:      0.00
Run totals: 38 processes, 48 threads, 0 GPUs


Input parsed successfully to the following command list (including defaults):

basis kpoint-dependent
coords-type Lattice
core-overlap-check vector
coulomb-interaction Slab 001
davidson-band-ratio 1.1
dump End State ElecDensity BandEigs
dump-name BN22BC--0.46.$VAR
elec-cutoff 20
elec-eigen-algo Davidson
elec-ex-corr gga-PBE
elec-initial-magnetization -0.460000 yes
elec-smearing Fermi 1e-05
electronic-minimize  \
	dirUpdateScheme      FletcherReeves \
	linminMethod         DirUpdateRecommended \
	nIterations          100 \
	history              15 \
	knormThreshold       0 \
	energyDiffThreshold  1e-08 \
	nEnergyDiff          2 \
	alphaTstart          1 \
	alphaTmin            1e-10 \
	updateTestStepSize   yes \
	alphaTreduceFactor   0.1 \
	alphaTincreaseFactor 3 \
	nAlphaAdjustMax      3 \
	wolfeEnergy          0.0001 \
	wolfeGradient        0.9 \
	fdTest               no
electronic-scf  \
	nIterations	1000 \
	energyDiffThreshold	1e-08 \
	residualThreshold	1e-07 \
	mixFraction	0.5 \
	qMetric	0.8 \
	history	10 \
	nEigSteps	2 \
	eigDiffThreshold	1e-08 \
	mixedVariable	Density \
	qKerker	0.8 \
	qKappa	-1 \
	verbose	no \
	mixFractionMag	1.5
exchange-regularization WignerSeitzTruncated
fluid None
fluid-ex-corr (null) lda-PZ
fluid-gummel-loop 10 1.000000e-05
fluid-minimize  \
	dirUpdateScheme      PolakRibiere \
	linminMethod         DirUpdateRecommended \
	nIterations          100 \
	history              15 \
	knormThreshold       0 \
	energyDiffThreshold  0 \
	nEnergyDiff          2 \
	alphaTstart          1 \
	alphaTmin            1e-10 \
	updateTestStepSize   yes \
	alphaTreduceFactor   0.1 \
	alphaTincreaseFactor 3 \
	nAlphaAdjustMax      3 \
	wolfeEnergy          0.0001 \
	wolfeGradient        0.9 \
	fdTest               no
fluid-solvent H2O 55.338 ScalarEOS \
	epsBulk 78.4 \
	pMol 0.92466 \
	epsInf 1.77 \
	Pvap 1.06736e-10 \
	sigmaBulk 4.62e-05 \
	Rvdw 2.61727 \
	Res 1.42 \
	tauNuc 343133 \
	poleEl 15 7 1
forces-output-coords Positions
ion C   0.000000000000000  -0.000000000000000   0.000000000000000 1
ion N   0.164313074529992   0.328626149059985   0.000000000000000 1
ion N   0.164313074529992   0.835686925470008   0.000000000000000 1
ion N   0.666666666666667   0.333333333333333   0.000000000000000 1
ion N   0.671373850940015   0.835686925470008   0.000000000000000 1
ion B  -0.001576660817548   0.499211669591226   0.000000000000000 1
ion B   0.500788330408774   0.001576660817548   0.000000000000000 1
ion B   0.500788330408774   0.499211669591226   0.000000000000000 1
ion-species SG15/$ID_ONCV_PBE.upf
ion-width 0
ionic-minimize  \
	dirUpdateScheme      L-BFGS \
	linminMethod         DirUpdateRecommended \
	nIterations          0 \
	history              15 \
	knormThreshold       0.0001 \
	energyDiffThreshold  1e-06 \
	nEnergyDiff          2 \
	alphaTstart          1 \
	alphaTmin            1e-10 \
	updateTestStepSize   yes \
	alphaTreduceFactor   0.1 \
	alphaTincreaseFactor 3 \
	nAlphaAdjustMax      3 \
	wolfeEnergy          0.0001 \
	wolfeGradient        0.9 \
	fdTest               no
kpoint   0.000000000000   0.000000000000   0.000000000000  1.00000000000000
kpoint-folding 12 12 1 
latt-move-scale 1 1 1
latt-scale 1 1 1 
lattice  \
	   9.356640512437433   -4.678320256218713    0.000000000000000  \
	  -0.000000000000000    8.103088377849462    0.000000000000000  \
	   0.000000000000000    0.000000000000000   40.000000000000000 
lattice-minimize  \
	dirUpdateScheme      L-BFGS \
	linminMethod         DirUpdateRecommended \
	nIterations          0 \
	history              15 \
	knormThreshold       0 \
	energyDiffThreshold  1e-06 \
	nEnergyDiff          2 \
	alphaTstart          1 \
	alphaTmin            1e-10 \
	updateTestStepSize   yes \
	alphaTreduceFactor   0.1 \
	alphaTincreaseFactor 3 \
	nAlphaAdjustMax      3 \
	wolfeEnergy          0.0001 \
	wolfeGradient        0.9 \
	fdTest               no
lcao-params -1 1e-06 1e-05
pcm-variant GLSSA13
spintype z-spin
subspace-rotation-factor 1 yes
symmetries automatic
symmetry-threshold 0.0001



---------- Setting up symmetries ----------

Found 24 point-group symmetries of the bravais lattice
Found 12 space-group symmetries with basis
Applied RMS atom displacement 3.80214e-15 bohrs to make symmetries exact.

---------- Initializing the Grid ----------
R = 
[      9.35664     -4.67832            0  ]
[            0      8.10309            0  ]
[            0            0           40  ]
unit cell volume = 3032.71
G =
[   0.671522   0.387703         -0  ]
[          0   0.775406         -0  ]
[         -0         -0    0.15708  ]
Minimum fftbox size, Smin = [  40  40  164  ]
Chosen fftbox size, S = [  40  40  168  ]

---------- Exchange Correlation functional ----------
Initalized PBE GGA exchange.
Initalized PBE GGA correlation.

---------- Setting up pseudopotentials ----------
Width of ionic core gaussian charges (only for fluid interactions / plotting) set to 0

Reading pseudopotential file '/home/gridsan/aligho/DFT/build-Nov24/pseudopotentials/SG15/C_ONCV_PBE.upf':
  'C' pseudopotential, 'PBE' functional
  Generated using ONCVPSP code by D. R. Hamann
  Author: Martin Schlipf and Francois Gygi  Date: 150915.
  4 valence electrons, 2 orbitals, 4 projectors, 1248 radial grid points, with lMax = 1
  Transforming local potential to a uniform radial grid of dG=0.02 with 1502 points.
  Transforming nonlocal projectors to a uniform radial grid of dG=0.02 with 432 points.
    2S    l: 0   occupation:  2.0   eigenvalue: -0.505335
    2P    l: 1   occupation:  2.0   eigenvalue: -0.194238
  Transforming atomic orbitals to a uniform radial grid of dG=0.02 with 432 points.
  Core radius for overlap checks: 1.23 bohrs.
  Reading pulay file /home/gridsan/aligho/DFT/build-Nov24/pseudopotentials/SG15/C_ONCV_PBE.pulay ... using dE_dnG = -9.239532e-03 computed for Ecut = 20.

Reading pseudopotential file '/home/gridsan/aligho/DFT/build-Nov24/pseudopotentials/SG15/N_ONCV_PBE.upf':
  'N' pseudopotential, 'PBE' functional
  Generated using ONCVPSP code by D. R. Hamann
  Author: Martin Schlipf and Francois Gygi  Date: 150915.
  5 valence electrons, 2 orbitals, 4 projectors, 1058 radial grid points, with lMax = 1
  Transforming local potential to a uniform radial grid of dG=0.02 with 1502 points.
  Transforming nonlocal projectors to a uniform radial grid of dG=0.02 with 432 points.
    2S    l: 0   occupation:  2.0   eigenvalue: -0.682907
    2P    l: 1   occupation:  3.0   eigenvalue: -0.260548
  Transforming atomic orbitals to a uniform radial grid of dG=0.02 with 432 points.
  Core radius for overlap checks: 1.35 bohrs.
  Reading pulay file /home/gridsan/aligho/DFT/build-Nov24/pseudopotentials/SG15/N_ONCV_PBE.pulay ... using dE_dnG = -2.956256e-02 computed for Ecut = 20.

Reading pseudopotential file '/home/gridsan/aligho/DFT/build-Nov24/pseudopotentials/SG15/B_ONCV_PBE.upf':
  'B' pseudopotential, 'PBE' functional
  Generated using ONCVPSP code by D. R. Hamann
  Author: Martin Schlipf and Francois Gygi  Date: 150915.
  3 valence electrons, 2 orbitals, 4 projectors, 1534 radial grid points, with lMax = 1
  Transforming local potential to a uniform radial grid of dG=0.02 with 1502 points.
  Transforming nonlocal projectors to a uniform radial grid of dG=0.02 with 432 points.
    2S    l: 0   occupation:  2.0   eigenvalue: -0.347027
    2P    l: 1   occupation:  1.0   eigenvalue: -0.132548
  Transforming atomic orbitals to a uniform radial grid of dG=0.02 with 432 points.
  Core radius for overlap checks: 1.60 bohrs.
  Reading pulay file /home/gridsan/aligho/DFT/build-Nov24/pseudopotentials/SG15/B_ONCV_PBE.pulay ... using dE_dnG = -3.748568e-04 computed for Ecut = 20.

Initialized 3 species with 8 total atoms.

Folded 1 k-points by 12x12x1 to 144 k-points.

---------- Setting up k-points, bands, fillings ----------
Adding inversion symmetry to k-mesh for non-inversion-symmetric unit cell.
Reduced to 19 k-points under symmetry. 
Computing the number of bands and number of electrons
Calculating initial fillings.
nElectrons:  33.000000   nBands: 32   nStates: 38

----- Setting up reduced wavefunction bases (one per k-point) -----
average nbasis = 12955.938 , ideal nbasis = 12955.957

---------- Setting up coulomb interaction ----------
Initialized slab truncation along lattice direction 001

---------- Setting up 2D ewald sum ----------
Optimum gaussian width for ewald sums = 5.194429 bohr.
Real space sums over 289 unit cells with max indices [  8  8  0  ]
Reciprocal space sums over 81 terms with max indices [  4  4  0  ]

---------- Allocating electronic variables ----------
Initializing wave functions:  linear combination of atomic orbitals
C pseudo-atom occupations:   s ( 2 )  p ( 2 )
N pseudo-atom occupations:   s ( 2 )  p ( 3 )
B pseudo-atom occupations:   s ( 2 )  p ( 1 )
[d-4-11-2:54865] 37 more processes have sent help message help-mpi-common-cuda.txt / dlopen failed
[d-4-11-2:54865] Set MCA parameter "orte_base_help_aggregate" to 0 to see all help / error messages
[d-4-11-2:54865] 37 more processes have sent help message help-mpi-btl-openib-cpc-base.txt / no cpcs for port
	FillingsUpdate:  mu: -0.181513954  nElectrons: 33.000000  magneticMoment: [ Abs: 0.47204  Tot: -0.46000 ]
LCAOMinimize: Iter:   0  F: -53.3422031924195963  |grad|_K:  5.458e-03  alpha:  1.000e+00
	FillingsUpdate:  mu: -0.183684647  nElectrons: 33.000000  magneticMoment: [ Abs: 0.47370  Tot: -0.46000 ]
LCAOMinimize: Iter:   1  F: -53.5611922386111345  |grad|_K:  9.628e-04  alpha:  4.245e-01  linmin:  3.496e-01  cgtest: -8.211e-01  t[s]:      7.00
	FillingsUpdate:  mu: -0.179076831  nElectrons: 33.000000  magneticMoment: [ Abs: 0.47471  Tot: -0.46000 ]
LCAOMinimize: Iter:   2  F: -53.5626345363202745  |grad|_K:  8.156e-04  alpha:  2.341e-01  linmin:  9.046e-04  cgtest:  8.887e-01  t[s]:      9.04
LCAOMinimize: Encountered beta<0, resetting CG.
	FillingsUpdate:  mu: -0.178083114  nElectrons: 33.000000  magneticMoment: [ Abs: 0.47605  Tot: -0.46000 ]
LCAOMinimize: Iter:   3  F: -53.5678023767317413  |grad|_K:  9.644e-05  alpha:  3.802e-01  linmin:  9.541e-02  cgtest: -2.390e-01  t[s]:     11.05
	FillingsUpdate:  mu: -0.179910004  nElectrons: 33.000000  magneticMoment: [ Abs: 0.47736  Tot: -0.46000 ]
LCAOMinimize: Iter:   4  F: -53.5678723520089761  |grad|_K:  4.530e-05  alpha:  4.119e-01  linmin:  1.678e-01  cgtest: -1.691e-01  t[s]:     13.06
	FillingsUpdate:  mu: -0.179644720  nElectrons: 33.000000  magneticMoment: [ Abs: 0.47840  Tot: -0.46000 ]
LCAOMinimize: Iter:   5  F: -53.5678845173244156  |grad|_K:  3.369e-05  alpha:  3.823e-01  linmin: -3.033e-04  cgtest:  5.408e-01  t[s]:     15.07
	FillingsUpdate:  mu: -0.179201678  nElectrons: 33.000000  magneticMoment: [ Abs: 0.47897  Tot: -0.46000 ]
LCAOMinimize: Iter:   6  F: -53.5678947606742284  |grad|_K:  8.792e-06  alpha:  4.359e-01  linmin: -1.187e-03  cgtest: -4.382e-02  t[s]:     17.12
	FillingsUpdate:  mu: -0.179353710  nElectrons: 33.000000  magneticMoment: [ Abs: 0.47961  Tot: -0.46000 ]
LCAOMinimize: Iter:   7  F: -53.5678964431375064  |grad|_K:  4.995e-06  alpha:  1.051e+00  linmin:  7.717e-04  cgtest: -3.123e-03  t[s]:     19.14
	FillingsUpdate:  mu: -0.179304462  nElectrons: 33.000000  magneticMoment: [ Abs: 0.47969  Tot: -0.46000 ]
LCAOMinimize: Iter:   8  F: -53.5678966873800775  |grad|_K:  9.836e-07  alpha:  4.740e-01  linmin:  9.563e-04  cgtest:  2.302e-03  t[s]:     21.15
	FillingsUpdate:  mu: -0.179290099  nElectrons: 33.000000  magneticMoment: [ Abs: 0.47963  Tot: -0.46000 ]
LCAOMinimize: Iter:   9  F: -53.5678966975142785  |grad|_K:  4.734e-07  alpha:  5.078e-01  linmin:  6.983e-03  cgtest: -1.381e-02  t[s]:     23.17
LCAOMinimize: Converged (|Delta F|<1.000000e-06 for 2 iters).


---- Citations for features of the code used in this run ----

   Software package:
      R. Sundararaman, K. Letchworth-Weaver, K.A. Schwarz, D. Gunceler, Y. Ozhabes and T.A. Arias, 'JDFTx: software for joint density-functional theory', SoftwareX 6, 278 (2017)

   gga-PBE exchange-correlation functional:
      J.P. Perdew, K. Burke and M. Ernzerhof, Phys. Rev. Lett. 77, 3865 (1996)

   Pseudopotentials:
      M Schlipf and F Gygi, Comput. Phys. Commun. 196, 36 (2015)

   Truncated Coulomb potentials:
      R. Sundararaman and T.A. Arias, Phys. Rev. B 87, 165122 (2013)

This list may not be complete. Please suggest additional citations or
report any other bugs at https://github.com/shankar1729/jdftx/issues

Initialization completed successfully at t[s]:     23.37


-------- Electronic minimization -----------
Will mix electronic density at each iteration.
	FillingsUpdate:  mu: -0.179290099  nElectrons: 33.000000  magneticMoment: [ Abs: 0.47963  Tot: -0.46000 ]
	FillingsUpdate:  mu: -0.195350186  nElectrons: 33.000000  magneticMoment: [ Abs: 0.47963  Tot: -0.46000 ]
SCF: Cycle:  0   F: -53.998360726070480   dF: -4.305e-01   |Residual|: 2.315e-01   |deigs|: 1.091e-01  t[s]:     28.05
	FillingsUpdate:  mu: -0.173268046  nElectrons: 33.000000  magneticMoment: [ Abs: 0.49617  Tot: -0.46000 ]
SCF: Cycle:  1   F: -54.018507587831543   dF: -2.015e-02   |Residual|: 1.289e-01   |deigs|: 2.695e-02  t[s]:     31.49
	FillingsUpdate:  mu: -0.142148146  nElectrons: 33.000000  magneticMoment: [ Abs: 0.51113  Tot: -0.46000 ]
SCF: Cycle:  2   F: -54.031302892116571   dF: -1.280e-02   |Residual|: 2.861e-02   |deigs|: 3.131e-02  t[s]:     34.96
	FillingsUpdate:  mu: -0.138844973  nElectrons: 33.000000  magneticMoment: [ Abs: 0.51804  Tot: -0.46000 ]
SCF: Cycle:  3   F: -54.031628700780352   dF: -3.258e-04   |Residual|: 1.562e-02   |deigs|: 8.622e-03  t[s]:     38.46
	FillingsUpdate:  mu: -0.127438710  nElectrons: 33.000000  magneticMoment: [ Abs: 0.51069  Tot: -0.46000 ]
SCF: Cycle:  4   F: -54.032286698521268   dF: -6.580e-04   |Residual|: 8.212e-03   |deigs|: 1.062e-02  t[s]:     42.00
	FillingsUpdate:  mu: -0.122587415  nElectrons: 33.000000  magneticMoment: [ Abs: 0.51469  Tot: -0.46000 ]
SCF: Cycle:  5   F: -54.032451303352595   dF: -1.646e-04   |Residual|: 6.356e-03   |deigs|: 4.716e-03  t[s]:     45.55
	FillingsUpdate:  mu: -0.116013531  nElectrons: 33.000000  magneticMoment: [ Abs: 0.51114  Tot: -0.46000 ]
SCF: Cycle:  6   F: -54.032511203007040   dF: -5.990e-05   |Residual|: 4.134e-03   |deigs|: 6.114e-03  t[s]:     49.11
	FillingsUpdate:  mu: -0.111407537  nElectrons: 33.000000  magneticMoment: [ Abs: 0.50978  Tot: -0.46000 ]
SCF: Cycle:  7   F: -54.032505721627281   dF: +5.481e-06   |Residual|: 3.259e-03   |deigs|: 5.625e-03  t[s]:     52.70
	FillingsUpdate:  mu: -0.106890539  nElectrons: 33.000000  magneticMoment: [ Abs: 0.51171  Tot: -0.46000 ]
SCF: Cycle:  8   F: -54.032531354970878   dF: -2.563e-05   |Residual|: 2.788e-03   |deigs|: 4.665e-03  t[s]:     56.32
	FillingsUpdate:  mu: -0.104057700  nElectrons: 33.000000  magneticMoment: [ Abs: 0.51005  Tot: -0.46000 ]
SCF: Cycle:  9   F: -54.032551233271924   dF: -1.988e-05   |Residual|: 2.031e-03   |deigs|: 3.131e-03  t[s]:     59.95
	FillingsUpdate:  mu: -0.101777965  nElectrons: 33.000000  magneticMoment: [ Abs: 0.50977  Tot: -0.46000 ]
SCF: Cycle: 10   F: -54.032563470892931   dF: -1.224e-05   |Residual|: 1.895e-03   |deigs|: 2.352e-03  t[s]:     63.63
	FillingsUpdate:  mu: -0.098327750  nElectrons: 33.000000  magneticMoment: [ Abs: 0.51038  Tot: -0.46000 ]
SCF: Cycle: 11   F: -54.032573524316810   dF: -1.005e-05   |Residual|: 1.438e-03   |deigs|: 3.256e-03  t[s]:     67.30
	FillingsUpdate:  mu: -0.096205030  nElectrons: 33.000000  magneticMoment: [ Abs: 0.50953  Tot: -0.46000 ]
SCF: Cycle: 12   F: -54.032576282466572   dF: -2.758e-06   |Residual|: 1.313e-03   |deigs|: 1.954e-03  t[s]:     70.97
	FillingsUpdate:  mu: -0.092509811  nElectrons: 33.000000  magneticMoment: [ Abs: 0.51066  Tot: -0.46000 ]
SCF: Cycle: 13   F: -54.032577716333698   dF: -1.434e-06   |Residual|: 1.122e-03   |deigs|: 3.558e-03  t[s]:     74.65
	FillingsUpdate:  mu: -0.089138340  nElectrons: 33.000000  magneticMoment: [ Abs: 0.50961  Tot: -0.46000 ]
SCF: Cycle: 14   F: -54.032577672750463   dF: +4.358e-08   |Residual|: 1.113e-03   |deigs|: 2.980e-03  t[s]:     78.32
	FillingsUpdate:  mu: -0.084765017  nElectrons: 33.000000  magneticMoment: [ Abs: 0.51011  Tot: -0.46000 ]
SCF: Cycle: 15   F: -54.032578356966546   dF: -6.842e-07   |Residual|: 9.708e-04   |deigs|: 4.051e-03  t[s]:     81.98
	FillingsUpdate:  mu: -0.081244874  nElectrons: 33.000000  magneticMoment: [ Abs: 0.50978  Tot: -0.46000 ]
SCF: Cycle: 16   F: -54.032579714295331   dF: -1.357e-06   |Residual|: 8.126e-04   |deigs|: 3.267e-03  t[s]:     85.65
	FillingsUpdate:  mu: -0.078841305  nElectrons: 33.000000  magneticMoment: [ Abs: 0.50932  Tot: -0.46000 ]
SCF: Cycle: 17   F: -54.032582014422069   dF: -2.300e-06   |Residual|: 5.575e-04   |deigs|: 2.168e-03  t[s]:     89.32
	FillingsUpdate:  mu: -0.077729577  nElectrons: 33.000000  magneticMoment: [ Abs: 0.50930  Tot: -0.46000 ]
SCF: Cycle: 18   F: -54.032583361512529   dF: -1.347e-06   |Residual|: 3.639e-04   |deigs|: 1.030e-03  t[s]:     92.97
	FillingsUpdate:  mu: -0.077172879  nElectrons: 33.000000  magneticMoment: [ Abs: 0.50926  Tot: -0.46000 ]
SCF: Cycle: 19   F: -54.032583828874053   dF: -4.674e-07   |Residual|: 1.950e-04   |deigs|: 5.844e-04  t[s]:     96.64
	FillingsUpdate:  mu: -0.076916805  nElectrons: 33.000000  magneticMoment: [ Abs: 0.50916  Tot: -0.46000 ]
SCF: Cycle: 20   F: -54.032583937835142   dF: -1.090e-07   |Residual|: 1.068e-04   |deigs|: 2.949e-04  t[s]:    100.29
	FillingsUpdate:  mu: -0.076771784  nElectrons: 33.000000  magneticMoment: [ Abs: 0.50910  Tot: -0.46000 ]
SCF: Cycle: 21   F: -54.032583975392576   dF: -3.756e-08   |Residual|: 5.886e-05   |deigs|: 3.438e-04  t[s]:    103.93
	FillingsUpdate:  mu: -0.076693923  nElectrons: 33.000000  magneticMoment: [ Abs: 0.50907  Tot: -0.46000 ]
SCF: Cycle: 22   F: -54.032583991292611   dF: -1.590e-08   |Residual|: 2.629e-05   |deigs|: 2.591e-04  t[s]:    107.59
	FillingsUpdate:  mu: -0.076652504  nElectrons: 33.000000  magneticMoment: [ Abs: 0.50905  Tot: -0.46000 ]
SCF: Cycle: 23   F: -54.032583996310798   dF: -5.018e-09   |Residual|: 1.468e-05   |deigs|: 4.264e-04  t[s]:    111.25
	FillingsUpdate:  mu: -0.076641450  nElectrons: 33.000000  magneticMoment: [ Abs: 0.50905  Tot: -0.46000 ]
SCF: Cycle: 24   F: -54.032583998399865   dF: -2.089e-09   |Residual|: 9.731e-06   |deigs|: 2.177e-04  t[s]:    114.92
SCF: Converged (|Delta E|<1.000000e-08 for 2 iters).


# Ionic positions in lattice coordinates:
ion C  -0.000000000000000   0.000000000000000   0.000000000000000 1
ion N   0.164313074529992   0.328626149059985   0.000000000000000 1
ion N   0.164313074529992   0.835686925470008   0.000000000000000 1
ion N   0.666666666666667   0.333333333333333   0.000000000000000 1
ion N   0.671373850940015   0.835686925470008   0.000000000000000 1
ion B  -0.001576660817548   0.499211669591226   0.000000000000000 1
ion B   0.500788330408774   0.001576660817548   0.000000000000000 1
ion B   0.500788330408774   0.499211669591226   0.000000000000000 1

# Forces in Lattice coordinates:
force C   0.000000000000000  -0.000000000000000   0.000000000000000 1
force N   0.000000000000000  -0.034443211814623   0.000000000000000 1
force N  -0.034443211814625   0.034443211814622   0.000000000000000 1
force N   0.000000000000000  -0.000000000000000   0.000000000000000 1
force N   0.034443211814625  -0.000000000000000   0.000000000000000 1
force B   0.007613410360600   0.000000000000000   0.000000000000000 1
force B  -0.000000000000000  -0.007613410360600   0.000000000000000 1
force B  -0.007613410360600   0.007613410360600   0.000000000000000 1

# Energy components:
   Eewald =      -85.5148968124686775
       EH =      -43.5241653254810927
     Eloc =       54.1278799724013027
      Enl =       -2.2717039127090048
   Epulay =       -0.0000008322926719
      Exc =      -15.3385267798770641
       KE =       38.4888303161512653
-------------------------------------
     Etot =      -54.0325833742759443
       TS =        0.0000006241239180
-------------------------------------
        F =      -54.0325839983998648

IonicMinimize: Iter:   0  F: -54.032583998399865  |grad|_K:  1.539e-03  t[s]:    115.26
IonicMinimize: None of the convergence criteria satisfied after 0 iterations.

#--- Lowdin population analysis ---
# oxidation-state C +0.259
# magnetic-moments C -0.245
# oxidation-state N -0.256 -0.256 -0.382 -0.256
# magnetic-moments N +0.003 +0.003 -0.006 +0.003
# oxidation-state B +0.404 +0.404 +0.404
# magnetic-moments B -0.070 -0.070 -0.070


Dumping 'BN22BC--0.46.fillings' ... done
Dumping 'BN22BC--0.46.wfns' ... done
Dumping 'BN22BC--0.46.n_up' ... done
Dumping 'BN22BC--0.46.n_dn' ... done
Dumping 'BN22BC--0.46.eigenvals' ... done
End date and time: Sun Jan 30 23:09:12 2022  (Duration: 0-0:01:57.97)
Done!
