magnetization is -0.02
--------------------------------------------------------------------------
The library attempted to open the following supporting CUDA libraries,
but each of them failed.  CUDA-aware support is disabled.
libcuda.so.1: cannot open shared object file: No such file or directory
libcuda.dylib: cannot open shared object file: No such file or directory
/usr/lib64/libcuda.so.1: cannot open shared object file: No such file or directory
/usr/lib64/libcuda.dylib: cannot open shared object file: No such file or directory
If you are not interested in CUDA-aware support, then run with
--mca opal_warn_on_missing_libcuda 0 to suppress this message.  If you are interested
in CUDA-aware support, then try setting LD_LIBRARY_PATH to the location
of libcuda.so.1 to get passed this issue.
--------------------------------------------------------------------------
--------------------------------------------------------------------------
No OpenFabrics connection schemes reported that they were able to be
used on a specific port.  As such, the openib BTL (OpenFabrics
support) will be disabled for this port.

  Local host:           d-4-15-4
  Local device:         mlx5_1
  Local port:           1
  CPCs attempted:       rdmacm, udcm
--------------------------------------------------------------------------

*************** JDFTx 1.6.0 (git hash 42ebbcc2) ***************

Start date and time: Sun Jan 30 23:09:17 2022
Executable jdftx with command-line: -i BN22BC.in
Running on hosts (process indices):  d-4-15-4 (0-37)
Divided in process groups (process indices):  0 (0)  1 (1)  2 (2)  3 (3)  4 (4)  5 (5)  6 (6)  7 (7)  8 (8)  9 (9)  10 (10)  11 (11)  12 (12)  13 (13)  14 (14)  15 (15)  16 (16)  17 (17)  18 (18)  19 (19)  20 (20)  21 (21)  22 (22)  23 (23)  24 (24)  25 (25)  26 (26)  27 (27)  28 (28)  29 (29)  30 (30)  31 (31)  32 (32)  33 (33)  34 (34)  35 (35)  36 (36)  37 (37)
Resource initialization completed at t[s]:      0.00
Run totals: 38 processes, 48 threads, 0 GPUs


Input parsed successfully to the following command list (including defaults):

basis kpoint-dependent
coords-type Lattice
core-overlap-check vector
coulomb-interaction Slab 001
davidson-band-ratio 1.1
dump End State ElecDensity BandEigs
dump-name BN22BC--0.02.$VAR
elec-cutoff 20
elec-eigen-algo Davidson
elec-ex-corr gga-PBE
elec-initial-magnetization -0.020000 yes
elec-smearing Fermi 1e-05
electronic-minimize  \
	dirUpdateScheme      FletcherReeves \
	linminMethod         DirUpdateRecommended \
	nIterations          100 \
	history              15 \
	knormThreshold       0 \
	energyDiffThreshold  1e-08 \
	nEnergyDiff          2 \
	alphaTstart          1 \
	alphaTmin            1e-10 \
	updateTestStepSize   yes \
	alphaTreduceFactor   0.1 \
	alphaTincreaseFactor 3 \
	nAlphaAdjustMax      3 \
	wolfeEnergy          0.0001 \
	wolfeGradient        0.9 \
	fdTest               no
electronic-scf  \
	nIterations	1000 \
	energyDiffThreshold	1e-08 \
	residualThreshold	1e-07 \
	mixFraction	0.5 \
	qMetric	0.8 \
	history	10 \
	nEigSteps	2 \
	eigDiffThreshold	1e-08 \
	mixedVariable	Density \
	qKerker	0.8 \
	qKappa	-1 \
	verbose	no \
	mixFractionMag	1.5
exchange-regularization WignerSeitzTruncated
fluid None
fluid-ex-corr (null) lda-PZ
fluid-gummel-loop 10 1.000000e-05
fluid-minimize  \
	dirUpdateScheme      PolakRibiere \
	linminMethod         DirUpdateRecommended \
	nIterations          100 \
	history              15 \
	knormThreshold       0 \
	energyDiffThreshold  0 \
	nEnergyDiff          2 \
	alphaTstart          1 \
	alphaTmin            1e-10 \
	updateTestStepSize   yes \
	alphaTreduceFactor   0.1 \
	alphaTincreaseFactor 3 \
	nAlphaAdjustMax      3 \
	wolfeEnergy          0.0001 \
	wolfeGradient        0.9 \
	fdTest               no
fluid-solvent H2O 55.338 ScalarEOS \
	epsBulk 78.4 \
	pMol 0.92466 \
	epsInf 1.77 \
	Pvap 1.06736e-10 \
	sigmaBulk 4.62e-05 \
	Rvdw 2.61727 \
	Res 1.42 \
	tauNuc 343133 \
	poleEl 15 7 1
forces-output-coords Positions
ion C   0.000000000000000  -0.000000000000000   0.000000000000000 1
ion N   0.164313074529992   0.328626149059985   0.000000000000000 1
ion N   0.164313074529992   0.835686925470008   0.000000000000000 1
ion N   0.666666666666667   0.333333333333333   0.000000000000000 1
ion N   0.671373850940015   0.835686925470008   0.000000000000000 1
ion B  -0.001576660817548   0.499211669591226   0.000000000000000 1
ion B   0.500788330408774   0.001576660817548   0.000000000000000 1
ion B   0.500788330408774   0.499211669591226   0.000000000000000 1
ion-species SG15/$ID_ONCV_PBE.upf
ion-width 0
ionic-minimize  \
	dirUpdateScheme      L-BFGS \
	linminMethod         DirUpdateRecommended \
	nIterations          0 \
	history              15 \
	knormThreshold       0.0001 \
	energyDiffThreshold  1e-06 \
	nEnergyDiff          2 \
	alphaTstart          1 \
	alphaTmin            1e-10 \
	updateTestStepSize   yes \
	alphaTreduceFactor   0.1 \
	alphaTincreaseFactor 3 \
	nAlphaAdjustMax      3 \
	wolfeEnergy          0.0001 \
	wolfeGradient        0.9 \
	fdTest               no
kpoint   0.000000000000   0.000000000000   0.000000000000  1.00000000000000
kpoint-folding 12 12 1 
latt-move-scale 1 1 1
latt-scale 1 1 1 
lattice  \
	   9.356640512437433   -4.678320256218713    0.000000000000000  \
	  -0.000000000000000    8.103088377849462    0.000000000000000  \
	   0.000000000000000    0.000000000000000   40.000000000000000 
lattice-minimize  \
	dirUpdateScheme      L-BFGS \
	linminMethod         DirUpdateRecommended \
	nIterations          0 \
	history              15 \
	knormThreshold       0 \
	energyDiffThreshold  1e-06 \
	nEnergyDiff          2 \
	alphaTstart          1 \
	alphaTmin            1e-10 \
	updateTestStepSize   yes \
	alphaTreduceFactor   0.1 \
	alphaTincreaseFactor 3 \
	nAlphaAdjustMax      3 \
	wolfeEnergy          0.0001 \
	wolfeGradient        0.9 \
	fdTest               no
lcao-params -1 1e-06 1e-05
pcm-variant GLSSA13
spintype z-spin
subspace-rotation-factor 1 yes
symmetries automatic
symmetry-threshold 0.0001



---------- Setting up symmetries ----------

Found 24 point-group symmetries of the bravais lattice
Found 12 space-group symmetries with basis
Applied RMS atom displacement 3.80214e-15 bohrs to make symmetries exact.

---------- Initializing the Grid ----------
R = 
[      9.35664     -4.67832            0  ]
[            0      8.10309            0  ]
[            0            0           40  ]
unit cell volume = 3032.71
G =
[   0.671522   0.387703         -0  ]
[          0   0.775406         -0  ]
[         -0         -0    0.15708  ]
Minimum fftbox size, Smin = [  40  40  164  ]
Chosen fftbox size, S = [  40  40  168  ]

---------- Exchange Correlation functional ----------
Initalized PBE GGA exchange.
Initalized PBE GGA correlation.

---------- Setting up pseudopotentials ----------
Width of ionic core gaussian charges (only for fluid interactions / plotting) set to 0

Reading pseudopotential file '/home/gridsan/aligho/DFT/build-Nov24/pseudopotentials/SG15/C_ONCV_PBE.upf':
  'C' pseudopotential, 'PBE' functional
  Generated using ONCVPSP code by D. R. Hamann
  Author: Martin Schlipf and Francois Gygi  Date: 150915.
  4 valence electrons, 2 orbitals, 4 projectors, 1248 radial grid points, with lMax = 1
  Transforming local potential to a uniform radial grid of dG=0.02 with 1502 points.
  Transforming nonlocal projectors to a uniform radial grid of dG=0.02 with 432 points.
    2S    l: 0   occupation:  2.0   eigenvalue: -0.505335
    2P    l: 1   occupation:  2.0   eigenvalue: -0.194238
  Transforming atomic orbitals to a uniform radial grid of dG=0.02 with 432 points.
  Core radius for overlap checks: 1.23 bohrs.
  Reading pulay file /home/gridsan/aligho/DFT/build-Nov24/pseudopotentials/SG15/C_ONCV_PBE.pulay ... using dE_dnG = -9.239532e-03 computed for Ecut = 20.

Reading pseudopotential file '/home/gridsan/aligho/DFT/build-Nov24/pseudopotentials/SG15/N_ONCV_PBE.upf':
  'N' pseudopotential, 'PBE' functional
  Generated using ONCVPSP code by D. R. Hamann
  Author: Martin Schlipf and Francois Gygi  Date: 150915.
  5 valence electrons, 2 orbitals, 4 projectors, 1058 radial grid points, with lMax = 1
  Transforming local potential to a uniform radial grid of dG=0.02 with 1502 points.
  Transforming nonlocal projectors to a uniform radial grid of dG=0.02 with 432 points.
    2S    l: 0   occupation:  2.0   eigenvalue: -0.682907
    2P    l: 1   occupation:  3.0   eigenvalue: -0.260548
  Transforming atomic orbitals to a uniform radial grid of dG=0.02 with 432 points.
  Core radius for overlap checks: 1.35 bohrs.
  Reading pulay file /home/gridsan/aligho/DFT/build-Nov24/pseudopotentials/SG15/N_ONCV_PBE.pulay ... using dE_dnG = -2.956256e-02 computed for Ecut = 20.

Reading pseudopotential file '/home/gridsan/aligho/DFT/build-Nov24/pseudopotentials/SG15/B_ONCV_PBE.upf':
  'B' pseudopotential, 'PBE' functional
  Generated using ONCVPSP code by D. R. Hamann
  Author: Martin Schlipf and Francois Gygi  Date: 150915.
  3 valence electrons, 2 orbitals, 4 projectors, 1534 radial grid points, with lMax = 1
  Transforming local potential to a uniform radial grid of dG=0.02 with 1502 points.
  Transforming nonlocal projectors to a uniform radial grid of dG=0.02 with 432 points.
    2S    l: 0   occupation:  2.0   eigenvalue: -0.347027
    2P    l: 1   occupation:  1.0   eigenvalue: -0.132548
  Transforming atomic orbitals to a uniform radial grid of dG=0.02 with 432 points.
  Core radius for overlap checks: 1.60 bohrs.
  Reading pulay file /home/gridsan/aligho/DFT/build-Nov24/pseudopotentials/SG15/B_ONCV_PBE.pulay ... using dE_dnG = -3.748568e-04 computed for Ecut = 20.

Initialized 3 species with 8 total atoms.

Folded 1 k-points by 12x12x1 to 144 k-points.

---------- Setting up k-points, bands, fillings ----------
Adding inversion symmetry to k-mesh for non-inversion-symmetric unit cell.
Reduced to 19 k-points under symmetry. 
Computing the number of bands and number of electrons
Calculating initial fillings.
nElectrons:  33.000000   nBands: 32   nStates: 38

----- Setting up reduced wavefunction bases (one per k-point) -----
average nbasis = 12955.938 , ideal nbasis = 12955.957

---------- Setting up coulomb interaction ----------
Initialized slab truncation along lattice direction 001

---------- Setting up 2D ewald sum ----------
Optimum gaussian width for ewald sums = 5.194429 bohr.
Real space sums over 289 unit cells with max indices [  8  8  0  ]
Reciprocal space sums over 81 terms with max indices [  4  4  0  ]

---------- Allocating electronic variables ----------
Initializing wave functions:  linear combination of atomic orbitals
C pseudo-atom occupations:   s ( 2 )  p ( 2 )
N pseudo-atom occupations:   s ( 2 )  p ( 3 )
B pseudo-atom occupations:   s ( 2 )  p ( 1 )
[d-4-15-4:97746] 37 more processes have sent help message help-mpi-common-cuda.txt / dlopen failed
[d-4-15-4:97746] Set MCA parameter "orte_base_help_aggregate" to 0 to see all help / error messages
[d-4-15-4:97746] 37 more processes have sent help message help-mpi-btl-openib-cpc-base.txt / no cpcs for port
	FillingsUpdate:  mu: -0.181676743  nElectrons: 33.000000  magneticMoment: [ Abs: 0.02069  Tot: -0.02000 ]
LCAOMinimize: Iter:   0  F: -53.3333494882114110  |grad|_K:  5.540e-03  alpha:  1.000e+00
	FillingsUpdate:  mu: -0.189090787  nElectrons: 33.000000  magneticMoment: [ Abs: 0.02073  Tot: -0.02000 ]
LCAOMinimize: Iter:   1  F: -53.5590838396335371  |grad|_K:  1.026e-03  alpha:  4.231e-01  linmin:  3.564e-01  cgtest: -8.103e-01  t[s]:      6.79
	FillingsUpdate:  mu: -0.183296315  nElectrons: 33.000000  magneticMoment: [ Abs: 0.02077  Tot: -0.02000 ]
LCAOMinimize: Iter:   2  F: -53.5607378411244923  |grad|_K:  8.688e-04  alpha:  2.308e-01  linmin: -1.081e-03  cgtest:  8.904e-01  t[s]:      8.80
LCAOMinimize: Encountered beta<0, resetting CG.
	FillingsUpdate:  mu: -0.181634695  nElectrons: 33.000000  magneticMoment: [ Abs: 0.02083  Tot: -0.02000 ]
LCAOMinimize: Iter:   3  F: -53.5665311689052572  |grad|_K:  1.016e-04  alpha:  3.762e-01  linmin:  9.797e-02  cgtest: -2.641e-01  t[s]:     10.77
	FillingsUpdate:  mu: -0.182783284  nElectrons: 33.000000  magneticMoment: [ Abs: 0.02088  Tot: -0.02000 ]
LCAOMinimize: Iter:   4  F: -53.5666014762636067  |grad|_K:  2.982e-05  alpha:  3.678e-01  linmin:  1.804e-03  cgtest:  3.728e-01  t[s]:     12.75
LCAOMinimize: Encountered beta<0, resetting CG.
	FillingsUpdate:  mu: -0.182907536  nElectrons: 33.000000  magneticMoment: [ Abs: 0.02093  Tot: -0.02000 ]
LCAOMinimize: Iter:   5  F: -53.5666081337615694  |grad|_K:  4.496e-06  alpha:  3.619e-01  linmin: -4.259e-04  cgtest: -1.666e-04  t[s]:     14.72
	FillingsUpdate:  mu: -0.182847615  nElectrons: 33.000000  magneticMoment: [ Abs: 0.02098  Tot: -0.02000 ]
LCAOMinimize: Iter:   6  F: -53.5666083591413695  |grad|_K:  1.706e-06  alpha:  5.388e-01  linmin:  1.876e-04  cgtest: -4.076e-04  t[s]:     16.71
	FillingsUpdate:  mu: -0.182847276  nElectrons: 33.000000  magneticMoment: [ Abs: 0.02102  Tot: -0.02000 ]
LCAOMinimize: Iter:   7  F: -53.5666083942880249  |grad|_K:  2.109e-07  alpha:  5.841e-01  linmin:  1.230e-03  cgtest: -2.449e-03  t[s]:     18.69
LCAOMinimize: Converged (|Delta F|<1.000000e-06 for 2 iters).


---- Citations for features of the code used in this run ----

   Software package:
      R. Sundararaman, K. Letchworth-Weaver, K.A. Schwarz, D. Gunceler, Y. Ozhabes and T.A. Arias, 'JDFTx: software for joint density-functional theory', SoftwareX 6, 278 (2017)

   gga-PBE exchange-correlation functional:
      J.P. Perdew, K. Burke and M. Ernzerhof, Phys. Rev. Lett. 77, 3865 (1996)

   Pseudopotentials:
      M Schlipf and F Gygi, Comput. Phys. Commun. 196, 36 (2015)

   Truncated Coulomb potentials:
      R. Sundararaman and T.A. Arias, Phys. Rev. B 87, 165122 (2013)

This list may not be complete. Please suggest additional citations or
report any other bugs at https://github.com/shankar1729/jdftx/issues

Initialization completed successfully at t[s]:     18.89


-------- Electronic minimization -----------
Will mix electronic density at each iteration.
	FillingsUpdate:  mu: -0.182847276  nElectrons: 33.000000  magneticMoment: [ Abs: 0.02102  Tot: -0.02000 ]
	FillingsUpdate:  mu: -0.197521579  nElectrons: 33.000000  magneticMoment: [ Abs: 0.02102  Tot: -0.02000 ]
SCF: Cycle:  0   F: -53.996777559506292   dF: -4.302e-01   |Residual|: 2.307e-01   |deigs|: 1.091e-01  t[s]:     23.41
	FillingsUpdate:  mu: -0.175656485  nElectrons: 33.000000  magneticMoment: [ Abs: 0.02280  Tot: -0.02000 ]
SCF: Cycle:  1   F: -54.017266146500006   dF: -2.049e-02   |Residual|: 1.287e-01   |deigs|: 2.709e-02  t[s]:     26.69
	FillingsUpdate:  mu: -0.145462500  nElectrons: 33.000000  magneticMoment: [ Abs: 0.02312  Tot: -0.02000 ]
SCF: Cycle:  2   F: -54.029954841536551   dF: -1.269e-02   |Residual|: 2.814e-02   |deigs|: 3.113e-02  t[s]:     30.01
	FillingsUpdate:  mu: -0.141911948  nElectrons: 33.000000  magneticMoment: [ Abs: 0.02318  Tot: -0.02000 ]
SCF: Cycle:  3   F: -54.030308109190401   dF: -3.533e-04   |Residual|: 1.560e-02   |deigs|: 8.475e-03  t[s]:     33.41
	FillingsUpdate:  mu: -0.129475263  nElectrons: 33.000000  magneticMoment: [ Abs: 0.02470  Tot: -0.02000 ]
SCF: Cycle:  4   F: -54.031000671904557   dF: -6.926e-04   |Residual|: 8.107e-03   |deigs|: 1.155e-02  t[s]:     36.80
	FillingsUpdate:  mu: -0.123825583  nElectrons: 33.000000  magneticMoment: [ Abs: 0.02533  Tot: -0.02000 ]
SCF: Cycle:  5   F: -54.031152635582899   dF: -1.520e-04   |Residual|: 5.153e-03   |deigs|: 5.367e-03  t[s]:     40.21
	FillingsUpdate:  mu: -0.117693508  nElectrons: 33.000000  magneticMoment: [ Abs: 0.02248  Tot: -0.02000 ]
SCF: Cycle:  6   F: -54.031175414975067   dF: -2.278e-05   |Residual|: 3.952e-03   |deigs|: 6.433e-03  t[s]:     43.64
	FillingsUpdate:  mu: -0.112466765  nElectrons: 33.000000  magneticMoment: [ Abs: 0.02564  Tot: -0.02000 ]
SCF: Cycle:  7   F: -54.031187427003900   dF: -1.201e-05   |Residual|: 3.130e-03   |deigs|: 5.807e-03  t[s]:     47.10
	FillingsUpdate:  mu: -0.108985763  nElectrons: 33.000000  magneticMoment: [ Abs: 0.02504  Tot: -0.02000 ]
SCF: Cycle:  8   F: -54.031212038175767   dF: -2.461e-05   |Residual|: 2.450e-03   |deigs|: 3.634e-03  t[s]:     50.60
	FillingsUpdate:  mu: -0.106765822  nElectrons: 33.000000  magneticMoment: [ Abs: 0.02348  Tot: -0.02000 ]
SCF: Cycle:  9   F: -54.031226541981809   dF: -1.450e-05   |Residual|: 2.053e-03   |deigs|: 2.388e-03  t[s]:     54.11
	FillingsUpdate:  mu: -0.102987981  nElectrons: 33.000000  magneticMoment: [ Abs: 0.02396  Tot: -0.02000 ]
SCF: Cycle: 10   F: -54.031242520355207   dF: -1.598e-05   |Residual|: 1.678e-03   |deigs|: 3.691e-03  t[s]:     57.64
	FillingsUpdate:  mu: -0.100671490  nElectrons: 33.000000  magneticMoment: [ Abs: 0.02290  Tot: -0.02000 ]
SCF: Cycle: 11   F: -54.031247504492910   dF: -4.984e-06   |Residual|: 1.381e-03   |deigs|: 2.150e-03  t[s]:     61.19
	FillingsUpdate:  mu: -0.097951353  nElectrons: 33.000000  magneticMoment: [ Abs: 0.02451  Tot: -0.02000 ]
SCF: Cycle: 12   F: -54.031248765649735   dF: -1.261e-06   |Residual|: 1.237e-03   |deigs|: 2.596e-03  t[s]:     64.75
	FillingsUpdate:  mu: -0.094217698  nElectrons: 33.000000  magneticMoment: [ Abs: 0.02319  Tot: -0.02000 ]
SCF: Cycle: 13   F: -54.031249859584889   dF: -1.094e-06   |Residual|: 1.125e-03   |deigs|: 3.452e-03  t[s]:     68.30
	FillingsUpdate:  mu: -0.090480412  nElectrons: 33.000000  magneticMoment: [ Abs: 0.02388  Tot: -0.02000 ]
SCF: Cycle: 14   F: -54.031250568378972   dF: -7.088e-07   |Residual|: 1.049e-03   |deigs|: 3.365e-03  t[s]:     71.84
	FillingsUpdate:  mu: -0.086429303  nElectrons: 33.000000  magneticMoment: [ Abs: 0.02345  Tot: -0.02000 ]
SCF: Cycle: 15   F: -54.031250733865889   dF: -1.655e-07   |Residual|: 9.147e-04   |deigs|: 3.898e-03  t[s]:     75.38
	FillingsUpdate:  mu: -0.082910436  nElectrons: 33.000000  magneticMoment: [ Abs: 0.02293  Tot: -0.02000 ]
SCF: Cycle: 16   F: -54.031252276692342   dF: -1.543e-06   |Residual|: 6.949e-04   |deigs|: 3.252e-03  t[s]:     78.91
	FillingsUpdate:  mu: -0.080880267  nElectrons: 33.000000  magneticMoment: [ Abs: 0.02332  Tot: -0.02000 ]
SCF: Cycle: 17   F: -54.031254587372857   dF: -2.311e-06   |Residual|: 4.777e-04   |deigs|: 1.828e-03  t[s]:     82.44
	FillingsUpdate:  mu: -0.080053639  nElectrons: 33.000000  magneticMoment: [ Abs: 0.02251  Tot: -0.02000 ]
SCF: Cycle: 18   F: -54.031255593330073   dF: -1.006e-06   |Residual|: 2.722e-04   |deigs|: 9.794e-04  t[s]:     85.99
	FillingsUpdate:  mu: -0.079804844  nElectrons: 33.000000  magneticMoment: [ Abs: 0.02248  Tot: -0.02000 ]
SCF: Cycle: 19   F: -54.031256018392256   dF: -4.251e-07   |Residual|: 1.392e-04   |deigs|: 4.827e-04  t[s]:     89.52
	FillingsUpdate:  mu: -0.079718274  nElectrons: 33.000000  magneticMoment: [ Abs: 0.02226  Tot: -0.02000 ]
SCF: Cycle: 20   F: -54.031256114315255   dF: -9.592e-08   |Residual|: 7.720e-05   |deigs|: 3.515e-04  t[s]:     93.04
	FillingsUpdate:  mu: -0.079730910  nElectrons: 33.000000  magneticMoment: [ Abs: 0.02221  Tot: -0.02000 ]
SCF: Cycle: 21   F: -54.031256158300032   dF: -4.398e-08   |Residual|: 4.420e-05   |deigs|: 3.670e-04  t[s]:     96.58
	FillingsUpdate:  mu: -0.079732215  nElectrons: 33.000000  magneticMoment: [ Abs: 0.02220  Tot: -0.02000 ]
SCF: Cycle: 22   F: -54.031256174740889   dF: -1.644e-08   |Residual|: 2.801e-05   |deigs|: 5.038e-04  t[s]:    100.12
	FillingsUpdate:  mu: -0.079744122  nElectrons: 33.000000  magneticMoment: [ Abs: 0.02218  Tot: -0.02000 ]
SCF: Cycle: 23   F: -54.031256183225707   dF: -8.485e-09   |Residual|: 1.855e-05   |deigs|: 3.369e-04  t[s]:    103.66
	FillingsUpdate:  mu: -0.079758148  nElectrons: 33.000000  magneticMoment: [ Abs: 0.02218  Tot: -0.02000 ]
SCF: Cycle: 24   F: -54.031256188378734   dF: -5.153e-09   |Residual|: 1.209e-05   |deigs|: 2.729e-04  t[s]:    107.21
SCF: Converged (|Delta E|<1.000000e-08 for 2 iters).


# Ionic positions in lattice coordinates:
ion C  -0.000000000000000   0.000000000000000   0.000000000000000 1
ion N   0.164313074529992   0.328626149059985   0.000000000000000 1
ion N   0.164313074529992   0.835686925470008   0.000000000000000 1
ion N   0.666666666666667   0.333333333333333   0.000000000000000 1
ion N   0.671373850940015   0.835686925470008   0.000000000000000 1
ion B  -0.001576660817548   0.499211669591226   0.000000000000000 1
ion B   0.500788330408774   0.001576660817548   0.000000000000000 1
ion B   0.500788330408774   0.499211669591226   0.000000000000000 1

# Forces in Lattice coordinates:
force C   0.000000000000000   0.000000000000000   0.000000000000000 1
force N   0.000000000000000  -0.042012442966807  -0.000000000000000 1
force N  -0.042012442966807   0.042012442966805   0.000000000000000 1
force N  -0.000000000000000   0.000000000000000   0.000000000000000 1
force N   0.042012442966809   0.000000000000000   0.000000000000000 1
force B   0.006915064611043   0.000000000000000   0.000000000000000 1
force B  -0.000000000000000  -0.006915064611043   0.000000000000000 1
force B  -0.006915064611043   0.006915064611043   0.000000000000000 1

# Energy components:
   Eewald =      -85.5148968124686775
       EH =      -43.5375242828275546
     Eloc =       54.1459417344436460
      Enl =       -2.2686763054686150
   Epulay =       -0.0000008322926719
      Exc =      -15.3339077829226582
       KE =       38.4778089642764485
-------------------------------------
     Etot =      -54.0312553172600758
       TS =        0.0000008711186558
-------------------------------------
        F =      -54.0312561883787339

IonicMinimize: Iter:   0  F: -54.031256188378734  |grad|_K:  1.858e-03  t[s]:    107.53
IonicMinimize: None of the convergence criteria satisfied after 0 iterations.

#--- Lowdin population analysis ---
# oxidation-state C +0.255
# magnetic-moments C -0.010
# oxidation-state N -0.254 -0.254 -0.380 -0.254
# magnetic-moments N +0.000 +0.000 -0.000 +0.000
# oxidation-state B +0.402 +0.402 +0.402
# magnetic-moments B -0.003 -0.003 -0.003


Dumping 'BN22BC--0.02.fillings' ... done
Dumping 'BN22BC--0.02.wfns' ... done
Dumping 'BN22BC--0.02.n_up' ... done
Dumping 'BN22BC--0.02.n_dn' ... done
Dumping 'BN22BC--0.02.eigenvals' ... done
End date and time: Sun Jan 30 23:11:07 2022  (Duration: 0-0:01:49.85)
Done!
