magnetization is 0.74
--------------------------------------------------------------------------
The library attempted to open the following supporting CUDA libraries,
but each of them failed.  CUDA-aware support is disabled.
libcuda.so.1: cannot open shared object file: No such file or directory
libcuda.dylib: cannot open shared object file: No such file or directory
/usr/lib64/libcuda.so.1: cannot open shared object file: No such file or directory
/usr/lib64/libcuda.dylib: cannot open shared object file: No such file or directory
If you are not interested in CUDA-aware support, then run with
--mca opal_warn_on_missing_libcuda 0 to suppress this message.  If you are interested
in CUDA-aware support, then try setting LD_LIBRARY_PATH to the location
of libcuda.so.1 to get passed this issue.
--------------------------------------------------------------------------
--------------------------------------------------------------------------
No OpenFabrics connection schemes reported that they were able to be
used on a specific port.  As such, the openib BTL (OpenFabrics
support) will be disabled for this port.

  Local host:           d-6-5-2
  Local device:         mlx5_1
  Local port:           1
  CPCs attempted:       rdmacm, udcm
--------------------------------------------------------------------------

*************** JDFTx 1.6.0 (git hash 42ebbcc2) ***************

Start date and time: Sun Jan 30 23:11:20 2022
Executable jdftx with command-line: -i BN22BC.in
Running on hosts (process indices):  d-6-5-2 (0-37)
Divided in process groups (process indices):  0 (0)  1 (1)  2 (2)  3 (3)  4 (4)  5 (5)  6 (6)  7 (7)  8 (8)  9 (9)  10 (10)  11 (11)  12 (12)  13 (13)  14 (14)  15 (15)  16 (16)  17 (17)  18 (18)  19 (19)  20 (20)  21 (21)  22 (22)  23 (23)  24 (24)  25 (25)  26 (26)  27 (27)  28 (28)  29 (29)  30 (30)  31 (31)  32 (32)  33 (33)  34 (34)  35 (35)  36 (36)  37 (37)
Resource initialization completed at t[s]:      0.00
Run totals: 38 processes, 48 threads, 0 GPUs


Input parsed successfully to the following command list (including defaults):

basis kpoint-dependent
coords-type Lattice
core-overlap-check vector
coulomb-interaction Slab 001
davidson-band-ratio 1.1
dump End State ElecDensity BandEigs
dump-name BN22BC-0.74.$VAR
elec-cutoff 20
elec-eigen-algo Davidson
elec-ex-corr gga-PBE
elec-initial-magnetization 0.740000 yes
elec-smearing Fermi 1e-05
electronic-minimize  \
	dirUpdateScheme      FletcherReeves \
	linminMethod         DirUpdateRecommended \
	nIterations          100 \
	history              15 \
	knormThreshold       0 \
	energyDiffThreshold  1e-08 \
	nEnergyDiff          2 \
	alphaTstart          1 \
	alphaTmin            1e-10 \
	updateTestStepSize   yes \
	alphaTreduceFactor   0.1 \
	alphaTincreaseFactor 3 \
	nAlphaAdjustMax      3 \
	wolfeEnergy          0.0001 \
	wolfeGradient        0.9 \
	fdTest               no
electronic-scf  \
	nIterations	1000 \
	energyDiffThreshold	1e-08 \
	residualThreshold	1e-07 \
	mixFraction	0.5 \
	qMetric	0.8 \
	history	10 \
	nEigSteps	2 \
	eigDiffThreshold	1e-08 \
	mixedVariable	Density \
	qKerker	0.8 \
	qKappa	-1 \
	verbose	no \
	mixFractionMag	1.5
exchange-regularization WignerSeitzTruncated
fluid None
fluid-ex-corr (null) lda-PZ
fluid-gummel-loop 10 1.000000e-05
fluid-minimize  \
	dirUpdateScheme      PolakRibiere \
	linminMethod         DirUpdateRecommended \
	nIterations          100 \
	history              15 \
	knormThreshold       0 \
	energyDiffThreshold  0 \
	nEnergyDiff          2 \
	alphaTstart          1 \
	alphaTmin            1e-10 \
	updateTestStepSize   yes \
	alphaTreduceFactor   0.1 \
	alphaTincreaseFactor 3 \
	nAlphaAdjustMax      3 \
	wolfeEnergy          0.0001 \
	wolfeGradient        0.9 \
	fdTest               no
fluid-solvent H2O 55.338 ScalarEOS \
	epsBulk 78.4 \
	pMol 0.92466 \
	epsInf 1.77 \
	Pvap 1.06736e-10 \
	sigmaBulk 4.62e-05 \
	Rvdw 2.61727 \
	Res 1.42 \
	tauNuc 343133 \
	poleEl 15 7 1
forces-output-coords Positions
ion C   0.000000000000000  -0.000000000000000   0.000000000000000 1
ion N   0.164313074529992   0.328626149059985   0.000000000000000 1
ion N   0.164313074529992   0.835686925470008   0.000000000000000 1
ion N   0.666666666666667   0.333333333333333   0.000000000000000 1
ion N   0.671373850940015   0.835686925470008   0.000000000000000 1
ion B  -0.001576660817548   0.499211669591226   0.000000000000000 1
ion B   0.500788330408774   0.001576660817548   0.000000000000000 1
ion B   0.500788330408774   0.499211669591226   0.000000000000000 1
ion-species SG15/$ID_ONCV_PBE.upf
ion-width 0
ionic-minimize  \
	dirUpdateScheme      L-BFGS \
	linminMethod         DirUpdateRecommended \
	nIterations          0 \
	history              15 \
	knormThreshold       0.0001 \
	energyDiffThreshold  1e-06 \
	nEnergyDiff          2 \
	alphaTstart          1 \
	alphaTmin            1e-10 \
	updateTestStepSize   yes \
	alphaTreduceFactor   0.1 \
	alphaTincreaseFactor 3 \
	nAlphaAdjustMax      3 \
	wolfeEnergy          0.0001 \
	wolfeGradient        0.9 \
	fdTest               no
kpoint   0.000000000000   0.000000000000   0.000000000000  1.00000000000000
kpoint-folding 12 12 1 
latt-move-scale 1 1 1
latt-scale 1 1 1 
lattice  \
	   9.356640512437433   -4.678320256218713    0.000000000000000  \
	  -0.000000000000000    8.103088377849462    0.000000000000000  \
	   0.000000000000000    0.000000000000000   40.000000000000000 
lattice-minimize  \
	dirUpdateScheme      L-BFGS \
	linminMethod         DirUpdateRecommended \
	nIterations          0 \
	history              15 \
	knormThreshold       0 \
	energyDiffThreshold  1e-06 \
	nEnergyDiff          2 \
	alphaTstart          1 \
	alphaTmin            1e-10 \
	updateTestStepSize   yes \
	alphaTreduceFactor   0.1 \
	alphaTincreaseFactor 3 \
	nAlphaAdjustMax      3 \
	wolfeEnergy          0.0001 \
	wolfeGradient        0.9 \
	fdTest               no
lcao-params -1 1e-06 1e-05
pcm-variant GLSSA13
spintype z-spin
subspace-rotation-factor 1 yes
symmetries automatic
symmetry-threshold 0.0001



---------- Setting up symmetries ----------

Found 24 point-group symmetries of the bravais lattice
Found 12 space-group symmetries with basis
Applied RMS atom displacement 3.80214e-15 bohrs to make symmetries exact.

---------- Initializing the Grid ----------
R = 
[      9.35664     -4.67832            0  ]
[            0      8.10309            0  ]
[            0            0           40  ]
unit cell volume = 3032.71
G =
[   0.671522   0.387703         -0  ]
[          0   0.775406         -0  ]
[         -0         -0    0.15708  ]
Minimum fftbox size, Smin = [  40  40  164  ]
Chosen fftbox size, S = [  40  40  168  ]

---------- Exchange Correlation functional ----------
Initalized PBE GGA exchange.
Initalized PBE GGA correlation.

---------- Setting up pseudopotentials ----------
Width of ionic core gaussian charges (only for fluid interactions / plotting) set to 0

Reading pseudopotential file '/home/gridsan/aligho/DFT/build-Nov24/pseudopotentials/SG15/C_ONCV_PBE.upf':
  'C' pseudopotential, 'PBE' functional
  Generated using ONCVPSP code by D. R. Hamann
  Author: Martin Schlipf and Francois Gygi  Date: 150915.
  4 valence electrons, 2 orbitals, 4 projectors, 1248 radial grid points, with lMax = 1
  Transforming local potential to a uniform radial grid of dG=0.02 with 1502 points.
  Transforming nonlocal projectors to a uniform radial grid of dG=0.02 with 432 points.
    2S    l: 0   occupation:  2.0   eigenvalue: -0.505335
    2P    l: 1   occupation:  2.0   eigenvalue: -0.194238
  Transforming atomic orbitals to a uniform radial grid of dG=0.02 with 432 points.
  Core radius for overlap checks: 1.23 bohrs.
  Reading pulay file /home/gridsan/aligho/DFT/build-Nov24/pseudopotentials/SG15/C_ONCV_PBE.pulay ... using dE_dnG = -9.239532e-03 computed for Ecut = 20.

Reading pseudopotential file '/home/gridsan/aligho/DFT/build-Nov24/pseudopotentials/SG15/N_ONCV_PBE.upf':
  'N' pseudopotential, 'PBE' functional
  Generated using ONCVPSP code by D. R. Hamann
  Author: Martin Schlipf and Francois Gygi  Date: 150915.
  5 valence electrons, 2 orbitals, 4 projectors, 1058 radial grid points, with lMax = 1
  Transforming local potential to a uniform radial grid of dG=0.02 with 1502 points.
  Transforming nonlocal projectors to a uniform radial grid of dG=0.02 with 432 points.
    2S    l: 0   occupation:  2.0   eigenvalue: -0.682907
    2P    l: 1   occupation:  3.0   eigenvalue: -0.260548
  Transforming atomic orbitals to a uniform radial grid of dG=0.02 with 432 points.
  Core radius for overlap checks: 1.35 bohrs.
  Reading pulay file /home/gridsan/aligho/DFT/build-Nov24/pseudopotentials/SG15/N_ONCV_PBE.pulay ... using dE_dnG = -2.956256e-02 computed for Ecut = 20.

Reading pseudopotential file '/home/gridsan/aligho/DFT/build-Nov24/pseudopotentials/SG15/B_ONCV_PBE.upf':
  'B' pseudopotential, 'PBE' functional
  Generated using ONCVPSP code by D. R. Hamann
  Author: Martin Schlipf and Francois Gygi  Date: 150915.
  3 valence electrons, 2 orbitals, 4 projectors, 1534 radial grid points, with lMax = 1
  Transforming local potential to a uniform radial grid of dG=0.02 with 1502 points.
  Transforming nonlocal projectors to a uniform radial grid of dG=0.02 with 432 points.
    2S    l: 0   occupation:  2.0   eigenvalue: -0.347027
    2P    l: 1   occupation:  1.0   eigenvalue: -0.132548
  Transforming atomic orbitals to a uniform radial grid of dG=0.02 with 432 points.
  Core radius for overlap checks: 1.60 bohrs.
  Reading pulay file /home/gridsan/aligho/DFT/build-Nov24/pseudopotentials/SG15/B_ONCV_PBE.pulay ... using dE_dnG = -3.748568e-04 computed for Ecut = 20.

Initialized 3 species with 8 total atoms.

Folded 1 k-points by 12x12x1 to 144 k-points.

---------- Setting up k-points, bands, fillings ----------
Adding inversion symmetry to k-mesh for non-inversion-symmetric unit cell.
Reduced to 19 k-points under symmetry. 
Computing the number of bands and number of electrons
Calculating initial fillings.
nElectrons:  33.000000   nBands: 32   nStates: 38

----- Setting up reduced wavefunction bases (one per k-point) -----
average nbasis = 12955.938 , ideal nbasis = 12955.957

---------- Setting up coulomb interaction ----------
Initialized slab truncation along lattice direction 001

---------- Setting up 2D ewald sum ----------
Optimum gaussian width for ewald sums = 5.194429 bohr.
Real space sums over 289 unit cells with max indices [  8  8  0  ]
Reciprocal space sums over 81 terms with max indices [  4  4  0  ]

---------- Allocating electronic variables ----------
Initializing wave functions:  linear combination of atomic orbitals
C pseudo-atom occupations:   s ( 2 )  p ( 2 )
N pseudo-atom occupations:   s ( 2 )  p ( 3 )
B pseudo-atom occupations:   s ( 2 )  p ( 1 )
[d-6-5-2:05179] 37 more processes have sent help message help-mpi-common-cuda.txt / dlopen failed
[d-6-5-2:05179] Set MCA parameter "orte_base_help_aggregate" to 0 to see all help / error messages
[d-6-5-2:05179] 37 more processes have sent help message help-mpi-btl-openib-cpc-base.txt / no cpcs for port
	FillingsUpdate:  mu: -0.182453301  nElectrons: 33.000000  magneticMoment: [ Abs: 0.75959  Tot: +0.74000 ]
LCAOMinimize: Iter:   0  F: -53.3532239089612688  |grad|_K:  5.345e-03  alpha:  1.000e+00
	FillingsUpdate:  mu: -0.184567922  nElectrons: 33.000000  magneticMoment: [ Abs: 0.76320  Tot: +0.74000 ]
LCAOMinimize: Iter:   1  F: -53.5634590297380768  |grad|_K:  9.351e-04  alpha:  4.267e-01  linmin:  3.294e-01  cgtest: -7.958e-01  t[s]:      6.96
	FillingsUpdate:  mu: -0.179711771  nElectrons: 33.000000  magneticMoment: [ Abs: 0.76491  Tot: +0.74000 ]
LCAOMinimize: Iter:   2  F: -53.5650269474052223  |grad|_K:  7.706e-04  alpha:  2.470e-01  linmin:  7.192e-04  cgtest:  8.711e-01  t[s]:      9.00
LCAOMinimize: Encountered beta<0, resetting CG.
	FillingsUpdate:  mu: -0.178876130  nElectrons: 33.000000  magneticMoment: [ Abs: 0.76696  Tot: +0.74000 ]
LCAOMinimize: Iter:   3  F: -53.5696507546566139  |grad|_K:  9.539e-05  alpha:  3.804e-01  linmin:  8.060e-02  cgtest: -1.930e-01  t[s]:     11.02
	FillingsUpdate:  mu: -0.179723934  nElectrons: 33.000000  magneticMoment: [ Abs: 0.76898  Tot: +0.74000 ]
LCAOMinimize: Iter:   4  F: -53.5697188016891062  |grad|_K:  3.139e-05  alpha:  3.860e-01  linmin: -9.794e-03  cgtest:  1.908e-01  t[s]:     13.02
	FillingsUpdate:  mu: -0.179921500  nElectrons: 33.000000  magneticMoment: [ Abs: 0.77118  Tot: +0.74000 ]
LCAOMinimize: Iter:   5  F: -53.5697305159474766  |grad|_K:  1.877e-05  alpha:  5.744e-01  linmin:  7.384e-03  cgtest:  2.530e-01  t[s]:     15.06
	FillingsUpdate:  mu: -0.179620238  nElectrons: 33.000000  magneticMoment: [ Abs: 0.77277  Tot: +0.74000 ]
LCAOMinimize: Iter:   6  F: -53.5697347773016972  |grad|_K:  8.377e-06  alpha:  5.889e-01  linmin: -1.604e-03  cgtest: -1.466e-01  t[s]:     17.06
	FillingsUpdate:  mu: -0.179702461  nElectrons: 33.000000  magneticMoment: [ Abs: 0.77394  Tot: +0.74000 ]
LCAOMinimize: Iter:   7  F: -53.5697358572347113  |grad|_K:  2.332e-06  alpha:  7.418e-01  linmin: -1.026e-04  cgtest: -3.366e-02  t[s]:     19.07
	FillingsUpdate:  mu: -0.179718573  nElectrons: 33.000000  magneticMoment: [ Abs: 0.77401  Tot: +0.74000 ]
LCAOMinimize: Iter:   8  F: -53.5697359125103887  |grad|_K:  6.877e-07  alpha:  4.914e-01  linmin: -4.866e-05  cgtest:  3.086e-04  t[s]:     21.07
	FillingsUpdate:  mu: -0.179709679  nElectrons: 33.000000  magneticMoment: [ Abs: 0.77398  Tot: +0.74000 ]
LCAOMinimize: Iter:   9  F: -53.5697359191446978  |grad|_K:  3.693e-07  alpha:  6.788e-01  linmin: -2.180e-04  cgtest:  4.519e-04  t[s]:     23.08
LCAOMinimize: Converged (|Delta F|<1.000000e-06 for 2 iters).


---- Citations for features of the code used in this run ----

   Software package:
      R. Sundararaman, K. Letchworth-Weaver, K.A. Schwarz, D. Gunceler, Y. Ozhabes and T.A. Arias, 'JDFTx: software for joint density-functional theory', SoftwareX 6, 278 (2017)

   gga-PBE exchange-correlation functional:
      J.P. Perdew, K. Burke and M. Ernzerhof, Phys. Rev. Lett. 77, 3865 (1996)

   Pseudopotentials:
      M Schlipf and F Gygi, Comput. Phys. Commun. 196, 36 (2015)

   Truncated Coulomb potentials:
      R. Sundararaman and T.A. Arias, Phys. Rev. B 87, 165122 (2013)

This list may not be complete. Please suggest additional citations or
report any other bugs at https://github.com/shankar1729/jdftx/issues

Initialization completed successfully at t[s]:     23.28


-------- Electronic minimization -----------
Will mix electronic density at each iteration.
	FillingsUpdate:  mu: -0.179709679  nElectrons: 33.000000  magneticMoment: [ Abs: 0.77398  Tot: +0.74000 ]
	FillingsUpdate:  mu: -0.193600087  nElectrons: 33.000000  magneticMoment: [ Abs: 0.77398  Tot: +0.74000 ]
SCF: Cycle:  0   F: -53.999787571864687   dF: -4.301e-01   |Residual|: 2.315e-01   |deigs|: 1.090e-01  t[s]:     27.95
	FillingsUpdate:  mu: -0.171675959  nElectrons: 33.000000  magneticMoment: [ Abs: 0.80226  Tot: +0.74000 ]
SCF: Cycle:  1   F: -54.020087150794900   dF: -2.030e-02   |Residual|: 1.291e-01   |deigs|: 2.709e-02  t[s]:     31.40
	FillingsUpdate:  mu: -0.142045011  nElectrons: 33.000000  magneticMoment: [ Abs: 0.82628  Tot: +0.74000 ]
SCF: Cycle:  2   F: -54.032699257244914   dF: -1.261e-02   |Residual|: 2.857e-02   |deigs|: 3.102e-02  t[s]:     34.90
	FillingsUpdate:  mu: -0.138773133  nElectrons: 33.000000  magneticMoment: [ Abs: 0.82968  Tot: +0.74000 ]
SCF: Cycle:  3   F: -54.033083336542674   dF: -3.841e-04   |Residual|: 1.602e-02   |deigs|: 8.684e-03  t[s]:     38.40
	FillingsUpdate:  mu: -0.128726645  nElectrons: 33.000000  magneticMoment: [ Abs: 0.81360  Tot: +0.74000 ]
SCF: Cycle:  4   F: -54.033671464964172   dF: -5.881e-04   |Residual|: 8.442e-03   |deigs|: 9.541e-03  t[s]:     41.95
	FillingsUpdate:  mu: -0.122750306  nElectrons: 33.000000  magneticMoment: [ Abs: 0.81770  Tot: +0.74000 ]
SCF: Cycle:  5   F: -54.033892250112302   dF: -2.208e-04   |Residual|: 6.596e-03   |deigs|: 5.561e-03  t[s]:     45.53
	FillingsUpdate:  mu: -0.117049747  nElectrons: 33.000000  magneticMoment: [ Abs: 0.81716  Tot: +0.74000 ]
SCF: Cycle:  6   F: -54.033957199212210   dF: -6.495e-05   |Residual|: 4.520e-03   |deigs|: 5.309e-03  t[s]:     49.15
	FillingsUpdate:  mu: -0.111782337  nElectrons: 33.000000  magneticMoment: [ Abs: 0.81636  Tot: +0.74000 ]
SCF: Cycle:  7   F: -54.033954876200241   dF: +2.323e-06   |Residual|: 3.318e-03   |deigs|: 6.443e-03  t[s]:     52.79
	FillingsUpdate:  mu: -0.107674256  nElectrons: 33.000000  magneticMoment: [ Abs: 0.81699  Tot: +0.74000 ]
SCF: Cycle:  8   F: -54.033973320875376   dF: -1.844e-05   |Residual|: 2.929e-03   |deigs|: 4.229e-03  t[s]:     56.45
	FillingsUpdate:  mu: -0.104336948  nElectrons: 33.000000  magneticMoment: [ Abs: 0.81345  Tot: +0.74000 ]
SCF: Cycle:  9   F: -54.033995911182714   dF: -2.259e-05   |Residual|: 2.089e-03   |deigs|: 3.574e-03  t[s]:     60.14
	FillingsUpdate:  mu: -0.102053205  nElectrons: 33.000000  magneticMoment: [ Abs: 0.81383  Tot: +0.74000 ]
SCF: Cycle: 10   F: -54.034009849986546   dF: -1.394e-05   |Residual|: 1.852e-03   |deigs|: 2.411e-03  t[s]:     63.88
	FillingsUpdate:  mu: -0.099335870  nElectrons: 33.000000  magneticMoment: [ Abs: 0.81562  Tot: +0.74000 ]
SCF: Cycle: 11   F: -54.034019295520267   dF: -9.446e-06   |Residual|: 1.463e-03   |deigs|: 2.645e-03  t[s]:     67.59
	FillingsUpdate:  mu: -0.096688814  nElectrons: 33.000000  magneticMoment: [ Abs: 0.81511  Tot: +0.74000 ]
SCF: Cycle: 12   F: -54.034024005577564   dF: -4.710e-06   |Residual|: 1.321e-03   |deigs|: 2.503e-03  t[s]:     71.30
	FillingsUpdate:  mu: -0.093680982  nElectrons: 33.000000  magneticMoment: [ Abs: 0.81478  Tot: +0.74000 ]
SCF: Cycle: 13   F: -54.034026338055909   dF: -2.332e-06   |Residual|: 1.188e-03   |deigs|: 2.765e-03  t[s]:     74.99
	FillingsUpdate:  mu: -0.089956788  nElectrons: 33.000000  magneticMoment: [ Abs: 0.81352  Tot: +0.74000 ]
SCF: Cycle: 14   F: -54.034026630820151   dF: -2.928e-07   |Residual|: 1.098e-03   |deigs|: 3.458e-03  t[s]:     78.70
	FillingsUpdate:  mu: -0.086280698  nElectrons: 33.000000  magneticMoment: [ Abs: 0.81403  Tot: +0.74000 ]
SCF: Cycle: 15   F: -54.034026722630969   dF: -9.181e-08   |Residual|: 1.029e-03   |deigs|: 3.268e-03  t[s]:     82.41
	FillingsUpdate:  mu: -0.082751315  nElectrons: 33.000000  magneticMoment: [ Abs: 0.81433  Tot: +0.74000 ]
SCF: Cycle: 16   F: -54.034027805905481   dF: -1.083e-06   |Residual|: 9.084e-04   |deigs|: 3.213e-03  t[s]:     86.12
	FillingsUpdate:  mu: -0.079881033  nElectrons: 33.000000  magneticMoment: [ Abs: 0.81435  Tot: +0.74000 ]
SCF: Cycle: 17   F: -54.034029854606203   dF: -2.049e-06   |Residual|: 6.751e-04   |deigs|: 2.595e-03  t[s]:     89.82
	FillingsUpdate:  mu: -0.077864277  nElectrons: 33.000000  magneticMoment: [ Abs: 0.81393  Tot: +0.74000 ]
SCF: Cycle: 18   F: -54.034031823323424   dF: -1.969e-06   |Residual|: 4.075e-04   |deigs|: 1.774e-03  t[s]:     93.53
	FillingsUpdate:  mu: -0.077096140  nElectrons: 33.000000  magneticMoment: [ Abs: 0.81366  Tot: +0.74000 ]
SCF: Cycle: 19   F: -54.034032392323738   dF: -5.690e-07   |Residual|: 2.417e-04   |deigs|: 7.601e-04  t[s]:     97.23
	FillingsUpdate:  mu: -0.076705620  nElectrons: 33.000000  magneticMoment: [ Abs: 0.81360  Tot: +0.74000 ]
SCF: Cycle: 20   F: -54.034032584391142   dF: -1.921e-07   |Residual|: 1.354e-04   |deigs|: 5.520e-04  t[s]:    100.93
	FillingsUpdate:  mu: -0.076535852  nElectrons: 33.000000  magneticMoment: [ Abs: 0.81360  Tot: +0.74000 ]
SCF: Cycle: 21   F: -54.034032625766997   dF: -4.138e-08   |Residual|: 7.471e-05   |deigs|: 3.716e-04  t[s]:    104.62
	FillingsUpdate:  mu: -0.076457805  nElectrons: 33.000000  magneticMoment: [ Abs: 0.81360  Tot: +0.74000 ]
SCF: Cycle: 22   F: -54.034032638854569   dF: -1.309e-08   |Residual|: 2.931e-05   |deigs|: 3.463e-04  t[s]:    108.31
	FillingsUpdate:  mu: -0.076435593  nElectrons: 33.000000  magneticMoment: [ Abs: 0.81358  Tot: +0.74000 ]
SCF: Cycle: 23   F: -54.034032644297582   dF: -5.443e-09   |Residual|: 1.359e-05   |deigs|: 2.879e-04  t[s]:    112.02
	FillingsUpdate:  mu: -0.076428885  nElectrons: 33.000000  magneticMoment: [ Abs: 0.81357  Tot: +0.74000 ]
SCF: Cycle: 24   F: -54.034032646529845   dF: -2.232e-09   |Residual|: 7.699e-06   |deigs|: 4.091e-04  t[s]:    115.73
SCF: Converged (|Delta E|<1.000000e-08 for 2 iters).


# Ionic positions in lattice coordinates:
ion C  -0.000000000000000   0.000000000000000   0.000000000000000 1
ion N   0.164313074529992   0.328626149059985   0.000000000000000 1
ion N   0.164313074529992   0.835686925470008   0.000000000000000 1
ion N   0.666666666666667   0.333333333333333   0.000000000000000 1
ion N   0.671373850940015   0.835686925470008   0.000000000000000 1
ion B  -0.001576660817548   0.499211669591226   0.000000000000000 1
ion B   0.500788330408774   0.001576660817548   0.000000000000000 1
ion B   0.500788330408774   0.499211669591226   0.000000000000000 1

# Forces in Lattice coordinates:
force C  -0.000000000000000   0.000000000000000   0.000000000000000 1
force N   0.000000000000000  -0.019110440595157  -0.000000000000000 1
force N  -0.019110440595160   0.019110440595156   0.000000000000000 1
force N   0.000000000000000  -0.000000000000000   0.000000000000000 1
force N   0.019110440595160  -0.000000000000000  -0.000000000000000 1
force B   0.009831480410262   0.000000000000000  -0.000000000000000 1
force B  -0.000000000000000  -0.009831480410263  -0.000000000000000 1
force B  -0.009831480410262   0.009831480410263   0.000000000000000 1

# Energy components:
   Eewald =      -85.5148968124686775
       EH =      -43.4990989686964085
     Eloc =       54.0941621057764621
      Enl =       -2.2773416024435953
   Epulay =       -0.0000008322926719
      Exc =      -15.3465257527189607
       KE =       38.5096697000752002
-------------------------------------
     Etot =      -54.0340321627686464
       TS =        0.0000004837611954
-------------------------------------
        F =      -54.0340326465298446

IonicMinimize: Iter:   0  F: -54.034032646529845  |grad|_K:  9.377e-04  t[s]:    116.08
IonicMinimize: None of the convergence criteria satisfied after 0 iterations.

#--- Lowdin population analysis ---
# oxidation-state C +0.266
# magnetic-moments C +0.402
# oxidation-state N -0.261 -0.261 -0.384 -0.261
# magnetic-moments N -0.001 -0.001 +0.017 -0.001
# oxidation-state B +0.407 +0.407 +0.407
# magnetic-moments B +0.103 +0.103 +0.103


Dumping 'BN22BC-0.74.fillings' ... done
Dumping 'BN22BC-0.74.wfns' ... done
Dumping 'BN22BC-0.74.n_up' ... done
Dumping 'BN22BC-0.74.n_dn' ... done
Dumping 'BN22BC-0.74.eigenvals' ... done
End date and time: Sun Jan 30 23:13:17 2022  (Duration: 0-0:01:56.97)
Done!
