magnetization is 0.86
--------------------------------------------------------------------------
The library attempted to open the following supporting CUDA libraries,
but each of them failed.  CUDA-aware support is disabled.
libcuda.so.1: cannot open shared object file: No such file or directory
libcuda.dylib: cannot open shared object file: No such file or directory
/usr/lib64/libcuda.so.1: cannot open shared object file: No such file or directory
/usr/lib64/libcuda.dylib: cannot open shared object file: No such file or directory
If you are not interested in CUDA-aware support, then run with
--mca opal_warn_on_missing_libcuda 0 to suppress this message.  If you are interested
in CUDA-aware support, then try setting LD_LIBRARY_PATH to the location
of libcuda.so.1 to get passed this issue.
--------------------------------------------------------------------------
--------------------------------------------------------------------------
No OpenFabrics connection schemes reported that they were able to be
used on a specific port.  As such, the openib BTL (OpenFabrics
support) will be disabled for this port.

  Local host:           d-16-7-1
  Local device:         mlx5_1
  Local port:           1
  CPCs attempted:       rdmacm, udcm
--------------------------------------------------------------------------

*************** JDFTx 1.6.0 (git hash 42ebbcc2) ***************

Start date and time: Sun Jan 30 23:12:22 2022
Executable jdftx with command-line: -i BN22BC.in
Running on hosts (process indices):  d-16-7-1 (0-37)
Divided in process groups (process indices):  0 (0)  1 (1)  2 (2)  3 (3)  4 (4)  5 (5)  6 (6)  7 (7)  8 (8)  9 (9)  10 (10)  11 (11)  12 (12)  13 (13)  14 (14)  15 (15)  16 (16)  17 (17)  18 (18)  19 (19)  20 (20)  21 (21)  22 (22)  23 (23)  24 (24)  25 (25)  26 (26)  27 (27)  28 (28)  29 (29)  30 (30)  31 (31)  32 (32)  33 (33)  34 (34)  35 (35)  36 (36)  37 (37)
Resource initialization completed at t[s]:      0.00
Run totals: 38 processes, 48 threads, 0 GPUs


Input parsed successfully to the following command list (including defaults):

basis kpoint-dependent
coords-type Lattice
core-overlap-check vector
coulomb-interaction Slab 001
davidson-band-ratio 1.1
dump End State ElecDensity BandEigs
dump-name BN22BC-0.86.$VAR
elec-cutoff 20
elec-eigen-algo Davidson
elec-ex-corr gga-PBE
elec-initial-magnetization 0.860000 yes
elec-smearing Fermi 1e-05
electronic-minimize  \
	dirUpdateScheme      FletcherReeves \
	linminMethod         DirUpdateRecommended \
	nIterations          100 \
	history              15 \
	knormThreshold       0 \
	energyDiffThreshold  1e-08 \
	nEnergyDiff          2 \
	alphaTstart          1 \
	alphaTmin            1e-10 \
	updateTestStepSize   yes \
	alphaTreduceFactor   0.1 \
	alphaTincreaseFactor 3 \
	nAlphaAdjustMax      3 \
	wolfeEnergy          0.0001 \
	wolfeGradient        0.9 \
	fdTest               no
electronic-scf  \
	nIterations	1000 \
	energyDiffThreshold	1e-08 \
	residualThreshold	1e-07 \
	mixFraction	0.5 \
	qMetric	0.8 \
	history	10 \
	nEigSteps	2 \
	eigDiffThreshold	1e-08 \
	mixedVariable	Density \
	qKerker	0.8 \
	qKappa	-1 \
	verbose	no \
	mixFractionMag	1.5
exchange-regularization WignerSeitzTruncated
fluid None
fluid-ex-corr (null) lda-PZ
fluid-gummel-loop 10 1.000000e-05
fluid-minimize  \
	dirUpdateScheme      PolakRibiere \
	linminMethod         DirUpdateRecommended \
	nIterations          100 \
	history              15 \
	knormThreshold       0 \
	energyDiffThreshold  0 \
	nEnergyDiff          2 \
	alphaTstart          1 \
	alphaTmin            1e-10 \
	updateTestStepSize   yes \
	alphaTreduceFactor   0.1 \
	alphaTincreaseFactor 3 \
	nAlphaAdjustMax      3 \
	wolfeEnergy          0.0001 \
	wolfeGradient        0.9 \
	fdTest               no
fluid-solvent H2O 55.338 ScalarEOS \
	epsBulk 78.4 \
	pMol 0.92466 \
	epsInf 1.77 \
	Pvap 1.06736e-10 \
	sigmaBulk 4.62e-05 \
	Rvdw 2.61727 \
	Res 1.42 \
	tauNuc 343133 \
	poleEl 15 7 1
forces-output-coords Positions
ion C   0.000000000000000  -0.000000000000000   0.000000000000000 1
ion N   0.164313074529992   0.328626149059985   0.000000000000000 1
ion N   0.164313074529992   0.835686925470008   0.000000000000000 1
ion N   0.666666666666667   0.333333333333333   0.000000000000000 1
ion N   0.671373850940015   0.835686925470008   0.000000000000000 1
ion B  -0.001576660817548   0.499211669591226   0.000000000000000 1
ion B   0.500788330408774   0.001576660817548   0.000000000000000 1
ion B   0.500788330408774   0.499211669591226   0.000000000000000 1
ion-species SG15/$ID_ONCV_PBE.upf
ion-width 0
ionic-minimize  \
	dirUpdateScheme      L-BFGS \
	linminMethod         DirUpdateRecommended \
	nIterations          0 \
	history              15 \
	knormThreshold       0.0001 \
	energyDiffThreshold  1e-06 \
	nEnergyDiff          2 \
	alphaTstart          1 \
	alphaTmin            1e-10 \
	updateTestStepSize   yes \
	alphaTreduceFactor   0.1 \
	alphaTincreaseFactor 3 \
	nAlphaAdjustMax      3 \
	wolfeEnergy          0.0001 \
	wolfeGradient        0.9 \
	fdTest               no
kpoint   0.000000000000   0.000000000000   0.000000000000  1.00000000000000
kpoint-folding 12 12 1 
latt-move-scale 1 1 1
latt-scale 1 1 1 
lattice  \
	   9.356640512437433   -4.678320256218713    0.000000000000000  \
	  -0.000000000000000    8.103088377849462    0.000000000000000  \
	   0.000000000000000    0.000000000000000   40.000000000000000 
lattice-minimize  \
	dirUpdateScheme      L-BFGS \
	linminMethod         DirUpdateRecommended \
	nIterations          0 \
	history              15 \
	knormThreshold       0 \
	energyDiffThreshold  1e-06 \
	nEnergyDiff          2 \
	alphaTstart          1 \
	alphaTmin            1e-10 \
	updateTestStepSize   yes \
	alphaTreduceFactor   0.1 \
	alphaTincreaseFactor 3 \
	nAlphaAdjustMax      3 \
	wolfeEnergy          0.0001 \
	wolfeGradient        0.9 \
	fdTest               no
lcao-params -1 1e-06 1e-05
pcm-variant GLSSA13
spintype z-spin
subspace-rotation-factor 1 yes
symmetries automatic
symmetry-threshold 0.0001



---------- Setting up symmetries ----------

Found 24 point-group symmetries of the bravais lattice
Found 12 space-group symmetries with basis
Applied RMS atom displacement 3.80214e-15 bohrs to make symmetries exact.

---------- Initializing the Grid ----------
R = 
[      9.35664     -4.67832            0  ]
[            0      8.10309            0  ]
[            0            0           40  ]
unit cell volume = 3032.71
G =
[   0.671522   0.387703         -0  ]
[          0   0.775406         -0  ]
[         -0         -0    0.15708  ]
Minimum fftbox size, Smin = [  40  40  164  ]
Chosen fftbox size, S = [  40  40  168  ]

---------- Exchange Correlation functional ----------
Initalized PBE GGA exchange.
Initalized PBE GGA correlation.

---------- Setting up pseudopotentials ----------
Width of ionic core gaussian charges (only for fluid interactions / plotting) set to 0

Reading pseudopotential file '/home/gridsan/aligho/DFT/build-Nov24/pseudopotentials/SG15/C_ONCV_PBE.upf':
  'C' pseudopotential, 'PBE' functional
  Generated using ONCVPSP code by D. R. Hamann
  Author: Martin Schlipf and Francois Gygi  Date: 150915.
  4 valence electrons, 2 orbitals, 4 projectors, 1248 radial grid points, with lMax = 1
  Transforming local potential to a uniform radial grid of dG=0.02 with 1502 points.
  Transforming nonlocal projectors to a uniform radial grid of dG=0.02 with 432 points.
    2S    l: 0   occupation:  2.0   eigenvalue: -0.505335
    2P    l: 1   occupation:  2.0   eigenvalue: -0.194238
  Transforming atomic orbitals to a uniform radial grid of dG=0.02 with 432 points.
  Core radius for overlap checks: 1.23 bohrs.
  Reading pulay file /home/gridsan/aligho/DFT/build-Nov24/pseudopotentials/SG15/C_ONCV_PBE.pulay ... using dE_dnG = -9.239532e-03 computed for Ecut = 20.

Reading pseudopotential file '/home/gridsan/aligho/DFT/build-Nov24/pseudopotentials/SG15/N_ONCV_PBE.upf':
  'N' pseudopotential, 'PBE' functional
  Generated using ONCVPSP code by D. R. Hamann
  Author: Martin Schlipf and Francois Gygi  Date: 150915.
  5 valence electrons, 2 orbitals, 4 projectors, 1058 radial grid points, with lMax = 1
  Transforming local potential to a uniform radial grid of dG=0.02 with 1502 points.
  Transforming nonlocal projectors to a uniform radial grid of dG=0.02 with 432 points.
    2S    l: 0   occupation:  2.0   eigenvalue: -0.682907
    2P    l: 1   occupation:  3.0   eigenvalue: -0.260548
  Transforming atomic orbitals to a uniform radial grid of dG=0.02 with 432 points.
  Core radius for overlap checks: 1.35 bohrs.
  Reading pulay file /home/gridsan/aligho/DFT/build-Nov24/pseudopotentials/SG15/N_ONCV_PBE.pulay ... using dE_dnG = -2.956256e-02 computed for Ecut = 20.

Reading pseudopotential file '/home/gridsan/aligho/DFT/build-Nov24/pseudopotentials/SG15/B_ONCV_PBE.upf':
  'B' pseudopotential, 'PBE' functional
  Generated using ONCVPSP code by D. R. Hamann
  Author: Martin Schlipf and Francois Gygi  Date: 150915.
  3 valence electrons, 2 orbitals, 4 projectors, 1534 radial grid points, with lMax = 1
  Transforming local potential to a uniform radial grid of dG=0.02 with 1502 points.
  Transforming nonlocal projectors to a uniform radial grid of dG=0.02 with 432 points.
    2S    l: 0   occupation:  2.0   eigenvalue: -0.347027
    2P    l: 1   occupation:  1.0   eigenvalue: -0.132548
  Transforming atomic orbitals to a uniform radial grid of dG=0.02 with 432 points.
  Core radius for overlap checks: 1.60 bohrs.
  Reading pulay file /home/gridsan/aligho/DFT/build-Nov24/pseudopotentials/SG15/B_ONCV_PBE.pulay ... using dE_dnG = -3.748568e-04 computed for Ecut = 20.

Initialized 3 species with 8 total atoms.

Folded 1 k-points by 12x12x1 to 144 k-points.

---------- Setting up k-points, bands, fillings ----------
Adding inversion symmetry to k-mesh for non-inversion-symmetric unit cell.
Reduced to 19 k-points under symmetry. 
Computing the number of bands and number of electrons
Calculating initial fillings.
nElectrons:  33.000000   nBands: 32   nStates: 38

----- Setting up reduced wavefunction bases (one per k-point) -----
average nbasis = 12955.938 , ideal nbasis = 12955.957

---------- Setting up coulomb interaction ----------
Initialized slab truncation along lattice direction 001

---------- Setting up 2D ewald sum ----------
Optimum gaussian width for ewald sums = 5.194429 bohr.
Real space sums over 289 unit cells with max indices [  8  8  0  ]
Reciprocal space sums over 81 terms with max indices [  4  4  0  ]

---------- Allocating electronic variables ----------
Initializing wave functions:  linear combination of atomic orbitals
C pseudo-atom occupations:   s ( 2 )  p ( 2 )
N pseudo-atom occupations:   s ( 2 )  p ( 3 )
B pseudo-atom occupations:   s ( 2 )  p ( 1 )
[d-16-7-1:13827] 37 more processes have sent help message help-mpi-common-cuda.txt / dlopen failed
[d-16-7-1:13827] Set MCA parameter "orte_base_help_aggregate" to 0 to see all help / error messages
[d-16-7-1:13827] 37 more processes have sent help message help-mpi-btl-openib-cpc-base.txt / no cpcs for port
	FillingsUpdate:  mu: -0.182344319  nElectrons: 33.000000  magneticMoment: [ Abs: 0.88318  Tot: +0.86000 ]
LCAOMinimize: Iter:   0  F: -53.3599266624587827  |grad|_K:  5.272e-03  alpha:  1.000e+00
	FillingsUpdate:  mu: -0.184478244  nElectrons: 33.000000  magneticMoment: [ Abs: 0.88788  Tot: +0.86000 ]
LCAOMinimize: Iter:   1  F: -53.5646100473476423  |grad|_K:  9.139e-04  alpha:  4.278e-01  linmin:  3.151e-01  cgtest: -7.857e-01  t[s]:      6.89
	FillingsUpdate:  mu: -0.179697757  nElectrons: 33.000000  magneticMoment: [ Abs: 0.89008  Tot: +0.86000 ]
LCAOMinimize: Iter:   2  F: -53.5662111335593991  |grad|_K:  7.421e-04  alpha:  2.524e-01  linmin:  6.743e-04  cgtest:  8.613e-01  t[s]:      8.93
LCAOMinimize: Encountered beta<0, resetting CG.
	FillingsUpdate:  mu: -0.179230874  nElectrons: 33.000000  magneticMoment: [ Abs: 0.89260  Tot: +0.86000 ]
LCAOMinimize: Iter:   3  F: -53.5705173692712222  |grad|_K:  9.326e-05  alpha:  3.816e-01  linmin:  7.658e-02  cgtest: -1.763e-01  t[s]:     10.95
	FillingsUpdate:  mu: -0.180033757  nElectrons: 33.000000  magneticMoment: [ Abs: 0.89518  Tot: +0.86000 ]
LCAOMinimize: Iter:   4  F: -53.5705829452461657  |grad|_K:  2.569e-05  alpha:  3.867e-01  linmin:  2.475e-03  cgtest:  2.040e-01  t[s]:     12.96
	FillingsUpdate:  mu: -0.180041657  nElectrons: 33.000000  magneticMoment: [ Abs: 0.89784  Tot: +0.86000 ]
LCAOMinimize: Iter:   5  F: -53.5705908597366331  |grad|_K:  1.447e-05  alpha:  5.796e-01  linmin: -7.733e-04  cgtest:  3.104e-03  t[s]:     14.98
	FillingsUpdate:  mu: -0.179919220  nElectrons: 33.000000  magneticMoment: [ Abs: 0.90088  Tot: +0.86000 ]
LCAOMinimize: Iter:   6  F: -53.5705940322189562  |grad|_K:  6.446e-06  alpha:  7.310e-01  linmin: -1.350e-03  cgtest: -2.204e-03  t[s]:     16.99
	FillingsUpdate:  mu: -0.179963139  nElectrons: 33.000000  magneticMoment: [ Abs: 0.90160  Tot: +0.86000 ]
LCAOMinimize: Iter:   7  F: -53.5705944316349942  |grad|_K:  1.154e-06  alpha:  4.637e-01  linmin:  3.795e-05  cgtest: -1.283e-02  t[s]:     19.01
	FillingsUpdate:  mu: -0.179974906  nElectrons: 33.000000  magneticMoment: [ Abs: 0.90178  Tot: +0.86000 ]
LCAOMinimize: Iter:   8  F: -53.5705944518574952  |grad|_K:  4.725e-07  alpha:  7.303e-01  linmin: -3.591e-03  cgtest:  1.204e-02  t[s]:     21.02
LCAOMinimize: Converged (|Delta F|<1.000000e-06 for 2 iters).


---- Citations for features of the code used in this run ----

   Software package:
      R. Sundararaman, K. Letchworth-Weaver, K.A. Schwarz, D. Gunceler, Y. Ozhabes and T.A. Arias, 'JDFTx: software for joint density-functional theory', SoftwareX 6, 278 (2017)

   gga-PBE exchange-correlation functional:
      J.P. Perdew, K. Burke and M. Ernzerhof, Phys. Rev. Lett. 77, 3865 (1996)

   Pseudopotentials:
      M Schlipf and F Gygi, Comput. Phys. Commun. 196, 36 (2015)

   Truncated Coulomb potentials:
      R. Sundararaman and T.A. Arias, Phys. Rev. B 87, 165122 (2013)

This list may not be complete. Please suggest additional citations or
report any other bugs at https://github.com/shankar1729/jdftx/issues

Initialization completed successfully at t[s]:     21.22


-------- Electronic minimization -----------
Will mix electronic density at each iteration.
	FillingsUpdate:  mu: -0.179974906  nElectrons: 33.000000  magneticMoment: [ Abs: 0.90178  Tot: +0.86000 ]
	FillingsUpdate:  mu: -0.193933854  nElectrons: 33.000000  magneticMoment: [ Abs: 0.90178  Tot: +0.86000 ]
SCF: Cycle:  0   F: -54.000835222443868   dF: -4.302e-01   |Residual|: 2.320e-01   |deigs|: 1.089e-01  t[s]:     25.91
	FillingsUpdate:  mu: -0.172308832  nElectrons: 33.000000  magneticMoment: [ Abs: 0.93579  Tot: +0.86000 ]
SCF: Cycle:  1   F: -54.020678704444457   dF: -1.984e-02   |Residual|: 1.294e-01   |deigs|: 2.701e-02  t[s]:     29.32
	FillingsUpdate:  mu: -0.142684897  nElectrons: 33.000000  magneticMoment: [ Abs: 0.95621  Tot: +0.86000 ]
SCF: Cycle:  2   F: -54.033293265334798   dF: -1.261e-02   |Residual|: 2.843e-02   |deigs|: 3.110e-02  t[s]:     32.77
	FillingsUpdate:  mu: -0.139425574  nElectrons: 33.000000  magneticMoment: [ Abs: 0.95949  Tot: +0.86000 ]
SCF: Cycle:  3   F: -54.033677261162971   dF: -3.840e-04   |Residual|: 1.627e-02   |deigs|: 8.687e-03  t[s]:     36.26
	FillingsUpdate:  mu: -0.129154429  nElectrons: 33.000000  magneticMoment: [ Abs: 0.94256  Tot: +0.86000 ]
SCF: Cycle:  4   F: -54.034260046155602   dF: -5.828e-04   |Residual|: 8.551e-03   |deigs|: 9.693e-03  t[s]:     39.78
	FillingsUpdate:  mu: -0.123430264  nElectrons: 33.000000  magneticMoment: [ Abs: 0.94714  Tot: +0.86000 ]
SCF: Cycle:  5   F: -54.034478076066620   dF: -2.180e-04   |Residual|: 6.673e-03   |deigs|: 5.403e-03  t[s]:     43.32
	FillingsUpdate:  mu: -0.117441849  nElectrons: 33.000000  magneticMoment: [ Abs: 0.94703  Tot: +0.86000 ]
SCF: Cycle:  6   F: -54.034546115361913   dF: -6.804e-05   |Residual|: 4.388e-03   |deigs|: 5.520e-03  t[s]:     46.90
	FillingsUpdate:  mu: -0.112420518  nElectrons: 33.000000  magneticMoment: [ Abs: 0.94537  Tot: +0.86000 ]
SCF: Cycle:  7   F: -54.034541590193534   dF: +4.525e-06   |Residual|: 3.343e-03   |deigs|: 6.219e-03  t[s]:     50.51
	FillingsUpdate:  mu: -0.108222131  nElectrons: 33.000000  magneticMoment: [ Abs: 0.94618  Tot: +0.86000 ]
SCF: Cycle:  8   F: -54.034561402096259   dF: -1.981e-05   |Residual|: 2.917e-03   |deigs|: 4.324e-03  t[s]:     54.13
	FillingsUpdate:  mu: -0.104929833  nElectrons: 33.000000  magneticMoment: [ Abs: 0.94277  Tot: +0.86000 ]
SCF: Cycle:  9   F: -54.034583663501309   dF: -2.226e-05   |Residual|: 2.082e-03   |deigs|: 3.527e-03  t[s]:     57.80
	FillingsUpdate:  mu: -0.102654519  nElectrons: 33.000000  magneticMoment: [ Abs: 0.94309  Tot: +0.86000 ]
SCF: Cycle: 10   F: -54.034597511610357   dF: -1.385e-05   |Residual|: 1.855e-03   |deigs|: 2.388e-03  t[s]:     61.49
	FillingsUpdate:  mu: -0.099907971  nElectrons: 33.000000  magneticMoment: [ Abs: 0.94470  Tot: +0.86000 ]
SCF: Cycle: 11   F: -54.034606742403561   dF: -9.231e-06   |Residual|: 1.464e-03   |deigs|: 2.685e-03  t[s]:     65.20
	FillingsUpdate:  mu: -0.097283495  nElectrons: 33.000000  magneticMoment: [ Abs: 0.94427  Tot: +0.86000 ]
SCF: Cycle: 12   F: -54.034611316928952   dF: -4.575e-06   |Residual|: 1.326e-03   |deigs|: 2.478e-03  t[s]:     68.88
	FillingsUpdate:  mu: -0.094236156  nElectrons: 33.000000  magneticMoment: [ Abs: 0.94400  Tot: +0.86000 ]
SCF: Cycle: 13   F: -54.034613571761973   dF: -2.255e-06   |Residual|: 1.189e-03   |deigs|: 2.811e-03  t[s]:     72.56
	FillingsUpdate:  mu: -0.090492062  nElectrons: 33.000000  magneticMoment: [ Abs: 0.94275  Tot: +0.86000 ]
SCF: Cycle: 14   F: -54.034613741683309   dF: -1.699e-07   |Residual|: 1.101e-03   |deigs|: 3.472e-03  t[s]:     76.23
	FillingsUpdate:  mu: -0.086759008  nElectrons: 33.000000  magneticMoment: [ Abs: 0.94327  Tot: +0.86000 ]
SCF: Cycle: 15   F: -54.034613962178227   dF: -2.205e-07   |Residual|: 1.032e-03   |deigs|: 3.320e-03  t[s]:     79.93
	FillingsUpdate:  mu: -0.083291097  nElectrons: 33.000000  magneticMoment: [ Abs: 0.94350  Tot: +0.86000 ]
SCF: Cycle: 16   F: -54.034614960054434   dF: -9.979e-07   |Residual|: 9.134e-04   |deigs|: 3.154e-03  t[s]:     83.61
	FillingsUpdate:  mu: -0.080400490  nElectrons: 33.000000  magneticMoment: [ Abs: 0.94356  Tot: +0.86000 ]
SCF: Cycle: 17   F: -54.034616954359308   dF: -1.994e-06   |Residual|: 6.772e-04   |deigs|: 2.627e-03  t[s]:     87.28
	FillingsUpdate:  mu: -0.078467877  nElectrons: 33.000000  magneticMoment: [ Abs: 0.94313  Tot: +0.86000 ]
SCF: Cycle: 18   F: -54.034618824513934   dF: -1.870e-06   |Residual|: 4.145e-04   |deigs|: 1.693e-03  t[s]:     90.95
	FillingsUpdate:  mu: -0.077631705  nElectrons: 33.000000  magneticMoment: [ Abs: 0.94286  Tot: +0.86000 ]
SCF: Cycle: 19   F: -54.034619424780793   dF: -6.003e-07   |Residual|: 2.373e-04   |deigs|: 8.460e-04  t[s]:     94.61
	FillingsUpdate:  mu: -0.077215312  nElectrons: 33.000000  magneticMoment: [ Abs: 0.94280  Tot: +0.86000 ]
SCF: Cycle: 20   F: -54.034619623793255   dF: -1.990e-07   |Residual|: 1.317e-04   |deigs|: 6.449e-04  t[s]:     98.27
	FillingsUpdate:  mu: -0.077032861  nElectrons: 33.000000  magneticMoment: [ Abs: 0.94280  Tot: +0.86000 ]
SCF: Cycle: 21   F: -54.034619668528101   dF: -4.473e-08   |Residual|: 7.156e-05   |deigs|: 3.924e-04  t[s]:    101.92
	FillingsUpdate:  mu: -0.076964426  nElectrons: 33.000000  magneticMoment: [ Abs: 0.94279  Tot: +0.86000 ]
SCF: Cycle: 22   F: -54.034619682253044   dF: -1.372e-08   |Residual|: 3.090e-05   |deigs|: 2.983e-04  t[s]:    105.59
	FillingsUpdate:  mu: -0.076940960  nElectrons: 33.000000  magneticMoment: [ Abs: 0.94278  Tot: +0.86000 ]
SCF: Cycle: 23   F: -54.034619689935276   dF: -7.682e-09   |Residual|: 1.261e-05   |deigs|: 3.230e-04  t[s]:    109.26
	FillingsUpdate:  mu: -0.076936824  nElectrons: 33.000000  magneticMoment: [ Abs: 0.94277  Tot: +0.86000 ]
SCF: Cycle: 24   F: -54.034619692042426   dF: -2.107e-09   |Residual|: 7.531e-06   |deigs|: 4.021e-04  t[s]:    112.96
SCF: Converged (|Delta E|<1.000000e-08 for 2 iters).


# Ionic positions in lattice coordinates:
ion C  -0.000000000000000   0.000000000000000   0.000000000000000 1
ion N   0.164313074529992   0.328626149059985   0.000000000000000 1
ion N   0.164313074529992   0.835686925470008   0.000000000000000 1
ion N   0.666666666666667   0.333333333333333   0.000000000000000 1
ion N   0.671373850940015   0.835686925470008   0.000000000000000 1
ion B  -0.001576660817548   0.499211669591226   0.000000000000000 1
ion B   0.500788330408774   0.001576660817548   0.000000000000000 1
ion B   0.500788330408774   0.499211669591226   0.000000000000000 1

# Forces in Lattice coordinates:
force C   0.000000000000000   0.000000000000000   0.000000000000000 1
force N  -0.000000000000000  -0.012141904312869   0.000000000000000 1
force N  -0.012141904312871   0.012141904312867   0.000000000000000 1
force N   0.000000000000000  -0.000000000000000   0.000000000000000 1
force N   0.012141904312871   0.000000000000000   0.000000000000000 1
force B   0.004883028165457   0.000000000000000   0.000000000000000 1
force B   0.000000000000000  -0.004883028165457  -0.000000000000000 1
force B  -0.004883028165457   0.004883028165457  -0.000000000000000 1

# Energy components:
   Eewald =      -85.5148968124686775
       EH =      -43.4829791312194303
     Eloc =       54.0722086336840846
      Enl =       -2.2805231456445485
   Epulay =       -0.0000008322926719
      Exc =      -15.3510631978787337
       KE =       38.5226353345555665
-------------------------------------
     Etot =      -54.0346191512644154
       TS =        0.0000005407780121
-------------------------------------
        F =      -54.0346196920424262

IonicMinimize: Iter:   0  F: -54.034619692042426  |grad|_K:  5.710e-04  t[s]:    113.29
IonicMinimize: None of the convergence criteria satisfied after 0 iterations.

#--- Lowdin population analysis ---
# oxidation-state C +0.274
# magnetic-moments C +0.476
# oxidation-state N -0.263 -0.263 -0.383 -0.263
# magnetic-moments N +0.000 +0.000 +0.026 +0.000
# oxidation-state B +0.405 +0.405 +0.405
# magnetic-moments B +0.113 +0.113 +0.113


Dumping 'BN22BC-0.86.fillings' ... done
Dumping 'BN22BC-0.86.wfns' ... done
Dumping 'BN22BC-0.86.n_up' ... done
Dumping 'BN22BC-0.86.n_dn' ... done
Dumping 'BN22BC-0.86.eigenvals' ... done
End date and time: Sun Jan 30 23:14:18 2022  (Duration: 0-0:01:56.52)
Done!
