magnetization is -0.34
--------------------------------------------------------------------------
The library attempted to open the following supporting CUDA libraries,
but each of them failed.  CUDA-aware support is disabled.
libcuda.so.1: cannot open shared object file: No such file or directory
libcuda.dylib: cannot open shared object file: No such file or directory
/usr/lib64/libcuda.so.1: cannot open shared object file: No such file or directory
/usr/lib64/libcuda.dylib: cannot open shared object file: No such file or directory
If you are not interested in CUDA-aware support, then run with
--mca opal_warn_on_missing_libcuda 0 to suppress this message.  If you are interested
in CUDA-aware support, then try setting LD_LIBRARY_PATH to the location
of libcuda.so.1 to get passed this issue.
--------------------------------------------------------------------------
--------------------------------------------------------------------------
No OpenFabrics connection schemes reported that they were able to be
used on a specific port.  As such, the openib BTL (OpenFabrics
support) will be disabled for this port.

  Local host:           d-6-5-1
  Local device:         mlx5_1
  Local port:           1
  CPCs attempted:       rdmacm, udcm
--------------------------------------------------------------------------

*************** JDFTx 1.6.0 (git hash 42ebbcc2) ***************

Start date and time: Sun Jan 30 23:07:14 2022
Executable jdftx with command-line: -i BN22BC.in
Running on hosts (process indices):  d-6-5-1 (0-37)
Divided in process groups (process indices):  0 (0)  1 (1)  2 (2)  3 (3)  4 (4)  5 (5)  6 (6)  7 (7)  8 (8)  9 (9)  10 (10)  11 (11)  12 (12)  13 (13)  14 (14)  15 (15)  16 (16)  17 (17)  18 (18)  19 (19)  20 (20)  21 (21)  22 (22)  23 (23)  24 (24)  25 (25)  26 (26)  27 (27)  28 (28)  29 (29)  30 (30)  31 (31)  32 (32)  33 (33)  34 (34)  35 (35)  36 (36)  37 (37)
Resource initialization completed at t[s]:      0.00
Run totals: 38 processes, 48 threads, 0 GPUs


Input parsed successfully to the following command list (including defaults):

basis kpoint-dependent
coords-type Lattice
core-overlap-check vector
coulomb-interaction Slab 001
davidson-band-ratio 1.1
dump End State ElecDensity BandEigs
dump-name BN22BC--0.34.$VAR
elec-cutoff 20
elec-eigen-algo Davidson
elec-ex-corr gga-PBE
elec-initial-magnetization -0.340000 yes
elec-smearing Fermi 1e-05
electronic-minimize  \
	dirUpdateScheme      FletcherReeves \
	linminMethod         DirUpdateRecommended \
	nIterations          100 \
	history              15 \
	knormThreshold       0 \
	energyDiffThreshold  1e-08 \
	nEnergyDiff          2 \
	alphaTstart          1 \
	alphaTmin            1e-10 \
	updateTestStepSize   yes \
	alphaTreduceFactor   0.1 \
	alphaTincreaseFactor 3 \
	nAlphaAdjustMax      3 \
	wolfeEnergy          0.0001 \
	wolfeGradient        0.9 \
	fdTest               no
electronic-scf  \
	nIterations	1000 \
	energyDiffThreshold	1e-08 \
	residualThreshold	1e-07 \
	mixFraction	0.5 \
	qMetric	0.8 \
	history	10 \
	nEigSteps	2 \
	eigDiffThreshold	1e-08 \
	mixedVariable	Density \
	qKerker	0.8 \
	qKappa	-1 \
	verbose	no \
	mixFractionMag	1.5
exchange-regularization WignerSeitzTruncated
fluid None
fluid-ex-corr (null) lda-PZ
fluid-gummel-loop 10 1.000000e-05
fluid-minimize  \
	dirUpdateScheme      PolakRibiere \
	linminMethod         DirUpdateRecommended \
	nIterations          100 \
	history              15 \
	knormThreshold       0 \
	energyDiffThreshold  0 \
	nEnergyDiff          2 \
	alphaTstart          1 \
	alphaTmin            1e-10 \
	updateTestStepSize   yes \
	alphaTreduceFactor   0.1 \
	alphaTincreaseFactor 3 \
	nAlphaAdjustMax      3 \
	wolfeEnergy          0.0001 \
	wolfeGradient        0.9 \
	fdTest               no
fluid-solvent H2O 55.338 ScalarEOS \
	epsBulk 78.4 \
	pMol 0.92466 \
	epsInf 1.77 \
	Pvap 1.06736e-10 \
	sigmaBulk 4.62e-05 \
	Rvdw 2.61727 \
	Res 1.42 \
	tauNuc 343133 \
	poleEl 15 7 1
forces-output-coords Positions
ion C   0.000000000000000  -0.000000000000000   0.000000000000000 1
ion N   0.164313074529992   0.328626149059985   0.000000000000000 1
ion N   0.164313074529992   0.835686925470008   0.000000000000000 1
ion N   0.666666666666667   0.333333333333333   0.000000000000000 1
ion N   0.671373850940015   0.835686925470008   0.000000000000000 1
ion B  -0.001576660817548   0.499211669591226   0.000000000000000 1
ion B   0.500788330408774   0.001576660817548   0.000000000000000 1
ion B   0.500788330408774   0.499211669591226   0.000000000000000 1
ion-species SG15/$ID_ONCV_PBE.upf
ion-width 0
ionic-minimize  \
	dirUpdateScheme      L-BFGS \
	linminMethod         DirUpdateRecommended \
	nIterations          0 \
	history              15 \
	knormThreshold       0.0001 \
	energyDiffThreshold  1e-06 \
	nEnergyDiff          2 \
	alphaTstart          1 \
	alphaTmin            1e-10 \
	updateTestStepSize   yes \
	alphaTreduceFactor   0.1 \
	alphaTincreaseFactor 3 \
	nAlphaAdjustMax      3 \
	wolfeEnergy          0.0001 \
	wolfeGradient        0.9 \
	fdTest               no
kpoint   0.000000000000   0.000000000000   0.000000000000  1.00000000000000
kpoint-folding 12 12 1 
latt-move-scale 1 1 1
latt-scale 1 1 1 
lattice  \
	   9.356640512437433   -4.678320256218713    0.000000000000000  \
	  -0.000000000000000    8.103088377849462    0.000000000000000  \
	   0.000000000000000    0.000000000000000   40.000000000000000 
lattice-minimize  \
	dirUpdateScheme      L-BFGS \
	linminMethod         DirUpdateRecommended \
	nIterations          0 \
	history              15 \
	knormThreshold       0 \
	energyDiffThreshold  1e-06 \
	nEnergyDiff          2 \
	alphaTstart          1 \
	alphaTmin            1e-10 \
	updateTestStepSize   yes \
	alphaTreduceFactor   0.1 \
	alphaTincreaseFactor 3 \
	nAlphaAdjustMax      3 \
	wolfeEnergy          0.0001 \
	wolfeGradient        0.9 \
	fdTest               no
lcao-params -1 1e-06 1e-05
pcm-variant GLSSA13
spintype z-spin
subspace-rotation-factor 1 yes
symmetries automatic
symmetry-threshold 0.0001



---------- Setting up symmetries ----------

Found 24 point-group symmetries of the bravais lattice
Found 12 space-group symmetries with basis
Applied RMS atom displacement 3.80214e-15 bohrs to make symmetries exact.

---------- Initializing the Grid ----------
R = 
[      9.35664     -4.67832            0  ]
[            0      8.10309            0  ]
[            0            0           40  ]
unit cell volume = 3032.71
G =
[   0.671522   0.387703         -0  ]
[          0   0.775406         -0  ]
[         -0         -0    0.15708  ]
Minimum fftbox size, Smin = [  40  40  164  ]
Chosen fftbox size, S = [  40  40  168  ]

---------- Exchange Correlation functional ----------
Initalized PBE GGA exchange.
Initalized PBE GGA correlation.

---------- Setting up pseudopotentials ----------
Width of ionic core gaussian charges (only for fluid interactions / plotting) set to 0

Reading pseudopotential file '/home/gridsan/aligho/DFT/build-Nov24/pseudopotentials/SG15/C_ONCV_PBE.upf':
  'C' pseudopotential, 'PBE' functional
  Generated using ONCVPSP code by D. R. Hamann
  Author: Martin Schlipf and Francois Gygi  Date: 150915.
  4 valence electrons, 2 orbitals, 4 projectors, 1248 radial grid points, with lMax = 1
  Transforming local potential to a uniform radial grid of dG=0.02 with 1502 points.
  Transforming nonlocal projectors to a uniform radial grid of dG=0.02 with 432 points.
    2S    l: 0   occupation:  2.0   eigenvalue: -0.505335
    2P    l: 1   occupation:  2.0   eigenvalue: -0.194238
  Transforming atomic orbitals to a uniform radial grid of dG=0.02 with 432 points.
  Core radius for overlap checks: 1.23 bohrs.
  Reading pulay file /home/gridsan/aligho/DFT/build-Nov24/pseudopotentials/SG15/C_ONCV_PBE.pulay ... using dE_dnG = -9.239532e-03 computed for Ecut = 20.

Reading pseudopotential file '/home/gridsan/aligho/DFT/build-Nov24/pseudopotentials/SG15/N_ONCV_PBE.upf':
  'N' pseudopotential, 'PBE' functional
  Generated using ONCVPSP code by D. R. Hamann
  Author: Martin Schlipf and Francois Gygi  Date: 150915.
  5 valence electrons, 2 orbitals, 4 projectors, 1058 radial grid points, with lMax = 1
  Transforming local potential to a uniform radial grid of dG=0.02 with 1502 points.
  Transforming nonlocal projectors to a uniform radial grid of dG=0.02 with 432 points.
    2S    l: 0   occupation:  2.0   eigenvalue: -0.682907
    2P    l: 1   occupation:  3.0   eigenvalue: -0.260548
  Transforming atomic orbitals to a uniform radial grid of dG=0.02 with 432 points.
  Core radius for overlap checks: 1.35 bohrs.
  Reading pulay file /home/gridsan/aligho/DFT/build-Nov24/pseudopotentials/SG15/N_ONCV_PBE.pulay ... using dE_dnG = -2.956256e-02 computed for Ecut = 20.

Reading pseudopotential file '/home/gridsan/aligho/DFT/build-Nov24/pseudopotentials/SG15/B_ONCV_PBE.upf':
  'B' pseudopotential, 'PBE' functional
  Generated using ONCVPSP code by D. R. Hamann
  Author: Martin Schlipf and Francois Gygi  Date: 150915.
  3 valence electrons, 2 orbitals, 4 projectors, 1534 radial grid points, with lMax = 1
  Transforming local potential to a uniform radial grid of dG=0.02 with 1502 points.
  Transforming nonlocal projectors to a uniform radial grid of dG=0.02 with 432 points.
    2S    l: 0   occupation:  2.0   eigenvalue: -0.347027
    2P    l: 1   occupation:  1.0   eigenvalue: -0.132548
  Transforming atomic orbitals to a uniform radial grid of dG=0.02 with 432 points.
  Core radius for overlap checks: 1.60 bohrs.
  Reading pulay file /home/gridsan/aligho/DFT/build-Nov24/pseudopotentials/SG15/B_ONCV_PBE.pulay ... using dE_dnG = -3.748568e-04 computed for Ecut = 20.

Initialized 3 species with 8 total atoms.

Folded 1 k-points by 12x12x1 to 144 k-points.

---------- Setting up k-points, bands, fillings ----------
Adding inversion symmetry to k-mesh for non-inversion-symmetric unit cell.
Reduced to 19 k-points under symmetry. 
Computing the number of bands and number of electrons
Calculating initial fillings.
nElectrons:  33.000000   nBands: 32   nStates: 38

----- Setting up reduced wavefunction bases (one per k-point) -----
average nbasis = 12955.938 , ideal nbasis = 12955.957

---------- Setting up coulomb interaction ----------
Initialized slab truncation along lattice direction 001

---------- Setting up 2D ewald sum ----------
Optimum gaussian width for ewald sums = 5.194429 bohr.
Real space sums over 289 unit cells with max indices [  8  8  0  ]
Reciprocal space sums over 81 terms with max indices [  4  4  0  ]

---------- Allocating electronic variables ----------
Initializing wave functions:  linear combination of atomic orbitals
C pseudo-atom occupations:   s ( 2 )  p ( 2 )
N pseudo-atom occupations:   s ( 2 )  p ( 3 )
B pseudo-atom occupations:   s ( 2 )  p ( 1 )
[d-6-5-1:69843] 37 more processes have sent help message help-mpi-common-cuda.txt / dlopen failed
[d-6-5-1:69843] Set MCA parameter "orte_base_help_aggregate" to 0 to see all help / error messages
[d-6-5-1:69843] 37 more processes have sent help message help-mpi-btl-openib-cpc-base.txt / no cpcs for port
	FillingsUpdate:  mu: -0.182131015  nElectrons: 33.000000  magneticMoment: [ Abs: 0.34891  Tot: -0.34000 ]
LCAOMinimize: Iter:   0  F: -53.3390113281361380  |grad|_K:  5.488e-03  alpha:  1.000e+00
	FillingsUpdate:  mu: -0.186105534  nElectrons: 33.000000  magneticMoment: [ Abs: 0.34991  Tot: -0.34000 ]
LCAOMinimize: Iter:   1  F: -53.5603540527472575  |grad|_K:  9.823e-04  alpha:  4.242e-01  linmin:  3.532e-01  cgtest: -8.186e-01  t[s]:      6.85
	FillingsUpdate:  mu: -0.180933766  nElectrons: 33.000000  magneticMoment: [ Abs: 0.35058  Tot: -0.34000 ]
LCAOMinimize: Iter:   2  F: -53.5618387320244267  |grad|_K:  8.351e-04  alpha:  2.253e-01  linmin: -6.655e-03  cgtest:  8.980e-01  t[s]:      8.84
LCAOMinimize: Encountered beta<0, resetting CG.
	FillingsUpdate:  mu: -0.180259613  nElectrons: 33.000000  magneticMoment: [ Abs: 0.35154  Tot: -0.34000 ]
LCAOMinimize: Iter:   3  F: -53.5672101386839401  |grad|_K:  9.817e-05  alpha:  3.775e-01  linmin:  9.822e-02  cgtest: -2.537e-01  t[s]:     10.85
	FillingsUpdate:  mu: -0.181263209  nElectrons: 33.000000  magneticMoment: [ Abs: 0.35244  Tot: -0.34000 ]
LCAOMinimize: Iter:   4  F: -53.5672770867344354  |grad|_K:  2.891e-05  alpha:  3.722e-01  linmin:  1.952e-03  cgtest:  3.463e-01  t[s]:     12.82
LCAOMinimize: Encountered beta<0, resetting CG.
	FillingsUpdate:  mu: -0.181359566  nElectrons: 33.000000  magneticMoment: [ Abs: 0.35309  Tot: -0.34000 ]
LCAOMinimize: Iter:   5  F: -53.5672838336808681  |grad|_K:  7.667e-06  alpha:  3.901e-01  linmin: -2.946e-04  cgtest:  1.709e-04  t[s]:     14.80
	FillingsUpdate:  mu: -0.181265887  nElectrons: 33.000000  magneticMoment: [ Abs: 0.35426  Tot: -0.34000 ]
LCAOMinimize: Iter:   6  F: -53.5672848686833802  |grad|_K:  4.569e-06  alpha:  8.504e-01  linmin: -3.304e-04  cgtest:  1.504e-03  t[s]:     16.82
	FillingsUpdate:  mu: -0.181294283  nElectrons: 33.000000  magneticMoment: [ Abs: 0.35481  Tot: -0.34000 ]
LCAOMinimize: Iter:   7  F: -53.5672851116414321  |grad|_K:  1.101e-06  alpha:  5.620e-01  linmin:  3.469e-05  cgtest: -3.701e-03  t[s]:     18.80
	FillingsUpdate:  mu: -0.181307109  nElectrons: 33.000000  magneticMoment: [ Abs: 0.35495  Tot: -0.34000 ]
LCAOMinimize: Iter:   8  F: -53.5672851324676387  |grad|_K:  2.975e-07  alpha:  8.282e-01  linmin: -2.319e-03  cgtest:  8.367e-03  t[s]:     20.78
LCAOMinimize: Converged (|Delta F|<1.000000e-06 for 2 iters).


---- Citations for features of the code used in this run ----

   Software package:
      R. Sundararaman, K. Letchworth-Weaver, K.A. Schwarz, D. Gunceler, Y. Ozhabes and T.A. Arias, 'JDFTx: software for joint density-functional theory', SoftwareX 6, 278 (2017)

   gga-PBE exchange-correlation functional:
      J.P. Perdew, K. Burke and M. Ernzerhof, Phys. Rev. Lett. 77, 3865 (1996)

   Pseudopotentials:
      M Schlipf and F Gygi, Comput. Phys. Commun. 196, 36 (2015)

   Truncated Coulomb potentials:
      R. Sundararaman and T.A. Arias, Phys. Rev. B 87, 165122 (2013)

This list may not be complete. Please suggest additional citations or
report any other bugs at https://github.com/shankar1729/jdftx/issues

Initialization completed successfully at t[s]:     20.98


-------- Electronic minimization -----------
Will mix electronic density at each iteration.
	FillingsUpdate:  mu: -0.181307109  nElectrons: 33.000000  magneticMoment: [ Abs: 0.35495  Tot: -0.34000 ]
	FillingsUpdate:  mu: -0.198269867  nElectrons: 33.000000  magneticMoment: [ Abs: 0.35495  Tot: -0.34000 ]
SCF: Cycle:  0   F: -53.997730526599071   dF: -4.304e-01   |Residual|: 2.313e-01   |deigs|: 1.091e-01  t[s]:     25.56
	FillingsUpdate:  mu: -0.176260068  nElectrons: 33.000000  magneticMoment: [ Abs: 0.36749  Tot: -0.34000 ]
SCF: Cycle:  1   F: -54.017932531025089   dF: -2.020e-02   |Residual|: 1.289e-01   |deigs|: 2.695e-02  t[s]:     28.93
	FillingsUpdate:  mu: -0.145322233  nElectrons: 33.000000  magneticMoment: [ Abs: 0.38184  Tot: -0.34000 ]
SCF: Cycle:  2   F: -54.030666313875706   dF: -1.273e-02   |Residual|: 2.853e-02   |deigs|: 3.126e-02  t[s]:     32.32
	FillingsUpdate:  mu: -0.141931261  nElectrons: 33.000000  magneticMoment: [ Abs: 0.38370  Tot: -0.34000 ]
SCF: Cycle:  3   F: -54.031007717439550   dF: -3.414e-04   |Residual|: 1.568e-02   |deigs|: 8.607e-03  t[s]:     35.73
	FillingsUpdate:  mu: -0.130160288  nElectrons: 33.000000  magneticMoment: [ Abs: 0.37137  Tot: -0.34000 ]
SCF: Cycle:  4   F: -54.031676808748969   dF: -6.691e-04   |Residual|: 8.203e-03   |deigs|: 1.094e-02  t[s]:     39.16
	FillingsUpdate:  mu: -0.125459286  nElectrons: 33.000000  magneticMoment: [ Abs: 0.37542  Tot: -0.34000 ]
SCF: Cycle:  5   F: -54.031830391776552   dF: -1.536e-04   |Residual|: 6.124e-03   |deigs|: 4.602e-03  t[s]:     42.63
	FillingsUpdate:  mu: -0.119070071  nElectrons: 33.000000  magneticMoment: [ Abs: 0.37544  Tot: -0.34000 ]
SCF: Cycle:  6   F: -54.031891037482026   dF: -6.065e-05   |Residual|: 4.055e-03   |deigs|: 5.993e-03  t[s]:     46.10
	FillingsUpdate:  mu: -0.114427292  nElectrons: 33.000000  magneticMoment: [ Abs: 0.37481  Tot: -0.34000 ]
SCF: Cycle:  7   F: -54.031885311491294   dF: +5.726e-06   |Residual|: 3.257e-03   |deigs|: 5.676e-03  t[s]:     49.63
	FillingsUpdate:  mu: -0.110077276  nElectrons: 33.000000  magneticMoment: [ Abs: 0.37549  Tot: -0.34000 ]
SCF: Cycle:  8   F: -54.031909079722404   dF: -2.377e-05   |Residual|: 2.684e-03   |deigs|: 4.505e-03  t[s]:     53.15
	FillingsUpdate:  mu: -0.107169752  nElectrons: 33.000000  magneticMoment: [ Abs: 0.37326  Tot: -0.34000 ]
SCF: Cycle:  9   F: -54.031928734965170   dF: -1.966e-05   |Residual|: 2.059e-03   |deigs|: 3.150e-03  t[s]:     56.74
	FillingsUpdate:  mu: -0.104724259  nElectrons: 33.000000  magneticMoment: [ Abs: 0.37425  Tot: -0.34000 ]
SCF: Cycle: 10   F: -54.031942364151831   dF: -1.363e-05   |Residual|: 1.762e-03   |deigs|: 2.540e-03  t[s]:     60.33
	FillingsUpdate:  mu: -0.101706309  nElectrons: 33.000000  magneticMoment: [ Abs: 0.37500  Tot: -0.34000 ]
SCF: Cycle: 11   F: -54.031951185405212   dF: -8.821e-06   |Residual|: 1.410e-03   |deigs|: 2.856e-03  t[s]:     63.92
	FillingsUpdate:  mu: -0.099022152  nElectrons: 33.000000  magneticMoment: [ Abs: 0.37396  Tot: -0.34000 ]
SCF: Cycle: 12   F: -54.031954962411447   dF: -3.777e-06   |Residual|: 1.281e-03   |deigs|: 2.481e-03  t[s]:     67.48
	FillingsUpdate:  mu: -0.095563335  nElectrons: 33.000000  magneticMoment: [ Abs: 0.37454  Tot: -0.34000 ]
SCF: Cycle: 13   F: -54.031956304024355   dF: -1.342e-06   |Residual|: 1.123e-03   |deigs|: 3.288e-03  t[s]:     71.06
	FillingsUpdate:  mu: -0.092287228  nElectrons: 33.000000  magneticMoment: [ Abs: 0.37349  Tot: -0.34000 ]
SCF: Cycle: 14   F: -54.031956212057914   dF: +9.197e-08   |Residual|: 1.093e-03   |deigs|: 2.935e-03  t[s]:     74.64
	FillingsUpdate:  mu: -0.088238831  nElectrons: 33.000000  magneticMoment: [ Abs: 0.37453  Tot: -0.34000 ]
SCF: Cycle: 15   F: -54.031955857953676   dF: +3.541e-07   |Residual|: 9.749e-04   |deigs|: 3.746e-03  t[s]:     78.21
	FillingsUpdate:  mu: -0.084337098  nElectrons: 33.000000  magneticMoment: [ Abs: 0.37438  Tot: -0.34000 ]
SCF: Cycle: 16   F: -54.031957342590324   dF: -1.485e-06   |Residual|: 7.685e-04   |deigs|: 3.688e-03  t[s]:     81.78
	FillingsUpdate:  mu: -0.081655812  nElectrons: 33.000000  magneticMoment: [ Abs: 0.37367  Tot: -0.34000 ]
SCF: Cycle: 17   F: -54.031960042982625   dF: -2.700e-06   |Residual|: 5.654e-04   |deigs|: 2.407e-03  t[s]:     85.35
	FillingsUpdate:  mu: -0.080464220  nElectrons: 33.000000  magneticMoment: [ Abs: 0.37325  Tot: -0.34000 ]
SCF: Cycle: 18   F: -54.031961718545617   dF: -1.676e-06   |Residual|: 3.527e-04   |deigs|: 1.107e-03  t[s]:     88.90
	FillingsUpdate:  mu: -0.080020681  nElectrons: 33.000000  magneticMoment: [ Abs: 0.37327  Tot: -0.34000 ]
SCF: Cycle: 19   F: -54.031962213954571   dF: -4.954e-07   |Residual|: 1.967e-04   |deigs|: 5.790e-04  t[s]:     92.48
	FillingsUpdate:  mu: -0.079867704  nElectrons: 33.000000  magneticMoment: [ Abs: 0.37302  Tot: -0.34000 ]
SCF: Cycle: 20   F: -54.031962310899004   dF: -9.694e-08   |Residual|: 1.004e-04   |deigs|: 4.164e-04  t[s]:     96.05
	FillingsUpdate:  mu: -0.079802967  nElectrons: 33.000000  magneticMoment: [ Abs: 0.37304  Tot: -0.34000 ]
SCF: Cycle: 21   F: -54.031962322222334   dF: -1.132e-08   |Residual|: 4.935e-05   |deigs|: 2.279e-04  t[s]:     99.62
	FillingsUpdate:  mu: -0.079775219  nElectrons: 33.000000  magneticMoment: [ Abs: 0.37298  Tot: -0.34000 ]
SCF: Cycle: 22   F: -54.031962326597792   dF: -4.375e-09   |Residual|: 2.672e-05   |deigs|: 1.904e-04  t[s]:    103.20
	FillingsUpdate:  mu: -0.079757309  nElectrons: 33.000000  magneticMoment: [ Abs: 0.37295  Tot: -0.34000 ]
SCF: Cycle: 23   F: -54.031962330452806   dF: -3.855e-09   |Residual|: 1.419e-05   |deigs|: 2.827e-04  t[s]:    106.77
SCF: Converged (|Delta E|<1.000000e-08 for 2 iters).


# Ionic positions in lattice coordinates:
ion C  -0.000000000000000   0.000000000000000   0.000000000000000 1
ion N   0.164313074529992   0.328626149059985   0.000000000000000 1
ion N   0.164313074529992   0.835686925470008   0.000000000000000 1
ion N   0.666666666666667   0.333333333333333   0.000000000000000 1
ion N   0.671373850940015   0.835686925470008   0.000000000000000 1
ion B  -0.001576660817548   0.499211669591226   0.000000000000000 1
ion B   0.500788330408774   0.001576660817548   0.000000000000000 1
ion B   0.500788330408774   0.499211669591226   0.000000000000000 1

# Forces in Lattice coordinates:
force C   0.000000000000000  -0.000000000000000   0.000000000000000 1
force N   0.000000000000000  -0.037479536922262   0.000000000000000 1
force N  -0.037479536922264   0.037479536922261   0.000000000000000 1
force N  -0.000000000000000   0.000000000000000   0.000000000000000 1
force N   0.037479536922263   0.000000000000000   0.000000000000000 1
force B   0.007287747745702   0.000000000000000   0.000000000000000 1
force B   0.000000000000000  -0.007287747745702   0.000000000000000 1
force B  -0.007287747745702   0.007287747745702  -0.000000000000000 1

# Energy components:
   Eewald =      -85.5148968124686775
       EH =      -43.5297122645629884
     Eloc =       54.1353767054916659
      Enl =       -2.2703906030902297
   Epulay =       -0.0000008322926719
      Exc =      -15.3364900557734050
       KE =       38.4841522445579685
-------------------------------------
     Etot =      -54.0319616181383608
       TS =        0.0000007123144427
-------------------------------------
        F =      -54.0319623304528065

IonicMinimize: Iter:   0  F: -54.031962330452806  |grad|_K:  1.666e-03  t[s]:    107.11
IonicMinimize: None of the convergence criteria satisfied after 0 iterations.

#--- Lowdin population analysis ---
# oxidation-state C +0.258
# magnetic-moments C -0.185
# oxidation-state N -0.255 -0.255 -0.381 -0.255
# magnetic-moments N +0.000 +0.000 -0.008 +0.000
# oxidation-state B +0.403 +0.403 +0.403
# magnetic-moments B -0.047 -0.047 -0.047


Dumping 'BN22BC--0.34.fillings' ... done
Dumping 'BN22BC--0.34.wfns' ... done
Dumping 'BN22BC--0.34.n_up' ... done
Dumping 'BN22BC--0.34.n_dn' ... done
Dumping 'BN22BC--0.34.eigenvals' ... done
End date and time: Sun Jan 30 23:09:03 2022  (Duration: 0-0:01:49.02)
Done!
