magnetization is 0.1
--------------------------------------------------------------------------
The library attempted to open the following supporting CUDA libraries,
but each of them failed.  CUDA-aware support is disabled.
libcuda.so.1: cannot open shared object file: No such file or directory
libcuda.dylib: cannot open shared object file: No such file or directory
/usr/lib64/libcuda.so.1: cannot open shared object file: No such file or directory
/usr/lib64/libcuda.dylib: cannot open shared object file: No such file or directory
If you are not interested in CUDA-aware support, then run with
--mca opal_warn_on_missing_libcuda 0 to suppress this message.  If you are interested
in CUDA-aware support, then try setting LD_LIBRARY_PATH to the location
of libcuda.so.1 to get passed this issue.
--------------------------------------------------------------------------
--------------------------------------------------------------------------
No OpenFabrics connection schemes reported that they were able to be
used on a specific port.  As such, the openib BTL (OpenFabrics
support) will be disabled for this port.

  Local host:           d-4-11-1
  Local device:         mlx5_1
  Local port:           1
  CPCs attempted:       rdmacm, udcm
--------------------------------------------------------------------------

*************** JDFTx 1.6.0 (git hash 42ebbcc2) ***************

Start date and time: Sun Jan 30 23:09:17 2022
Executable jdftx with command-line: -i BN22BC.in
Running on hosts (process indices):  d-4-11-1 (0-37)
Divided in process groups (process indices):  0 (0)  1 (1)  2 (2)  3 (3)  4 (4)  5 (5)  6 (6)  7 (7)  8 (8)  9 (9)  10 (10)  11 (11)  12 (12)  13 (13)  14 (14)  15 (15)  16 (16)  17 (17)  18 (18)  19 (19)  20 (20)  21 (21)  22 (22)  23 (23)  24 (24)  25 (25)  26 (26)  27 (27)  28 (28)  29 (29)  30 (30)  31 (31)  32 (32)  33 (33)  34 (34)  35 (35)  36 (36)  37 (37)
Resource initialization completed at t[s]:      0.00
Run totals: 38 processes, 48 threads, 0 GPUs


Input parsed successfully to the following command list (including defaults):

basis kpoint-dependent
coords-type Lattice
core-overlap-check vector
coulomb-interaction Slab 001
davidson-band-ratio 1.1
dump End State ElecDensity BandEigs
dump-name BN22BC-0.1.$VAR
elec-cutoff 20
elec-eigen-algo Davidson
elec-ex-corr gga-PBE
elec-initial-magnetization 0.100000 yes
elec-smearing Fermi 1e-05
electronic-minimize  \
	dirUpdateScheme      FletcherReeves \
	linminMethod         DirUpdateRecommended \
	nIterations          100 \
	history              15 \
	knormThreshold       0 \
	energyDiffThreshold  1e-08 \
	nEnergyDiff          2 \
	alphaTstart          1 \
	alphaTmin            1e-10 \
	updateTestStepSize   yes \
	alphaTreduceFactor   0.1 \
	alphaTincreaseFactor 3 \
	nAlphaAdjustMax      3 \
	wolfeEnergy          0.0001 \
	wolfeGradient        0.9 \
	fdTest               no
electronic-scf  \
	nIterations	1000 \
	energyDiffThreshold	1e-08 \
	residualThreshold	1e-07 \
	mixFraction	0.5 \
	qMetric	0.8 \
	history	10 \
	nEigSteps	2 \
	eigDiffThreshold	1e-08 \
	mixedVariable	Density \
	qKerker	0.8 \
	qKappa	-1 \
	verbose	no \
	mixFractionMag	1.5
exchange-regularization WignerSeitzTruncated
fluid None
fluid-ex-corr (null) lda-PZ
fluid-gummel-loop 10 1.000000e-05
fluid-minimize  \
	dirUpdateScheme      PolakRibiere \
	linminMethod         DirUpdateRecommended \
	nIterations          100 \
	history              15 \
	knormThreshold       0 \
	energyDiffThreshold  0 \
	nEnergyDiff          2 \
	alphaTstart          1 \
	alphaTmin            1e-10 \
	updateTestStepSize   yes \
	alphaTreduceFactor   0.1 \
	alphaTincreaseFactor 3 \
	nAlphaAdjustMax      3 \
	wolfeEnergy          0.0001 \
	wolfeGradient        0.9 \
	fdTest               no
fluid-solvent H2O 55.338 ScalarEOS \
	epsBulk 78.4 \
	pMol 0.92466 \
	epsInf 1.77 \
	Pvap 1.06736e-10 \
	sigmaBulk 4.62e-05 \
	Rvdw 2.61727 \
	Res 1.42 \
	tauNuc 343133 \
	poleEl 15 7 1
forces-output-coords Positions
ion C   0.000000000000000  -0.000000000000000   0.000000000000000 1
ion N   0.164313074529992   0.328626149059985   0.000000000000000 1
ion N   0.164313074529992   0.835686925470008   0.000000000000000 1
ion N   0.666666666666667   0.333333333333333   0.000000000000000 1
ion N   0.671373850940015   0.835686925470008   0.000000000000000 1
ion B  -0.001576660817548   0.499211669591226   0.000000000000000 1
ion B   0.500788330408774   0.001576660817548   0.000000000000000 1
ion B   0.500788330408774   0.499211669591226   0.000000000000000 1
ion-species SG15/$ID_ONCV_PBE.upf
ion-width 0
ionic-minimize  \
	dirUpdateScheme      L-BFGS \
	linminMethod         DirUpdateRecommended \
	nIterations          0 \
	history              15 \
	knormThreshold       0.0001 \
	energyDiffThreshold  1e-06 \
	nEnergyDiff          2 \
	alphaTstart          1 \
	alphaTmin            1e-10 \
	updateTestStepSize   yes \
	alphaTreduceFactor   0.1 \
	alphaTincreaseFactor 3 \
	nAlphaAdjustMax      3 \
	wolfeEnergy          0.0001 \
	wolfeGradient        0.9 \
	fdTest               no
kpoint   0.000000000000   0.000000000000   0.000000000000  1.00000000000000
kpoint-folding 12 12 1 
latt-move-scale 1 1 1
latt-scale 1 1 1 
lattice  \
	   9.356640512437433   -4.678320256218713    0.000000000000000  \
	  -0.000000000000000    8.103088377849462    0.000000000000000  \
	   0.000000000000000    0.000000000000000   40.000000000000000 
lattice-minimize  \
	dirUpdateScheme      L-BFGS \
	linminMethod         DirUpdateRecommended \
	nIterations          0 \
	history              15 \
	knormThreshold       0 \
	energyDiffThreshold  1e-06 \
	nEnergyDiff          2 \
	alphaTstart          1 \
	alphaTmin            1e-10 \
	updateTestStepSize   yes \
	alphaTreduceFactor   0.1 \
	alphaTincreaseFactor 3 \
	nAlphaAdjustMax      3 \
	wolfeEnergy          0.0001 \
	wolfeGradient        0.9 \
	fdTest               no
lcao-params -1 1e-06 1e-05
pcm-variant GLSSA13
spintype z-spin
subspace-rotation-factor 1 yes
symmetries automatic
symmetry-threshold 0.0001



---------- Setting up symmetries ----------

Found 24 point-group symmetries of the bravais lattice
Found 12 space-group symmetries with basis
Applied RMS atom displacement 3.80214e-15 bohrs to make symmetries exact.

---------- Initializing the Grid ----------
R = 
[      9.35664     -4.67832            0  ]
[            0      8.10309            0  ]
[            0            0           40  ]
unit cell volume = 3032.71
G =
[   0.671522   0.387703         -0  ]
[          0   0.775406         -0  ]
[         -0         -0    0.15708  ]
Minimum fftbox size, Smin = [  40  40  164  ]
Chosen fftbox size, S = [  40  40  168  ]

---------- Exchange Correlation functional ----------
Initalized PBE GGA exchange.
Initalized PBE GGA correlation.

---------- Setting up pseudopotentials ----------
Width of ionic core gaussian charges (only for fluid interactions / plotting) set to 0

Reading pseudopotential file '/home/gridsan/aligho/DFT/build-Nov24/pseudopotentials/SG15/C_ONCV_PBE.upf':
  'C' pseudopotential, 'PBE' functional
  Generated using ONCVPSP code by D. R. Hamann
  Author: Martin Schlipf and Francois Gygi  Date: 150915.
  4 valence electrons, 2 orbitals, 4 projectors, 1248 radial grid points, with lMax = 1
  Transforming local potential to a uniform radial grid of dG=0.02 with 1502 points.
  Transforming nonlocal projectors to a uniform radial grid of dG=0.02 with 432 points.
    2S    l: 0   occupation:  2.0   eigenvalue: -0.505335
    2P    l: 1   occupation:  2.0   eigenvalue: -0.194238
  Transforming atomic orbitals to a uniform radial grid of dG=0.02 with 432 points.
  Core radius for overlap checks: 1.23 bohrs.
  Reading pulay file /home/gridsan/aligho/DFT/build-Nov24/pseudopotentials/SG15/C_ONCV_PBE.pulay ... using dE_dnG = -9.239532e-03 computed for Ecut = 20.

Reading pseudopotential file '/home/gridsan/aligho/DFT/build-Nov24/pseudopotentials/SG15/N_ONCV_PBE.upf':
  'N' pseudopotential, 'PBE' functional
  Generated using ONCVPSP code by D. R. Hamann
  Author: Martin Schlipf and Francois Gygi  Date: 150915.
  5 valence electrons, 2 orbitals, 4 projectors, 1058 radial grid points, with lMax = 1
  Transforming local potential to a uniform radial grid of dG=0.02 with 1502 points.
  Transforming nonlocal projectors to a uniform radial grid of dG=0.02 with 432 points.
    2S    l: 0   occupation:  2.0   eigenvalue: -0.682907
    2P    l: 1   occupation:  3.0   eigenvalue: -0.260548
  Transforming atomic orbitals to a uniform radial grid of dG=0.02 with 432 points.
  Core radius for overlap checks: 1.35 bohrs.
  Reading pulay file /home/gridsan/aligho/DFT/build-Nov24/pseudopotentials/SG15/N_ONCV_PBE.pulay ... using dE_dnG = -2.956256e-02 computed for Ecut = 20.

Reading pseudopotential file '/home/gridsan/aligho/DFT/build-Nov24/pseudopotentials/SG15/B_ONCV_PBE.upf':
  'B' pseudopotential, 'PBE' functional
  Generated using ONCVPSP code by D. R. Hamann
  Author: Martin Schlipf and Francois Gygi  Date: 150915.
  3 valence electrons, 2 orbitals, 4 projectors, 1534 radial grid points, with lMax = 1
  Transforming local potential to a uniform radial grid of dG=0.02 with 1502 points.
  Transforming nonlocal projectors to a uniform radial grid of dG=0.02 with 432 points.
    2S    l: 0   occupation:  2.0   eigenvalue: -0.347027
    2P    l: 1   occupation:  1.0   eigenvalue: -0.132548
  Transforming atomic orbitals to a uniform radial grid of dG=0.02 with 432 points.
  Core radius for overlap checks: 1.60 bohrs.
  Reading pulay file /home/gridsan/aligho/DFT/build-Nov24/pseudopotentials/SG15/B_ONCV_PBE.pulay ... using dE_dnG = -3.748568e-04 computed for Ecut = 20.

Initialized 3 species with 8 total atoms.

Folded 1 k-points by 12x12x1 to 144 k-points.

---------- Setting up k-points, bands, fillings ----------
Adding inversion symmetry to k-mesh for non-inversion-symmetric unit cell.
Reduced to 19 k-points under symmetry. 
Computing the number of bands and number of electrons
Calculating initial fillings.
nElectrons:  33.000000   nBands: 32   nStates: 38

----- Setting up reduced wavefunction bases (one per k-point) -----
average nbasis = 12955.938 , ideal nbasis = 12955.957

---------- Setting up coulomb interaction ----------
Initialized slab truncation along lattice direction 001

---------- Setting up 2D ewald sum ----------
Optimum gaussian width for ewald sums = 5.194429 bohr.
Real space sums over 289 unit cells with max indices [  8  8  0  ]
Reciprocal space sums over 81 terms with max indices [  4  4  0  ]

---------- Allocating electronic variables ----------
Initializing wave functions:  linear combination of atomic orbitals
C pseudo-atom occupations:   s ( 2 )  p ( 2 )
N pseudo-atom occupations:   s ( 2 )  p ( 3 )
B pseudo-atom occupations:   s ( 2 )  p ( 1 )
[d-4-11-1:06570] 37 more processes have sent help message help-mpi-common-cuda.txt / dlopen failed
[d-4-11-1:06570] Set MCA parameter "orte_base_help_aggregate" to 0 to see all help / error messages
[d-4-11-1:06570] 37 more processes have sent help message help-mpi-btl-openib-cpc-base.txt / no cpcs for port
	FillingsUpdate:  mu: -0.182247101  nElectrons: 33.000000  magneticMoment: [ Abs: 0.10253  Tot: +0.10000 ]
LCAOMinimize: Iter:   0  F: -53.3328635320061650  |grad|_K:  5.545e-03  alpha:  1.000e+00
	FillingsUpdate:  mu: -0.188469184  nElectrons: 33.000000  magneticMoment: [ Abs: 0.10283  Tot: +0.10000 ]
LCAOMinimize: Iter:   1  F: -53.5590169706467520  |grad|_K:  1.033e-03  alpha:  4.233e-01  linmin:  3.597e-01  cgtest: -8.173e-01  t[s]:      6.91
	FillingsUpdate:  mu: -0.182707752  nElectrons: 33.000000  magneticMoment: [ Abs: 0.10304  Tot: +0.10000 ]
LCAOMinimize: Iter:   2  F: -53.5606240624937655  |grad|_K:  8.802e-04  alpha:  2.274e-01  linmin: -8.386e-04  cgtest:  8.947e-01  t[s]:      8.95
LCAOMinimize: Encountered beta<0, resetting CG.
	FillingsUpdate:  mu: -0.182096546  nElectrons: 33.000000  magneticMoment: [ Abs: 0.10335  Tot: +0.10000 ]
LCAOMinimize: Iter:   3  F: -53.5665770087344413  |grad|_K:  1.030e-04  alpha:  3.769e-01  linmin:  1.029e-01  cgtest: -2.726e-01  t[s]:     10.99
	FillingsUpdate:  mu: -0.183256028  nElectrons: 33.000000  magneticMoment: [ Abs: 0.10365  Tot: +0.10000 ]
LCAOMinimize: Iter:   4  F: -53.5666488078603962  |grad|_K:  3.123e-05  alpha:  3.678e-01  linmin:  1.820e-03  cgtest:  3.815e-01  t[s]:     13.02
LCAOMinimize: Encountered beta<0, resetting CG.
	FillingsUpdate:  mu: -0.183380672  nElectrons: 33.000000  magneticMoment: [ Abs: 0.10386  Tot: +0.10000 ]
LCAOMinimize: Iter:   5  F: -53.5666561221768944  |grad|_K:  4.825e-06  alpha:  3.625e-01  linmin: -4.752e-04  cgtest:  1.576e-05  t[s]:     15.04
	FillingsUpdate:  mu: -0.183316762  nElectrons: 33.000000  magneticMoment: [ Abs: 0.10413  Tot: +0.10000 ]
LCAOMinimize: Iter:   6  F: -53.5666563948140606  |grad|_K:  2.076e-06  alpha:  5.658e-01  linmin: -3.065e-04  cgtest:  9.754e-04  t[s]:     17.08
	FillingsUpdate:  mu: -0.183317850  nElectrons: 33.000000  magneticMoment: [ Abs: 0.10437  Tot: +0.10000 ]
LCAOMinimize: Iter:   7  F: -53.5666564522352857  |grad|_K:  5.164e-07  alpha:  6.441e-01  linmin:  8.672e-04  cgtest: -4.687e-03  t[s]:     19.10
LCAOMinimize: Converged (|Delta F|<1.000000e-06 for 2 iters).


---- Citations for features of the code used in this run ----

   Software package:
      R. Sundararaman, K. Letchworth-Weaver, K.A. Schwarz, D. Gunceler, Y. Ozhabes and T.A. Arias, 'JDFTx: software for joint density-functional theory', SoftwareX 6, 278 (2017)

   gga-PBE exchange-correlation functional:
      J.P. Perdew, K. Burke and M. Ernzerhof, Phys. Rev. Lett. 77, 3865 (1996)

   Pseudopotentials:
      M Schlipf and F Gygi, Comput. Phys. Commun. 196, 36 (2015)

   Truncated Coulomb potentials:
      R. Sundararaman and T.A. Arias, Phys. Rev. B 87, 165122 (2013)

This list may not be complete. Please suggest additional citations or
report any other bugs at https://github.com/shankar1729/jdftx/issues

Initialization completed successfully at t[s]:     19.30


-------- Electronic minimization -----------
Will mix electronic density at each iteration.
	FillingsUpdate:  mu: -0.183317850  nElectrons: 33.000000  magneticMoment: [ Abs: 0.10437  Tot: +0.10000 ]
	FillingsUpdate:  mu: -0.197906316  nElectrons: 33.000000  magneticMoment: [ Abs: 0.10437  Tot: +0.10000 ]
SCF: Cycle:  0   F: -53.996905066627029   dF: -4.302e-01   |Residual|: 2.308e-01   |deigs|: 1.091e-01  t[s]:     23.97
	FillingsUpdate:  mu: -0.175434999  nElectrons: 33.000000  magneticMoment: [ Abs: 0.10873  Tot: +0.10000 ]
SCF: Cycle:  1   F: -54.017313596843664   dF: -2.041e-02   |Residual|: 1.288e-01   |deigs|: 2.704e-02  t[s]:     27.40
	FillingsUpdate:  mu: -0.144633507  nElectrons: 33.000000  magneticMoment: [ Abs: 0.11062  Tot: +0.10000 ]
SCF: Cycle:  2   F: -54.029986234921054   dF: -1.267e-02   |Residual|: 2.795e-02   |deigs|: 3.107e-02  t[s]:     30.88
	FillingsUpdate:  mu: -0.141076301  nElectrons: 33.000000  magneticMoment: [ Abs: 0.11053  Tot: +0.10000 ]
SCF: Cycle:  3   F: -54.030361239265289   dF: -3.750e-04   |Residual|: 1.597e-02   |deigs|: 8.526e-03  t[s]:     34.41
	FillingsUpdate:  mu: -0.128528882  nElectrons: 33.000000  magneticMoment: [ Abs: 0.11057  Tot: +0.10000 ]
SCF: Cycle:  4   F: -54.031039295953185   dF: -6.781e-04   |Residual|: 8.296e-03   |deigs|: 1.159e-02  t[s]:     37.96
	FillingsUpdate:  mu: -0.123419006  nElectrons: 33.000000  magneticMoment: [ Abs: 0.11208  Tot: +0.10000 ]
SCF: Cycle:  5   F: -54.031193163346813   dF: -1.539e-04   |Residual|: 5.590e-03   |deigs|: 4.936e-03  t[s]:     41.55
	FillingsUpdate:  mu: -0.116661904  nElectrons: 33.000000  magneticMoment: [ Abs: 0.10971  Tot: +0.10000 ]
SCF: Cycle:  6   F: -54.031219511094733   dF: -2.635e-05   |Residual|: 3.859e-03   |deigs|: 6.976e-03  t[s]:     45.13
	FillingsUpdate:  mu: -0.112140705  nElectrons: 33.000000  magneticMoment: [ Abs: 0.11105  Tot: +0.10000 ]
SCF: Cycle:  7   F: -54.031228453993847   dF: -8.943e-06   |Residual|: 3.098e-03   |deigs|: 5.024e-03  t[s]:     48.76
	FillingsUpdate:  mu: -0.108194957  nElectrons: 33.000000  magneticMoment: [ Abs: 0.11047  Tot: +0.10000 ]
SCF: Cycle:  8   F: -54.031254798638621   dF: -2.634e-05   |Residual|: 2.553e-03   |deigs|: 4.084e-03  t[s]:     52.41
	FillingsUpdate:  mu: -0.106053089  nElectrons: 33.000000  magneticMoment: [ Abs: 0.10997  Tot: +0.10000 ]
SCF: Cycle:  9   F: -54.031270232557134   dF: -1.543e-05   |Residual|: 2.001e-03   |deigs|: 2.357e-03  t[s]:     56.09
	FillingsUpdate:  mu: -0.102496523  nElectrons: 33.000000  magneticMoment: [ Abs: 0.11078  Tot: +0.10000 ]
SCF: Cycle: 10   F: -54.031285918400798   dF: -1.569e-05   |Residual|: 1.756e-03   |deigs|: 3.491e-03  t[s]:     59.80
	FillingsUpdate:  mu: -0.099988340  nElectrons: 33.000000  magneticMoment: [ Abs: 0.10965  Tot: +0.10000 ]
SCF: Cycle: 11   F: -54.031291886019275   dF: -5.968e-06   |Residual|: 1.400e-03   |deigs|: 2.331e-03  t[s]:     63.53
	FillingsUpdate:  mu: -0.097520872  nElectrons: 33.000000  magneticMoment: [ Abs: 0.11036  Tot: +0.10000 ]
SCF: Cycle: 12   F: -54.031293748201072   dF: -1.862e-06   |Residual|: 1.249e-03   |deigs|: 2.347e-03  t[s]:     67.25
	FillingsUpdate:  mu: -0.093485842  nElectrons: 33.000000  magneticMoment: [ Abs: 0.11034  Tot: +0.10000 ]
SCF: Cycle: 13   F: -54.031294685747973   dF: -9.375e-07   |Residual|: 1.129e-03   |deigs|: 3.805e-03  t[s]:     70.97
	FillingsUpdate:  mu: -0.090086508  nElectrons: 33.000000  magneticMoment: [ Abs: 0.11011  Tot: +0.10000 ]
SCF: Cycle: 14   F: -54.031295238103361   dF: -5.524e-07   |Residual|: 1.065e-03   |deigs|: 3.027e-03  t[s]:     74.72
	FillingsUpdate:  mu: -0.085910633  nElectrons: 33.000000  magneticMoment: [ Abs: 0.11031  Tot: +0.10000 ]
SCF: Cycle: 15   F: -54.031295498745258   dF: -2.606e-07   |Residual|: 9.377e-04   |deigs|: 3.972e-03  t[s]:     78.46
	FillingsUpdate:  mu: -0.082302795  nElectrons: 33.000000  magneticMoment: [ Abs: 0.10978  Tot: +0.10000 ]
SCF: Cycle: 16   F: -54.031297059241950   dF: -1.560e-06   |Residual|: 6.950e-04   |deigs|: 3.359e-03  t[s]:     82.15
	FillingsUpdate:  mu: -0.080307641  nElectrons: 33.000000  magneticMoment: [ Abs: 0.10986  Tot: +0.10000 ]
SCF: Cycle: 17   F: -54.031299306165707   dF: -2.247e-06   |Residual|: 4.871e-04   |deigs|: 1.756e-03  t[s]:     85.85
	FillingsUpdate:  mu: -0.079343245  nElectrons: 33.000000  magneticMoment: [ Abs: 0.10985  Tot: +0.10000 ]
SCF: Cycle: 18   F: -54.031300656262040   dF: -1.350e-06   |Residual|: 2.585e-04   |deigs|: 1.039e-03  t[s]:     89.54
	FillingsUpdate:  mu: -0.079071594  nElectrons: 33.000000  magneticMoment: [ Abs: 0.10970  Tot: +0.10000 ]
SCF: Cycle: 19   F: -54.031300958915203   dF: -3.027e-07   |Residual|: 1.528e-04   |deigs|: 3.984e-04  t[s]:     93.24
	FillingsUpdate:  mu: -0.078951926  nElectrons: 33.000000  magneticMoment: [ Abs: 0.10968  Tot: +0.10000 ]
SCF: Cycle: 20   F: -54.031301031354936   dF: -7.244e-08   |Residual|: 8.593e-05   |deigs|: 3.219e-04  t[s]:     96.95
	FillingsUpdate:  mu: -0.078900074  nElectrons: 33.000000  magneticMoment: [ Abs: 0.10963  Tot: +0.10000 ]
SCF: Cycle: 21   F: -54.031301059178624   dF: -2.782e-08   |Residual|: 3.850e-05   |deigs|: 3.463e-04  t[s]:    100.66
	FillingsUpdate:  mu: -0.078880826  nElectrons: 33.000000  magneticMoment: [ Abs: 0.10962  Tot: +0.10000 ]
SCF: Cycle: 22   F: -54.031301067408457   dF: -8.230e-09   |Residual|: 1.742e-05   |deigs|: 2.573e-04  t[s]:    104.39
	FillingsUpdate:  mu: -0.078875649  nElectrons: 33.000000  magneticMoment: [ Abs: 0.10962  Tot: +0.10000 ]
SCF: Cycle: 23   F: -54.031301069529320   dF: -2.121e-09   |Residual|: 9.586e-06   |deigs|: 2.737e-04  t[s]:    108.10
SCF: Converged (|Delta E|<1.000000e-08 for 2 iters).


# Ionic positions in lattice coordinates:
ion C  -0.000000000000000   0.000000000000000   0.000000000000000 1
ion N   0.164313074529992   0.328626149059985   0.000000000000000 1
ion N   0.164313074529992   0.835686925470008   0.000000000000000 1
ion N   0.666666666666667   0.333333333333333   0.000000000000000 1
ion N   0.671373850940015   0.835686925470008   0.000000000000000 1
ion B  -0.001576660817548   0.499211669591226   0.000000000000000 1
ion B   0.500788330408774   0.001576660817548   0.000000000000000 1
ion B   0.500788330408774   0.499211669591226   0.000000000000000 1

# Forces in Lattice coordinates:
force C   0.000000000000000   0.000000000000000   0.000000000000000 1
force N  -0.000000000000000  -0.040830979121641   0.000000000000000 1
force N  -0.040830979121643   0.040830979121640  -0.000000000000000 1
force N   0.000000000000000  -0.000000000000000   0.000000000000000 1
force N   0.040830979121643   0.000000000000000  -0.000000000000000 1
force B   0.008393570859195   0.000000000000000   0.000000000000000 1
force B   0.000000000000000  -0.008393570859194   0.000000000000000 1
force B  -0.008393570859195   0.008393570859195   0.000000000000000 1

# Energy components:
   Eewald =      -85.5148968124686775
       EH =      -43.5363838460517414
     Eloc =       54.1444554834721075
      Enl =       -2.2689816606504531
   Epulay =       -0.0000008322926719
      Exc =      -15.3342715712789435
       KE =       38.4787790615375016
-------------------------------------
     Etot =      -54.0313001777328807
       TS =        0.0000008917964397
-------------------------------------
        F =      -54.0313010695293201

IonicMinimize: Iter:   0  F: -54.031301069529320  |grad|_K:  1.819e-03  t[s]:    108.44
IonicMinimize: None of the convergence criteria satisfied after 0 iterations.

#--- Lowdin population analysis ---
# oxidation-state C +0.255
# magnetic-moments C +0.054
# oxidation-state N -0.254 -0.254 -0.381 -0.254
# magnetic-moments N -0.000 -0.000 +0.002 -0.000
# oxidation-state B +0.403 +0.403 +0.403
# magnetic-moments B +0.014 +0.014 +0.014


Dumping 'BN22BC-0.1.fillings' ... done
Dumping 'BN22BC-0.1.wfns' ... done
Dumping 'BN22BC-0.1.n_up' ... done
Dumping 'BN22BC-0.1.n_dn' ... done
Dumping 'BN22BC-0.1.eigenvals' ... done
End date and time: Sun Jan 30 23:11:08 2022  (Duration: 0-0:01:51.23)
Done!
