magnetization is -0.88
--------------------------------------------------------------------------
The library attempted to open the following supporting CUDA libraries,
but each of them failed.  CUDA-aware support is disabled.
libcuda.so.1: cannot open shared object file: No such file or directory
libcuda.dylib: cannot open shared object file: No such file or directory
/usr/lib64/libcuda.so.1: cannot open shared object file: No such file or directory
/usr/lib64/libcuda.dylib: cannot open shared object file: No such file or directory
If you are not interested in CUDA-aware support, then run with
--mca opal_warn_on_missing_libcuda 0 to suppress this message.  If you are interested
in CUDA-aware support, then try setting LD_LIBRARY_PATH to the location
of libcuda.so.1 to get passed this issue.
--------------------------------------------------------------------------
--------------------------------------------------------------------------
No OpenFabrics connection schemes reported that they were able to be
used on a specific port.  As such, the openib BTL (OpenFabrics
support) will be disabled for this port.

  Local host:           d-5-13-2
  Local device:         mlx5_1
  Local port:           1
  CPCs attempted:       rdmacm, udcm
--------------------------------------------------------------------------

*************** JDFTx 1.6.0 (git hash 42ebbcc2) ***************

Start date and time: Sun Jan 30 23:05:12 2022
Executable jdftx with command-line: -i BN22BC.in
Running on hosts (process indices):  d-5-13-2 (0-37)
Divided in process groups (process indices):  0 (0)  1 (1)  2 (2)  3 (3)  4 (4)  5 (5)  6 (6)  7 (7)  8 (8)  9 (9)  10 (10)  11 (11)  12 (12)  13 (13)  14 (14)  15 (15)  16 (16)  17 (17)  18 (18)  19 (19)  20 (20)  21 (21)  22 (22)  23 (23)  24 (24)  25 (25)  26 (26)  27 (27)  28 (28)  29 (29)  30 (30)  31 (31)  32 (32)  33 (33)  34 (34)  35 (35)  36 (36)  37 (37)
Resource initialization completed at t[s]:      0.00
Run totals: 38 processes, 48 threads, 0 GPUs


Input parsed successfully to the following command list (including defaults):

basis kpoint-dependent
coords-type Lattice
core-overlap-check vector
coulomb-interaction Slab 001
davidson-band-ratio 1.1
dump End State ElecDensity BandEigs
dump-name BN22BC--0.88.$VAR
elec-cutoff 20
elec-eigen-algo Davidson
elec-ex-corr gga-PBE
elec-initial-magnetization -0.880000 yes
elec-smearing Fermi 1e-05
electronic-minimize  \
	dirUpdateScheme      FletcherReeves \
	linminMethod         DirUpdateRecommended \
	nIterations          100 \
	history              15 \
	knormThreshold       0 \
	energyDiffThreshold  1e-08 \
	nEnergyDiff          2 \
	alphaTstart          1 \
	alphaTmin            1e-10 \
	updateTestStepSize   yes \
	alphaTreduceFactor   0.1 \
	alphaTincreaseFactor 3 \
	nAlphaAdjustMax      3 \
	wolfeEnergy          0.0001 \
	wolfeGradient        0.9 \
	fdTest               no
electronic-scf  \
	nIterations	1000 \
	energyDiffThreshold	1e-08 \
	residualThreshold	1e-07 \
	mixFraction	0.5 \
	qMetric	0.8 \
	history	10 \
	nEigSteps	2 \
	eigDiffThreshold	1e-08 \
	mixedVariable	Density \
	qKerker	0.8 \
	qKappa	-1 \
	verbose	no \
	mixFractionMag	1.5
exchange-regularization WignerSeitzTruncated
fluid None
fluid-ex-corr (null) lda-PZ
fluid-gummel-loop 10 1.000000e-05
fluid-minimize  \
	dirUpdateScheme      PolakRibiere \
	linminMethod         DirUpdateRecommended \
	nIterations          100 \
	history              15 \
	knormThreshold       0 \
	energyDiffThreshold  0 \
	nEnergyDiff          2 \
	alphaTstart          1 \
	alphaTmin            1e-10 \
	updateTestStepSize   yes \
	alphaTreduceFactor   0.1 \
	alphaTincreaseFactor 3 \
	nAlphaAdjustMax      3 \
	wolfeEnergy          0.0001 \
	wolfeGradient        0.9 \
	fdTest               no
fluid-solvent H2O 55.338 ScalarEOS \
	epsBulk 78.4 \
	pMol 0.92466 \
	epsInf 1.77 \
	Pvap 1.06736e-10 \
	sigmaBulk 4.62e-05 \
	Rvdw 2.61727 \
	Res 1.42 \
	tauNuc 343133 \
	poleEl 15 7 1
forces-output-coords Positions
ion C   0.000000000000000  -0.000000000000000   0.000000000000000 1
ion N   0.164313074529992   0.328626149059985   0.000000000000000 1
ion N   0.164313074529992   0.835686925470008   0.000000000000000 1
ion N   0.666666666666667   0.333333333333333   0.000000000000000 1
ion N   0.671373850940015   0.835686925470008   0.000000000000000 1
ion B  -0.001576660817548   0.499211669591226   0.000000000000000 1
ion B   0.500788330408774   0.001576660817548   0.000000000000000 1
ion B   0.500788330408774   0.499211669591226   0.000000000000000 1
ion-species SG15/$ID_ONCV_PBE.upf
ion-width 0
ionic-minimize  \
	dirUpdateScheme      L-BFGS \
	linminMethod         DirUpdateRecommended \
	nIterations          0 \
	history              15 \
	knormThreshold       0.0001 \
	energyDiffThreshold  1e-06 \
	nEnergyDiff          2 \
	alphaTstart          1 \
	alphaTmin            1e-10 \
	updateTestStepSize   yes \
	alphaTreduceFactor   0.1 \
	alphaTincreaseFactor 3 \
	nAlphaAdjustMax      3 \
	wolfeEnergy          0.0001 \
	wolfeGradient        0.9 \
	fdTest               no
kpoint   0.000000000000   0.000000000000   0.000000000000  1.00000000000000
kpoint-folding 12 12 1 
latt-move-scale 1 1 1
latt-scale 1 1 1 
lattice  \
	   9.356640512437433   -4.678320256218713    0.000000000000000  \
	  -0.000000000000000    8.103088377849462    0.000000000000000  \
	   0.000000000000000    0.000000000000000   40.000000000000000 
lattice-minimize  \
	dirUpdateScheme      L-BFGS \
	linminMethod         DirUpdateRecommended \
	nIterations          0 \
	history              15 \
	knormThreshold       0 \
	energyDiffThreshold  1e-06 \
	nEnergyDiff          2 \
	alphaTstart          1 \
	alphaTmin            1e-10 \
	updateTestStepSize   yes \
	alphaTreduceFactor   0.1 \
	alphaTincreaseFactor 3 \
	nAlphaAdjustMax      3 \
	wolfeEnergy          0.0001 \
	wolfeGradient        0.9 \
	fdTest               no
lcao-params -1 1e-06 1e-05
pcm-variant GLSSA13
spintype z-spin
subspace-rotation-factor 1 yes
symmetries automatic
symmetry-threshold 0.0001



---------- Setting up symmetries ----------

Found 24 point-group symmetries of the bravais lattice
Found 12 space-group symmetries with basis
Applied RMS atom displacement 3.80214e-15 bohrs to make symmetries exact.

---------- Initializing the Grid ----------
R = 
[      9.35664     -4.67832            0  ]
[            0      8.10309            0  ]
[            0            0           40  ]
unit cell volume = 3032.71
G =
[   0.671522   0.387703         -0  ]
[          0   0.775406         -0  ]
[         -0         -0    0.15708  ]
Minimum fftbox size, Smin = [  40  40  164  ]
Chosen fftbox size, S = [  40  40  168  ]

---------- Exchange Correlation functional ----------
Initalized PBE GGA exchange.
Initalized PBE GGA correlation.

---------- Setting up pseudopotentials ----------
Width of ionic core gaussian charges (only for fluid interactions / plotting) set to 0

Reading pseudopotential file '/home/gridsan/aligho/DFT/build-Nov24/pseudopotentials/SG15/C_ONCV_PBE.upf':
  'C' pseudopotential, 'PBE' functional
  Generated using ONCVPSP code by D. R. Hamann
  Author: Martin Schlipf and Francois Gygi  Date: 150915.
  4 valence electrons, 2 orbitals, 4 projectors, 1248 radial grid points, with lMax = 1
  Transforming local potential to a uniform radial grid of dG=0.02 with 1502 points.
  Transforming nonlocal projectors to a uniform radial grid of dG=0.02 with 432 points.
    2S    l: 0   occupation:  2.0   eigenvalue: -0.505335
    2P    l: 1   occupation:  2.0   eigenvalue: -0.194238
  Transforming atomic orbitals to a uniform radial grid of dG=0.02 with 432 points.
  Core radius for overlap checks: 1.23 bohrs.
  Reading pulay file /home/gridsan/aligho/DFT/build-Nov24/pseudopotentials/SG15/C_ONCV_PBE.pulay ... using dE_dnG = -9.239532e-03 computed for Ecut = 20.

Reading pseudopotential file '/home/gridsan/aligho/DFT/build-Nov24/pseudopotentials/SG15/N_ONCV_PBE.upf':
  'N' pseudopotential, 'PBE' functional
  Generated using ONCVPSP code by D. R. Hamann
  Author: Martin Schlipf and Francois Gygi  Date: 150915.
  5 valence electrons, 2 orbitals, 4 projectors, 1058 radial grid points, with lMax = 1
  Transforming local potential to a uniform radial grid of dG=0.02 with 1502 points.
  Transforming nonlocal projectors to a uniform radial grid of dG=0.02 with 432 points.
    2S    l: 0   occupation:  2.0   eigenvalue: -0.682907
    2P    l: 1   occupation:  3.0   eigenvalue: -0.260548
  Transforming atomic orbitals to a uniform radial grid of dG=0.02 with 432 points.
  Core radius for overlap checks: 1.35 bohrs.
  Reading pulay file /home/gridsan/aligho/DFT/build-Nov24/pseudopotentials/SG15/N_ONCV_PBE.pulay ... using dE_dnG = -2.956256e-02 computed for Ecut = 20.

Reading pseudopotential file '/home/gridsan/aligho/DFT/build-Nov24/pseudopotentials/SG15/B_ONCV_PBE.upf':
  'B' pseudopotential, 'PBE' functional
  Generated using ONCVPSP code by D. R. Hamann
  Author: Martin Schlipf and Francois Gygi  Date: 150915.
  3 valence electrons, 2 orbitals, 4 projectors, 1534 radial grid points, with lMax = 1
  Transforming local potential to a uniform radial grid of dG=0.02 with 1502 points.
  Transforming nonlocal projectors to a uniform radial grid of dG=0.02 with 432 points.
    2S    l: 0   occupation:  2.0   eigenvalue: -0.347027
    2P    l: 1   occupation:  1.0   eigenvalue: -0.132548
  Transforming atomic orbitals to a uniform radial grid of dG=0.02 with 432 points.
  Core radius for overlap checks: 1.60 bohrs.
  Reading pulay file /home/gridsan/aligho/DFT/build-Nov24/pseudopotentials/SG15/B_ONCV_PBE.pulay ... using dE_dnG = -3.748568e-04 computed for Ecut = 20.

Initialized 3 species with 8 total atoms.

Folded 1 k-points by 12x12x1 to 144 k-points.

---------- Setting up k-points, bands, fillings ----------
Adding inversion symmetry to k-mesh for non-inversion-symmetric unit cell.
Reduced to 19 k-points under symmetry. 
Computing the number of bands and number of electrons
Calculating initial fillings.
nElectrons:  33.000000   nBands: 32   nStates: 38

----- Setting up reduced wavefunction bases (one per k-point) -----
average nbasis = 12955.938 , ideal nbasis = 12955.957

---------- Setting up coulomb interaction ----------
Initialized slab truncation along lattice direction 001

---------- Setting up 2D ewald sum ----------
Optimum gaussian width for ewald sums = 5.194429 bohr.
Real space sums over 289 unit cells with max indices [  8  8  0  ]
Reciprocal space sums over 81 terms with max indices [  4  4  0  ]

---------- Allocating electronic variables ----------
Initializing wave functions:  linear combination of atomic orbitals
C pseudo-atom occupations:   s ( 2 )  p ( 2 )
N pseudo-atom occupations:   s ( 2 )  p ( 3 )
B pseudo-atom occupations:   s ( 2 )  p ( 1 )
[d-5-13-2:62388] 37 more processes have sent help message help-mpi-common-cuda.txt / dlopen failed
[d-5-13-2:62388] Set MCA parameter "orte_base_help_aggregate" to 0 to see all help / error messages
[d-5-13-2:62388] 37 more processes have sent help message help-mpi-btl-openib-cpc-base.txt / no cpcs for port
	FillingsUpdate:  mu: -0.180826328  nElectrons: 33.000000  magneticMoment: [ Abs: 0.90394  Tot: -0.88000 ]
LCAOMinimize: Iter:   0  F: -53.3610444667541373  |grad|_K:  5.259e-03  alpha:  1.000e+00
	FillingsUpdate:  mu: -0.182018858  nElectrons: 33.000000  magneticMoment: [ Abs: 0.90886  Tot: -0.88000 ]
LCAOMinimize: Iter:   1  F: -53.5647825343387325  |grad|_K:  9.108e-04  alpha:  4.280e-01  linmin:  3.145e-01  cgtest: -7.845e-01  t[s]:      7.20
	FillingsUpdate:  mu: -0.177190841  nElectrons: 33.000000  magneticMoment: [ Abs: 0.91114  Tot: -0.88000 ]
LCAOMinimize: Iter:   2  F: -53.5663861203560430  |grad|_K:  7.381e-04  alpha:  2.530e-01  linmin:  6.785e-04  cgtest:  8.600e-01  t[s]:      9.24
LCAOMinimize: Encountered beta<0, resetting CG.
	FillingsUpdate:  mu: -0.176697467  nElectrons: 33.000000  magneticMoment: [ Abs: 0.91375  Tot: -0.88000 ]
LCAOMinimize: Iter:   3  F: -53.5706495959259357  |grad|_K:  9.300e-05  alpha:  3.819e-01  linmin:  7.646e-02  cgtest: -1.743e-01  t[s]:     11.25
	FillingsUpdate:  mu: -0.177495576  nElectrons: 33.000000  magneticMoment: [ Abs: 0.91642  Tot: -0.88000 ]
LCAOMinimize: Iter:   4  F: -53.5707148755912144  |grad|_K:  2.548e-05  alpha:  3.867e-01  linmin:  2.544e-03  cgtest:  2.014e-01  t[s]:     13.25
	FillingsUpdate:  mu: -0.177497555  nElectrons: 33.000000  magneticMoment: [ Abs: 0.91920  Tot: -0.88000 ]
LCAOMinimize: Iter:   5  F: -53.5707227195269269  |grad|_K:  1.443e-05  alpha:  5.839e-01  linmin: -8.049e-04  cgtest:  3.227e-03  t[s]:     15.26
	FillingsUpdate:  mu: -0.177373187  nElectrons: 33.000000  magneticMoment: [ Abs: 0.92235  Tot: -0.88000 ]
LCAOMinimize: Iter:   6  F: -53.5707258527564107  |grad|_K:  6.385e-06  alpha:  7.261e-01  linmin: -1.335e-03  cgtest: -2.646e-03  t[s]:     17.27
	FillingsUpdate:  mu: -0.177416443  nElectrons: 33.000000  magneticMoment: [ Abs: 0.92310  Tot: -0.88000 ]
LCAOMinimize: Iter:   7  F: -53.5707262440889096  |grad|_K:  1.142e-06  alpha:  4.632e-01  linmin: -6.361e-05  cgtest: -1.224e-02  t[s]:     19.28
	FillingsUpdate:  mu: -0.177427560  nElectrons: 33.000000  magneticMoment: [ Abs: 0.92329  Tot: -0.88000 ]
LCAOMinimize: Iter:   8  F: -53.5707262638936612  |grad|_K:  4.720e-07  alpha:  7.335e-01  linmin: -1.331e-03  cgtest:  4.437e-03  t[s]:     21.31
LCAOMinimize: Converged (|Delta F|<1.000000e-06 for 2 iters).


---- Citations for features of the code used in this run ----

   Software package:
      R. Sundararaman, K. Letchworth-Weaver, K.A. Schwarz, D. Gunceler, Y. Ozhabes and T.A. Arias, 'JDFTx: software for joint density-functional theory', SoftwareX 6, 278 (2017)

   gga-PBE exchange-correlation functional:
      J.P. Perdew, K. Burke and M. Ernzerhof, Phys. Rev. Lett. 77, 3865 (1996)

   Pseudopotentials:
      M Schlipf and F Gygi, Comput. Phys. Commun. 196, 36 (2015)

   Truncated Coulomb potentials:
      R. Sundararaman and T.A. Arias, Phys. Rev. B 87, 165122 (2013)

This list may not be complete. Please suggest additional citations or
report any other bugs at https://github.com/shankar1729/jdftx/issues

Initialization completed successfully at t[s]:     21.51


-------- Electronic minimization -----------
Will mix electronic density at each iteration.
	FillingsUpdate:  mu: -0.177427560  nElectrons: 33.000000  magneticMoment: [ Abs: 0.92329  Tot: -0.88000 ]
	FillingsUpdate:  mu: -0.191699514  nElectrons: 33.000000  magneticMoment: [ Abs: 0.92329  Tot: -0.88000 ]
SCF: Cycle:  0   F: -54.000928485782637   dF: -4.302e-01   |Residual|: 2.320e-01   |deigs|: 1.092e-01  t[s]:     26.15
	FillingsUpdate:  mu: -0.170130536  nElectrons: 33.000000  magneticMoment: [ Abs: 0.95720  Tot: -0.88000 ]
SCF: Cycle:  1   F: -54.020781344082550   dF: -1.985e-02   |Residual|: 1.295e-01   |deigs|: 2.698e-02  t[s]:     29.55
	FillingsUpdate:  mu: -0.140651518  nElectrons: 33.000000  magneticMoment: [ Abs: 0.97781  Tot: -0.88000 ]
SCF: Cycle:  2   F: -54.033404628911086   dF: -1.262e-02   |Residual|: 2.846e-02   |deigs|: 3.110e-02  t[s]:     32.96
	FillingsUpdate:  mu: -0.137487346  nElectrons: 33.000000  magneticMoment: [ Abs: 0.98140  Tot: -0.88000 ]
SCF: Cycle:  3   F: -54.033781259472967   dF: -3.766e-04   |Residual|: 1.628e-02   |deigs|: 8.680e-03  t[s]:     36.43
	FillingsUpdate:  mu: -0.127173295  nElectrons: 33.000000  magneticMoment: [ Abs: 0.96442  Tot: -0.88000 ]
SCF: Cycle:  4   F: -54.034363883055164   dF: -5.826e-04   |Residual|: 8.563e-03   |deigs|: 9.864e-03  t[s]:     39.92
	FillingsUpdate:  mu: -0.121506751  nElectrons: 33.000000  magneticMoment: [ Abs: 0.96880  Tot: -0.88000 ]
SCF: Cycle:  5   F: -54.034579875895467   dF: -2.160e-04   |Residual|: 6.677e-03   |deigs|: 5.249e-03  t[s]:     43.45
	FillingsUpdate:  mu: -0.115470907  nElectrons: 33.000000  magneticMoment: [ Abs: 0.96883  Tot: -0.88000 ]
SCF: Cycle:  6   F: -54.034649158537924   dF: -6.928e-05   |Residual|: 4.369e-03   |deigs|: 5.539e-03  t[s]:     46.98
	FillingsUpdate:  mu: -0.110406954  nElectrons: 33.000000  magneticMoment: [ Abs: 0.96691  Tot: -0.88000 ]
SCF: Cycle:  7   F: -54.034644459789718   dF: +4.699e-06   |Residual|: 3.340e-03   |deigs|: 6.279e-03  t[s]:     50.55
	FillingsUpdate:  mu: -0.106258142  nElectrons: 33.000000  magneticMoment: [ Abs: 0.96786  Tot: -0.88000 ]
SCF: Cycle:  8   F: -54.034664243840389   dF: -1.978e-05   |Residual|: 2.905e-03   |deigs|: 4.333e-03  t[s]:     54.16
	FillingsUpdate:  mu: -0.102942222  nElectrons: 33.000000  magneticMoment: [ Abs: 0.96444  Tot: -0.88000 ]
SCF: Cycle:  9   F: -54.034686583319747   dF: -2.234e-05   |Residual|: 2.084e-03   |deigs|: 3.560e-03  t[s]:     57.79
	FillingsUpdate:  mu: -0.100689044  nElectrons: 33.000000  magneticMoment: [ Abs: 0.96466  Tot: -0.88000 ]
SCF: Cycle: 10   F: -54.034700260770741   dF: -1.368e-05   |Residual|: 1.853e-03   |deigs|: 2.360e-03  t[s]:     61.46
	FillingsUpdate:  mu: -0.097943356  nElectrons: 33.000000  magneticMoment: [ Abs: 0.96628  Tot: -0.88000 ]
SCF: Cycle: 11   F: -54.034709454459588   dF: -9.194e-06   |Residual|: 1.467e-03   |deigs|: 2.682e-03  t[s]:     65.11
	FillingsUpdate:  mu: -0.095281510  nElectrons: 33.000000  magneticMoment: [ Abs: 0.96579  Tot: -0.88000 ]
SCF: Cycle: 12   F: -54.034714054423127   dF: -4.600e-06   |Residual|: 1.326e-03   |deigs|: 2.522e-03  t[s]:     68.78
	FillingsUpdate:  mu: -0.092252147  nElectrons: 33.000000  magneticMoment: [ Abs: 0.96559  Tot: -0.88000 ]
SCF: Cycle: 13   F: -54.034716300385234   dF: -2.246e-06   |Residual|: 1.190e-03   |deigs|: 2.794e-03  t[s]:     72.46
	FillingsUpdate:  mu: -0.088574889  nElectrons: 33.000000  magneticMoment: [ Abs: 0.96432  Tot: -0.88000 ]
SCF: Cycle: 14   F: -54.034716422933734   dF: -1.225e-07   |Residual|: 1.103e-03   |deigs|: 3.404e-03  t[s]:     76.11
	FillingsUpdate:  mu: -0.084801282  nElectrons: 33.000000  magneticMoment: [ Abs: 0.96484  Tot: -0.88000 ]
SCF: Cycle: 15   F: -54.034716600930089   dF: -1.780e-07   |Residual|: 1.034e-03   |deigs|: 3.367e-03  t[s]:     79.78
	FillingsUpdate:  mu: -0.081355276  nElectrons: 33.000000  magneticMoment: [ Abs: 0.96507  Tot: -0.88000 ]
SCF: Cycle: 16   F: -54.034717603723095   dF: -1.003e-06   |Residual|: 9.170e-04   |deigs|: 3.138e-03  t[s]:     83.44
	FillingsUpdate:  mu: -0.078446240  nElectrons: 33.000000  magneticMoment: [ Abs: 0.96511  Tot: -0.88000 ]
SCF: Cycle: 17   F: -54.034719668584991   dF: -2.065e-06   |Residual|: 6.800e-04   |deigs|: 2.629e-03  t[s]:     87.08
	FillingsUpdate:  mu: -0.076555774  nElectrons: 33.000000  magneticMoment: [ Abs: 0.96467  Tot: -0.88000 ]
SCF: Cycle: 18   F: -54.034721487187348   dF: -1.819e-06   |Residual|: 4.229e-04   |deigs|: 1.651e-03  t[s]:     90.76
	FillingsUpdate:  mu: -0.075718784  nElectrons: 33.000000  magneticMoment: [ Abs: 0.96444  Tot: -0.88000 ]
SCF: Cycle: 19   F: -54.034722084993774   dF: -5.978e-07   |Residual|: 2.433e-04   |deigs|: 8.071e-04  t[s]:     94.44
	FillingsUpdate:  mu: -0.075285498  nElectrons: 33.000000  magneticMoment: [ Abs: 0.96437  Tot: -0.88000 ]
SCF: Cycle: 20   F: -54.034722292438566   dF: -2.074e-07   |Residual|: 1.357e-04   |deigs|: 6.892e-04  t[s]:     98.10
	FillingsUpdate:  mu: -0.075091418  nElectrons: 33.000000  magneticMoment: [ Abs: 0.96436  Tot: -0.88000 ]
SCF: Cycle: 21   F: -54.034722341511035   dF: -4.907e-08   |Residual|: 7.575e-05   |deigs|: 4.663e-04  t[s]:    101.77
	FillingsUpdate:  mu: -0.075007745  nElectrons: 33.000000  magneticMoment: [ Abs: 0.96435  Tot: -0.88000 ]
SCF: Cycle: 22   F: -54.034722355585885   dF: -1.407e-08   |Residual|: 3.236e-05   |deigs|: 3.214e-04  t[s]:    105.43
	FillingsUpdate:  mu: -0.074977313  nElectrons: 33.000000  magneticMoment: [ Abs: 0.96434  Tot: -0.88000 ]
SCF: Cycle: 23   F: -54.034722362221672   dF: -6.636e-09   |Residual|: 1.392e-05   |deigs|: 4.163e-04  t[s]:    109.09
	FillingsUpdate:  mu: -0.074969670  nElectrons: 33.000000  magneticMoment: [ Abs: 0.96433  Tot: -0.88000 ]
SCF: Cycle: 24   F: -54.034722364832120   dF: -2.610e-09   |Residual|: 8.534e-06   |deigs|: 3.544e-04  t[s]:    112.77
SCF: Converged (|Delta E|<1.000000e-08 for 2 iters).


# Ionic positions in lattice coordinates:
ion C  -0.000000000000000   0.000000000000000   0.000000000000000 1
ion N   0.164313074529992   0.328626149059985   0.000000000000000 1
ion N   0.164313074529992   0.835686925470008   0.000000000000000 1
ion N   0.666666666666667   0.333333333333333   0.000000000000000 1
ion N   0.671373850940015   0.835686925470008   0.000000000000000 1
ion B  -0.001576660817548   0.499211669591226   0.000000000000000 1
ion B   0.500788330408774   0.001576660817548   0.000000000000000 1
ion B   0.500788330408774   0.499211669591226   0.000000000000000 1

# Forces in Lattice coordinates:
force C   0.000000000000000  -0.000000000000000   0.000000000000000 1
force N   0.000000000000000  -0.010738264421767   0.000000000000000 1
force N  -0.010738264421770   0.010738264421767   0.000000000000000 1
force N   0.000000000000000   0.000000000000000   0.000000000000000 1
force N   0.010738264421770  -0.000000000000000   0.000000000000000 1
force B   0.004138470605414   0.000000000000000   0.000000000000000 1
force B   0.000000000000000  -0.004138470605414   0.000000000000000 1
force B  -0.004138470605414   0.004138470605414   0.000000000000000 1

# Energy components:
   Eewald =      -85.5148968124686775
       EH =      -43.4799343833130223
     Eloc =       54.0680678928031924
      Enl =       -2.2811312789322287
   Epulay =       -0.0000008322926719
      Exc =      -15.3519185049793343
       KE =       38.5250918933146593
-------------------------------------
     Etot =      -54.0347220258680991
       TS =        0.0000003389640239
-------------------------------------
        F =      -54.0347223648321204

IonicMinimize: Iter:   0  F: -54.034722364832120  |grad|_K:  5.021e-04  t[s]:    113.10
IonicMinimize: None of the convergence criteria satisfied after 0 iterations.

#--- Lowdin population analysis ---
# oxidation-state C +0.275
# magnetic-moments C -0.489
# oxidation-state N -0.264 -0.264 -0.383 -0.264
# magnetic-moments N -0.001 -0.001 -0.027 -0.001
# oxidation-state B +0.405 +0.405 +0.405
# magnetic-moments B -0.114 -0.114 -0.114


Dumping 'BN22BC--0.88.fillings' ... done
Dumping 'BN22BC--0.88.wfns' ... done
Dumping 'BN22BC--0.88.n_up' ... done
Dumping 'BN22BC--0.88.n_dn' ... done
Dumping 'BN22BC--0.88.eigenvals' ... done
End date and time: Sun Jan 30 23:07:07 2022  (Duration: 0-0:01:55.20)
Done!
