magnetization is 0.04
--------------------------------------------------------------------------
The library attempted to open the following supporting CUDA libraries,
but each of them failed.  CUDA-aware support is disabled.
libcuda.so.1: cannot open shared object file: No such file or directory
libcuda.dylib: cannot open shared object file: No such file or directory
/usr/lib64/libcuda.so.1: cannot open shared object file: No such file or directory
/usr/lib64/libcuda.dylib: cannot open shared object file: No such file or directory
If you are not interested in CUDA-aware support, then run with
--mca opal_warn_on_missing_libcuda 0 to suppress this message.  If you are interested
in CUDA-aware support, then try setting LD_LIBRARY_PATH to the location
of libcuda.so.1 to get passed this issue.
--------------------------------------------------------------------------
--------------------------------------------------------------------------
No OpenFabrics connection schemes reported that they were able to be
used on a specific port.  As such, the openib BTL (OpenFabrics
support) will be disabled for this port.

  Local host:           d-5-13-3
  Local device:         mlx5_1
  Local port:           1
  CPCs attempted:       rdmacm, udcm
--------------------------------------------------------------------------

*************** JDFTx 1.6.0 (git hash 42ebbcc2) ***************

Start date and time: Sun Jan 30 23:09:17 2022
Executable jdftx with command-line: -i BN22BC.in
Running on hosts (process indices):  d-5-13-3 (0-37)
Divided in process groups (process indices):  0 (0)  1 (1)  2 (2)  3 (3)  4 (4)  5 (5)  6 (6)  7 (7)  8 (8)  9 (9)  10 (10)  11 (11)  12 (12)  13 (13)  14 (14)  15 (15)  16 (16)  17 (17)  18 (18)  19 (19)  20 (20)  21 (21)  22 (22)  23 (23)  24 (24)  25 (25)  26 (26)  27 (27)  28 (28)  29 (29)  30 (30)  31 (31)  32 (32)  33 (33)  34 (34)  35 (35)  36 (36)  37 (37)
Resource initialization completed at t[s]:      0.00
Run totals: 38 processes, 48 threads, 0 GPUs


Input parsed successfully to the following command list (including defaults):

basis kpoint-dependent
coords-type Lattice
core-overlap-check vector
coulomb-interaction Slab 001
davidson-band-ratio 1.1
dump End State ElecDensity BandEigs
dump-name BN22BC-0.04.$VAR
elec-cutoff 20
elec-eigen-algo Davidson
elec-ex-corr gga-PBE
elec-initial-magnetization 0.040000 yes
elec-smearing Fermi 1e-05
electronic-minimize  \
	dirUpdateScheme      FletcherReeves \
	linminMethod         DirUpdateRecommended \
	nIterations          100 \
	history              15 \
	knormThreshold       0 \
	energyDiffThreshold  1e-08 \
	nEnergyDiff          2 \
	alphaTstart          1 \
	alphaTmin            1e-10 \
	updateTestStepSize   yes \
	alphaTreduceFactor   0.1 \
	alphaTincreaseFactor 3 \
	nAlphaAdjustMax      3 \
	wolfeEnergy          0.0001 \
	wolfeGradient        0.9 \
	fdTest               no
electronic-scf  \
	nIterations	1000 \
	energyDiffThreshold	1e-08 \
	residualThreshold	1e-07 \
	mixFraction	0.5 \
	qMetric	0.8 \
	history	10 \
	nEigSteps	2 \
	eigDiffThreshold	1e-08 \
	mixedVariable	Density \
	qKerker	0.8 \
	qKappa	-1 \
	verbose	no \
	mixFractionMag	1.5
exchange-regularization WignerSeitzTruncated
fluid None
fluid-ex-corr (null) lda-PZ
fluid-gummel-loop 10 1.000000e-05
fluid-minimize  \
	dirUpdateScheme      PolakRibiere \
	linminMethod         DirUpdateRecommended \
	nIterations          100 \
	history              15 \
	knormThreshold       0 \
	energyDiffThreshold  0 \
	nEnergyDiff          2 \
	alphaTstart          1 \
	alphaTmin            1e-10 \
	updateTestStepSize   yes \
	alphaTreduceFactor   0.1 \
	alphaTincreaseFactor 3 \
	nAlphaAdjustMax      3 \
	wolfeEnergy          0.0001 \
	wolfeGradient        0.9 \
	fdTest               no
fluid-solvent H2O 55.338 ScalarEOS \
	epsBulk 78.4 \
	pMol 0.92466 \
	epsInf 1.77 \
	Pvap 1.06736e-10 \
	sigmaBulk 4.62e-05 \
	Rvdw 2.61727 \
	Res 1.42 \
	tauNuc 343133 \
	poleEl 15 7 1
forces-output-coords Positions
ion C   0.000000000000000  -0.000000000000000   0.000000000000000 1
ion N   0.164313074529992   0.328626149059985   0.000000000000000 1
ion N   0.164313074529992   0.835686925470008   0.000000000000000 1
ion N   0.666666666666667   0.333333333333333   0.000000000000000 1
ion N   0.671373850940015   0.835686925470008   0.000000000000000 1
ion B  -0.001576660817548   0.499211669591226   0.000000000000000 1
ion B   0.500788330408774   0.001576660817548   0.000000000000000 1
ion B   0.500788330408774   0.499211669591226   0.000000000000000 1
ion-species SG15/$ID_ONCV_PBE.upf
ion-width 0
ionic-minimize  \
	dirUpdateScheme      L-BFGS \
	linminMethod         DirUpdateRecommended \
	nIterations          0 \
	history              15 \
	knormThreshold       0.0001 \
	energyDiffThreshold  1e-06 \
	nEnergyDiff          2 \
	alphaTstart          1 \
	alphaTmin            1e-10 \
	updateTestStepSize   yes \
	alphaTreduceFactor   0.1 \
	alphaTincreaseFactor 3 \
	nAlphaAdjustMax      3 \
	wolfeEnergy          0.0001 \
	wolfeGradient        0.9 \
	fdTest               no
kpoint   0.000000000000   0.000000000000   0.000000000000  1.00000000000000
kpoint-folding 12 12 1 
latt-move-scale 1 1 1
latt-scale 1 1 1 
lattice  \
	   9.356640512437433   -4.678320256218713    0.000000000000000  \
	  -0.000000000000000    8.103088377849462    0.000000000000000  \
	   0.000000000000000    0.000000000000000   40.000000000000000 
lattice-minimize  \
	dirUpdateScheme      L-BFGS \
	linminMethod         DirUpdateRecommended \
	nIterations          0 \
	history              15 \
	knormThreshold       0 \
	energyDiffThreshold  1e-06 \
	nEnergyDiff          2 \
	alphaTstart          1 \
	alphaTmin            1e-10 \
	updateTestStepSize   yes \
	alphaTreduceFactor   0.1 \
	alphaTincreaseFactor 3 \
	nAlphaAdjustMax      3 \
	wolfeEnergy          0.0001 \
	wolfeGradient        0.9 \
	fdTest               no
lcao-params -1 1e-06 1e-05
pcm-variant GLSSA13
spintype z-spin
subspace-rotation-factor 1 yes
symmetries automatic
symmetry-threshold 0.0001



---------- Setting up symmetries ----------

Found 24 point-group symmetries of the bravais lattice
Found 12 space-group symmetries with basis
Applied RMS atom displacement 3.80214e-15 bohrs to make symmetries exact.

---------- Initializing the Grid ----------
R = 
[      9.35664     -4.67832            0  ]
[            0      8.10309            0  ]
[            0            0           40  ]
unit cell volume = 3032.71
G =
[   0.671522   0.387703         -0  ]
[          0   0.775406         -0  ]
[         -0         -0    0.15708  ]
Minimum fftbox size, Smin = [  40  40  164  ]
Chosen fftbox size, S = [  40  40  168  ]

---------- Exchange Correlation functional ----------
Initalized PBE GGA exchange.
Initalized PBE GGA correlation.

---------- Setting up pseudopotentials ----------
Width of ionic core gaussian charges (only for fluid interactions / plotting) set to 0

Reading pseudopotential file '/home/gridsan/aligho/DFT/build-Nov24/pseudopotentials/SG15/C_ONCV_PBE.upf':
  'C' pseudopotential, 'PBE' functional
  Generated using ONCVPSP code by D. R. Hamann
  Author: Martin Schlipf and Francois Gygi  Date: 150915.
  4 valence electrons, 2 orbitals, 4 projectors, 1248 radial grid points, with lMax = 1
  Transforming local potential to a uniform radial grid of dG=0.02 with 1502 points.
  Transforming nonlocal projectors to a uniform radial grid of dG=0.02 with 432 points.
    2S    l: 0   occupation:  2.0   eigenvalue: -0.505335
    2P    l: 1   occupation:  2.0   eigenvalue: -0.194238
  Transforming atomic orbitals to a uniform radial grid of dG=0.02 with 432 points.
  Core radius for overlap checks: 1.23 bohrs.
  Reading pulay file /home/gridsan/aligho/DFT/build-Nov24/pseudopotentials/SG15/C_ONCV_PBE.pulay ... using dE_dnG = -9.239532e-03 computed for Ecut = 20.

Reading pseudopotential file '/home/gridsan/aligho/DFT/build-Nov24/pseudopotentials/SG15/N_ONCV_PBE.upf':
  'N' pseudopotential, 'PBE' functional
  Generated using ONCVPSP code by D. R. Hamann
  Author: Martin Schlipf and Francois Gygi  Date: 150915.
  5 valence electrons, 2 orbitals, 4 projectors, 1058 radial grid points, with lMax = 1
  Transforming local potential to a uniform radial grid of dG=0.02 with 1502 points.
  Transforming nonlocal projectors to a uniform radial grid of dG=0.02 with 432 points.
    2S    l: 0   occupation:  2.0   eigenvalue: -0.682907
    2P    l: 1   occupation:  3.0   eigenvalue: -0.260548
  Transforming atomic orbitals to a uniform radial grid of dG=0.02 with 432 points.
  Core radius for overlap checks: 1.35 bohrs.
  Reading pulay file /home/gridsan/aligho/DFT/build-Nov24/pseudopotentials/SG15/N_ONCV_PBE.pulay ... using dE_dnG = -2.956256e-02 computed for Ecut = 20.

Reading pseudopotential file '/home/gridsan/aligho/DFT/build-Nov24/pseudopotentials/SG15/B_ONCV_PBE.upf':
  'B' pseudopotential, 'PBE' functional
  Generated using ONCVPSP code by D. R. Hamann
  Author: Martin Schlipf and Francois Gygi  Date: 150915.
  3 valence electrons, 2 orbitals, 4 projectors, 1534 radial grid points, with lMax = 1
  Transforming local potential to a uniform radial grid of dG=0.02 with 1502 points.
  Transforming nonlocal projectors to a uniform radial grid of dG=0.02 with 432 points.
    2S    l: 0   occupation:  2.0   eigenvalue: -0.347027
    2P    l: 1   occupation:  1.0   eigenvalue: -0.132548
  Transforming atomic orbitals to a uniform radial grid of dG=0.02 with 432 points.
  Core radius for overlap checks: 1.60 bohrs.
  Reading pulay file /home/gridsan/aligho/DFT/build-Nov24/pseudopotentials/SG15/B_ONCV_PBE.pulay ... using dE_dnG = -3.748568e-04 computed for Ecut = 20.

Initialized 3 species with 8 total atoms.

Folded 1 k-points by 12x12x1 to 144 k-points.

---------- Setting up k-points, bands, fillings ----------
Adding inversion symmetry to k-mesh for non-inversion-symmetric unit cell.
Reduced to 19 k-points under symmetry. 
Computing the number of bands and number of electrons
Calculating initial fillings.
nElectrons:  33.000000   nBands: 32   nStates: 38

----- Setting up reduced wavefunction bases (one per k-point) -----
average nbasis = 12955.938 , ideal nbasis = 12955.957

---------- Setting up coulomb interaction ----------
Initialized slab truncation along lattice direction 001

---------- Setting up 2D ewald sum ----------
Optimum gaussian width for ewald sums = 5.194429 bohr.
Real space sums over 289 unit cells with max indices [  8  8  0  ]
Reciprocal space sums over 81 terms with max indices [  4  4  0  ]

---------- Allocating electronic variables ----------
Initializing wave functions:  linear combination of atomic orbitals
C pseudo-atom occupations:   s ( 2 )  p ( 2 )
N pseudo-atom occupations:   s ( 2 )  p ( 3 )
B pseudo-atom occupations:   s ( 2 )  p ( 1 )
[d-5-13-3:05544] 37 more processes have sent help message help-mpi-common-cuda.txt / dlopen failed
[d-5-13-3:05544] Set MCA parameter "orte_base_help_aggregate" to 0 to see all help / error messages
[d-5-13-3:05544] 37 more processes have sent help message help-mpi-btl-openib-cpc-base.txt / no cpcs for port
	FillingsUpdate:  mu: -0.181691014  nElectrons: 33.000000  magneticMoment: [ Abs: 0.04107  Tot: +0.04000 ]
LCAOMinimize: Iter:   0  F: -53.3331714616941568  |grad|_K:  5.541e-03  alpha:  1.000e+00
	FillingsUpdate:  mu: -0.189076398  nElectrons: 33.000000  magneticMoment: [ Abs: 0.04113  Tot: +0.04000 ]
LCAOMinimize: Iter:   1  F: -53.5590577668181993  |grad|_K:  1.029e-03  alpha:  4.231e-01  linmin:  3.518e-01  cgtest: -8.108e-01  t[s]:      6.92
	FillingsUpdate:  mu: -0.183285867  nElectrons: 33.000000  magneticMoment: [ Abs: 0.04121  Tot: +0.04000 ]
LCAOMinimize: Iter:   2  F: -53.5607132152549283  |grad|_K:  8.716e-04  alpha:  2.305e-01  linmin: -9.563e-04  cgtest:  8.907e-01  t[s]:      8.94
LCAOMinimize: Encountered beta<0, resetting CG.
	FillingsUpdate:  mu: -0.181626205  nElectrons: 33.000000  magneticMoment: [ Abs: 0.04133  Tot: +0.04000 ]
LCAOMinimize: Iter:   3  F: -53.5665435617795609  |grad|_K:  1.019e-04  alpha:  3.762e-01  linmin:  9.816e-02  cgtest: -2.654e-01  t[s]:     10.97
	FillingsUpdate:  mu: -0.182777943  nElectrons: 33.000000  magneticMoment: [ Abs: 0.04145  Tot: +0.04000 ]
LCAOMinimize: Iter:   4  F: -53.5666143007664388  |grad|_K:  3.008e-05  alpha:  3.678e-01  linmin:  1.793e-03  cgtest:  3.742e-01  t[s]:     12.98
LCAOMinimize: Encountered beta<0, resetting CG.
	FillingsUpdate:  mu: -0.182902866  nElectrons: 33.000000  magneticMoment: [ Abs: 0.04154  Tot: +0.04000 ]
LCAOMinimize: Iter:   5  F: -53.5666210750576113  |grad|_K:  4.553e-06  alpha:  3.619e-01  linmin: -4.105e-04  cgtest: -1.915e-04  t[s]:     15.01
	FillingsUpdate:  mu: -0.182842053  nElectrons: 33.000000  magneticMoment: [ Abs: 0.04164  Tot: +0.04000 ]
LCAOMinimize: Iter:   6  F: -53.5666213079577815  |grad|_K:  1.764e-06  alpha:  5.429e-01  linmin:  2.828e-04  cgtest: -6.883e-04  t[s]:     17.01
	FillingsUpdate:  mu: -0.182841893  nElectrons: 33.000000  magneticMoment: [ Abs: 0.04173  Tot: +0.04000 ]
LCAOMinimize: Iter:   7  F: -53.5666213462034051  |grad|_K:  2.782e-07  alpha:  5.941e-01  linmin: -4.005e-04  cgtest:  4.518e-03  t[s]:     19.01
LCAOMinimize: Converged (|Delta F|<1.000000e-06 for 2 iters).


---- Citations for features of the code used in this run ----

   Software package:
      R. Sundararaman, K. Letchworth-Weaver, K.A. Schwarz, D. Gunceler, Y. Ozhabes and T.A. Arias, 'JDFTx: software for joint density-functional theory', SoftwareX 6, 278 (2017)

   gga-PBE exchange-correlation functional:
      J.P. Perdew, K. Burke and M. Ernzerhof, Phys. Rev. Lett. 77, 3865 (1996)

   Pseudopotentials:
      M Schlipf and F Gygi, Comput. Phys. Commun. 196, 36 (2015)

   Truncated Coulomb potentials:
      R. Sundararaman and T.A. Arias, Phys. Rev. B 87, 165122 (2013)

This list may not be complete. Please suggest additional citations or
report any other bugs at https://github.com/shankar1729/jdftx/issues

Initialization completed successfully at t[s]:     19.21


-------- Electronic minimization -----------
Will mix electronic density at each iteration.
	FillingsUpdate:  mu: -0.182841893  nElectrons: 33.000000  magneticMoment: [ Abs: 0.04173  Tot: +0.04000 ]
	FillingsUpdate:  mu: -0.197536799  nElectrons: 33.000000  magneticMoment: [ Abs: 0.04173  Tot: +0.04000 ]
SCF: Cycle:  0   F: -53.996777751006370   dF: -4.302e-01   |Residual|: 2.307e-01   |deigs|: 1.091e-01  t[s]:     23.86
	FillingsUpdate:  mu: -0.175582907  nElectrons: 33.000000  magneticMoment: [ Abs: 0.04423  Tot: +0.04000 ]
SCF: Cycle:  1   F: -54.017287841387557   dF: -2.051e-02   |Residual|: 1.288e-01   |deigs|: 2.708e-02  t[s]:     27.26
	FillingsUpdate:  mu: -0.145538761  nElectrons: 33.000000  magneticMoment: [ Abs: 0.04492  Tot: +0.04000 ]
SCF: Cycle:  2   F: -54.029953588518246   dF: -1.267e-02   |Residual|: 2.798e-02   |deigs|: 3.104e-02  t[s]:     30.68
	FillingsUpdate:  mu: -0.141987051  nElectrons: 33.000000  magneticMoment: [ Abs: 0.04431  Tot: +0.04000 ]
SCF: Cycle:  3   F: -54.030325860841806   dF: -3.723e-04   |Residual|: 1.582e-02   |deigs|: 8.488e-03  t[s]:     34.16
	FillingsUpdate:  mu: -0.129551931  nElectrons: 33.000000  magneticMoment: [ Abs: 0.04912  Tot: +0.04000 ]
SCF: Cycle:  4   F: -54.031006109001652   dF: -6.802e-04   |Residual|: 8.169e-03   |deigs|: 1.150e-02  t[s]:     37.67
	FillingsUpdate:  mu: -0.124127283  nElectrons: 33.000000  magneticMoment: [ Abs: 0.04676  Tot: +0.04000 ]
SCF: Cycle:  5   F: -54.031162757723116   dF: -1.566e-04   |Residual|: 5.400e-03   |deigs|: 5.160e-03  t[s]:     41.20
	FillingsUpdate:  mu: -0.117743031  nElectrons: 33.000000  magneticMoment: [ Abs: 0.04453  Tot: +0.04000 ]
SCF: Cycle:  6   F: -54.031188555632497   dF: -2.580e-05   |Residual|: 3.924e-03   |deigs|: 6.577e-03  t[s]:     44.75
	FillingsUpdate:  mu: -0.112644465  nElectrons: 33.000000  magneticMoment: [ Abs: 0.04619  Tot: +0.04000 ]
SCF: Cycle:  7   F: -54.031198447916545   dF: -9.892e-06   |Residual|: 3.095e-03   |deigs|: 5.679e-03  t[s]:     48.35
	FillingsUpdate:  mu: -0.109132376  nElectrons: 33.000000  magneticMoment: [ Abs: 0.04721  Tot: +0.04000 ]
SCF: Cycle:  8   F: -54.031222747954864   dF: -2.430e-05   |Residual|: 2.483e-03   |deigs|: 3.671e-03  t[s]:     51.96
	FillingsUpdate:  mu: -0.106834645  nElectrons: 33.000000  magneticMoment: [ Abs: 0.04568  Tot: +0.04000 ]
SCF: Cycle:  9   F: -54.031238007345344   dF: -1.526e-05   |Residual|: 2.021e-03   |deigs|: 2.486e-03  t[s]:     55.61
	FillingsUpdate:  mu: -0.103249930  nElectrons: 33.000000  magneticMoment: [ Abs: 0.04534  Tot: +0.04000 ]
SCF: Cycle: 10   F: -54.031253902050544   dF: -1.589e-05   |Residual|: 1.680e-03   |deigs|: 3.525e-03  t[s]:     59.29
	FillingsUpdate:  mu: -0.100801701  nElectrons: 33.000000  magneticMoment: [ Abs: 0.04468  Tot: +0.04000 ]
SCF: Cycle: 11   F: -54.031259213793611   dF: -5.312e-06   |Residual|: 1.378e-03   |deigs|: 2.279e-03  t[s]:     62.94
	FillingsUpdate:  mu: -0.098123115  nElectrons: 33.000000  magneticMoment: [ Abs: 0.04569  Tot: +0.04000 ]
SCF: Cycle: 12   F: -54.031260851632446   dF: -1.638e-06   |Residual|: 1.244e-03   |deigs|: 2.537e-03  t[s]:     66.59
	FillingsUpdate:  mu: -0.094436168  nElectrons: 33.000000  magneticMoment: [ Abs: 0.04604  Tot: +0.04000 ]
SCF: Cycle: 13   F: -54.031261932065497   dF: -1.080e-06   |Residual|: 1.119e-03   |deigs|: 3.438e-03  t[s]:     70.25
	FillingsUpdate:  mu: -0.090751176  nElectrons: 33.000000  magneticMoment: [ Abs: 0.04553  Tot: +0.04000 ]
SCF: Cycle: 14   F: -54.031262571458150   dF: -6.394e-07   |Residual|: 1.063e-03   |deigs|: 3.290e-03  t[s]:     73.89
	FillingsUpdate:  mu: -0.086765120  nElectrons: 33.000000  magneticMoment: [ Abs: 0.04504  Tot: +0.04000 ]
SCF: Cycle: 15   F: -54.031262637242200   dF: -6.578e-08   |Residual|: 9.264e-04   |deigs|: 3.815e-03  t[s]:     77.56
	FillingsUpdate:  mu: -0.083040842  nElectrons: 33.000000  magneticMoment: [ Abs: 0.04482  Tot: +0.04000 ]
SCF: Cycle: 16   F: -54.031264087299384   dF: -1.450e-06   |Residual|: 7.037e-04   |deigs|: 3.484e-03  t[s]:     81.22
	FillingsUpdate:  mu: -0.080950949  nElectrons: 33.000000  magneticMoment: [ Abs: 0.04485  Tot: +0.04000 ]
SCF: Cycle: 17   F: -54.031266494650275   dF: -2.407e-06   |Residual|: 4.879e-04   |deigs|: 1.874e-03  t[s]:     84.90
	FillingsUpdate:  mu: -0.080063041  nElectrons: 33.000000  magneticMoment: [ Abs: 0.04480  Tot: +0.04000 ]
SCF: Cycle: 18   F: -54.031267616107002   dF: -1.121e-06   |Residual|: 2.690e-04   |deigs|: 1.030e-03  t[s]:     88.57
	FillingsUpdate:  mu: -0.079831063  nElectrons: 33.000000  magneticMoment: [ Abs: 0.04452  Tot: +0.04000 ]
SCF: Cycle: 19   F: -54.031268025537479   dF: -4.094e-07   |Residual|: 1.487e-04   |deigs|: 4.352e-04  t[s]:     92.23
	FillingsUpdate:  mu: -0.079738792  nElectrons: 33.000000  magneticMoment: [ Abs: 0.04441  Tot: +0.04000 ]
SCF: Cycle: 20   F: -54.031268125118523   dF: -9.958e-08   |Residual|: 7.787e-05   |deigs|: 3.937e-04  t[s]:     95.90
	FillingsUpdate:  mu: -0.079738050  nElectrons: 33.000000  magneticMoment: [ Abs: 0.04436  Tot: +0.04000 ]
SCF: Cycle: 21   F: -54.031268165516956   dF: -4.040e-08   |Residual|: 4.423e-05   |deigs|: 3.293e-04  t[s]:     99.55
	FillingsUpdate:  mu: -0.079734309  nElectrons: 33.000000  magneticMoment: [ Abs: 0.04435  Tot: +0.04000 ]
SCF: Cycle: 22   F: -54.031268177932922   dF: -1.242e-08   |Residual|: 2.705e-05   |deigs|: 3.232e-04  t[s]:    103.21
	FillingsUpdate:  mu: -0.079741867  nElectrons: 33.000000  magneticMoment: [ Abs: 0.04435  Tot: +0.04000 ]
SCF: Cycle: 23   F: -54.031268185211147   dF: -7.278e-09   |Residual|: 1.595e-05   |deigs|: 4.263e-04  t[s]:    106.87
	FillingsUpdate:  mu: -0.079750496  nElectrons: 33.000000  magneticMoment: [ Abs: 0.04435  Tot: +0.04000 ]
SCF: Cycle: 24   F: -54.031268189564564   dF: -4.353e-09   |Residual|: 1.042e-05   |deigs|: 2.328e-04  t[s]:    110.53
SCF: Converged (|Delta E|<1.000000e-08 for 2 iters).


# Ionic positions in lattice coordinates:
ion C  -0.000000000000000   0.000000000000000   0.000000000000000 1
ion N   0.164313074529992   0.328626149059985   0.000000000000000 1
ion N   0.164313074529992   0.835686925470008   0.000000000000000 1
ion N   0.666666666666667   0.333333333333333   0.000000000000000 1
ion N   0.671373850940015   0.835686925470008   0.000000000000000 1
ion B  -0.001576660817548   0.499211669591226   0.000000000000000 1
ion B   0.500788330408774   0.001576660817548   0.000000000000000 1
ion B   0.500788330408774   0.499211669591226   0.000000000000000 1

# Forces in Lattice coordinates:
force C  -0.000000000000000  -0.000000000000000   0.000000000000000 1
force N  -0.000000000000000  -0.041971110271206  -0.000000000000000 1
force N  -0.041971110271209   0.041971110271207   0.000000000000000 1
force N   0.000000000000000  -0.000000000000000   0.000000000000000 1
force N   0.041971110271208   0.000000000000000   0.000000000000000 1
force B   0.006930660572069   0.000000000000000  -0.000000000000000 1
force B  -0.000000000000000  -0.006930660572070   0.000000000000000 1
force B  -0.006930660572070   0.006930660572070   0.000000000000000 1

# Energy components:
   Eewald =      -85.5148968124686775
       EH =      -43.5374506643686274
     Eloc =       54.1458449464606701
      Enl =       -2.2686904387714892
   Epulay =       -0.0000008322926719
      Exc =      -15.3339320478456571
       KE =       38.4778582838458050
-------------------------------------
     Etot =      -54.0312675654406434
       TS =        0.0000006241239180
-------------------------------------
        F =      -54.0312681895645639

IonicMinimize: Iter:   0  F: -54.031268189564564  |grad|_K:  1.856e-03  t[s]:    110.86
IonicMinimize: None of the convergence criteria satisfied after 0 iterations.

#--- Lowdin population analysis ---
# oxidation-state C +0.255
# magnetic-moments C +0.021
# oxidation-state N -0.254 -0.254 -0.380 -0.254
# magnetic-moments N -0.000 -0.000 +0.000 -0.000
# oxidation-state B +0.402 +0.402 +0.402
# magnetic-moments B +0.006 +0.006 +0.006


Dumping 'BN22BC-0.04.fillings' ... done
Dumping 'BN22BC-0.04.wfns' ... done
Dumping 'BN22BC-0.04.n_up' ... done
Dumping 'BN22BC-0.04.n_dn' ... done
Dumping 'BN22BC-0.04.eigenvals' ... done
End date and time: Sun Jan 30 23:11:11 2022  (Duration: 0-0:01:53.87)
Done!
