magnetization is 0.34
--------------------------------------------------------------------------
The library attempted to open the following supporting CUDA libraries,
but each of them failed.  CUDA-aware support is disabled.
libcuda.so.1: cannot open shared object file: No such file or directory
libcuda.dylib: cannot open shared object file: No such file or directory
/usr/lib64/libcuda.so.1: cannot open shared object file: No such file or directory
/usr/lib64/libcuda.dylib: cannot open shared object file: No such file or directory
If you are not interested in CUDA-aware support, then run with
--mca opal_warn_on_missing_libcuda 0 to suppress this message.  If you are interested
in CUDA-aware support, then try setting LD_LIBRARY_PATH to the location
of libcuda.so.1 to get passed this issue.
--------------------------------------------------------------------------
--------------------------------------------------------------------------
No OpenFabrics connection schemes reported that they were able to be
used on a specific port.  As such, the openib BTL (OpenFabrics
support) will be disabled for this port.

  Local host:           d-17-11-2
  Local device:         mlx5_1
  Local port:           1
  CPCs attempted:       rdmacm, udcm
--------------------------------------------------------------------------

*************** JDFTx 1.6.0 (git hash 42ebbcc2) ***************

Start date and time: Sun Jan 30 23:09:17 2022
Executable jdftx with command-line: -i BN22BC.in
Running on hosts (process indices):  d-17-11-2 (0-37)
Divided in process groups (process indices):  0 (0)  1 (1)  2 (2)  3 (3)  4 (4)  5 (5)  6 (6)  7 (7)  8 (8)  9 (9)  10 (10)  11 (11)  12 (12)  13 (13)  14 (14)  15 (15)  16 (16)  17 (17)  18 (18)  19 (19)  20 (20)  21 (21)  22 (22)  23 (23)  24 (24)  25 (25)  26 (26)  27 (27)  28 (28)  29 (29)  30 (30)  31 (31)  32 (32)  33 (33)  34 (34)  35 (35)  36 (36)  37 (37)
Resource initialization completed at t[s]:      0.00
Run totals: 38 processes, 48 threads, 0 GPUs


Input parsed successfully to the following command list (including defaults):

basis kpoint-dependent
coords-type Lattice
core-overlap-check vector
coulomb-interaction Slab 001
davidson-band-ratio 1.1
dump End State ElecDensity BandEigs
dump-name BN22BC-0.34.$VAR
elec-cutoff 20
elec-eigen-algo Davidson
elec-ex-corr gga-PBE
elec-initial-magnetization 0.340000 yes
elec-smearing Fermi 1e-05
electronic-minimize  \
	dirUpdateScheme      FletcherReeves \
	linminMethod         DirUpdateRecommended \
	nIterations          100 \
	history              15 \
	knormThreshold       0 \
	energyDiffThreshold  1e-08 \
	nEnergyDiff          2 \
	alphaTstart          1 \
	alphaTmin            1e-10 \
	updateTestStepSize   yes \
	alphaTreduceFactor   0.1 \
	alphaTincreaseFactor 3 \
	nAlphaAdjustMax      3 \
	wolfeEnergy          0.0001 \
	wolfeGradient        0.9 \
	fdTest               no
electronic-scf  \
	nIterations	1000 \
	energyDiffThreshold	1e-08 \
	residualThreshold	1e-07 \
	mixFraction	0.5 \
	qMetric	0.8 \
	history	10 \
	nEigSteps	2 \
	eigDiffThreshold	1e-08 \
	mixedVariable	Density \
	qKerker	0.8 \
	qKappa	-1 \
	verbose	no \
	mixFractionMag	1.5
exchange-regularization WignerSeitzTruncated
fluid None
fluid-ex-corr (null) lda-PZ
fluid-gummel-loop 10 1.000000e-05
fluid-minimize  \
	dirUpdateScheme      PolakRibiere \
	linminMethod         DirUpdateRecommended \
	nIterations          100 \
	history              15 \
	knormThreshold       0 \
	energyDiffThreshold  0 \
	nEnergyDiff          2 \
	alphaTstart          1 \
	alphaTmin            1e-10 \
	updateTestStepSize   yes \
	alphaTreduceFactor   0.1 \
	alphaTincreaseFactor 3 \
	nAlphaAdjustMax      3 \
	wolfeEnergy          0.0001 \
	wolfeGradient        0.9 \
	fdTest               no
fluid-solvent H2O 55.338 ScalarEOS \
	epsBulk 78.4 \
	pMol 0.92466 \
	epsInf 1.77 \
	Pvap 1.06736e-10 \
	sigmaBulk 4.62e-05 \
	Rvdw 2.61727 \
	Res 1.42 \
	tauNuc 343133 \
	poleEl 15 7 1
forces-output-coords Positions
ion C   0.000000000000000  -0.000000000000000   0.000000000000000 1
ion N   0.164313074529992   0.328626149059985   0.000000000000000 1
ion N   0.164313074529992   0.835686925470008   0.000000000000000 1
ion N   0.666666666666667   0.333333333333333   0.000000000000000 1
ion N   0.671373850940015   0.835686925470008   0.000000000000000 1
ion B  -0.001576660817548   0.499211669591226   0.000000000000000 1
ion B   0.500788330408774   0.001576660817548   0.000000000000000 1
ion B   0.500788330408774   0.499211669591226   0.000000000000000 1
ion-species SG15/$ID_ONCV_PBE.upf
ion-width 0
ionic-minimize  \
	dirUpdateScheme      L-BFGS \
	linminMethod         DirUpdateRecommended \
	nIterations          0 \
	history              15 \
	knormThreshold       0.0001 \
	energyDiffThreshold  1e-06 \
	nEnergyDiff          2 \
	alphaTstart          1 \
	alphaTmin            1e-10 \
	updateTestStepSize   yes \
	alphaTreduceFactor   0.1 \
	alphaTincreaseFactor 3 \
	nAlphaAdjustMax      3 \
	wolfeEnergy          0.0001 \
	wolfeGradient        0.9 \
	fdTest               no
kpoint   0.000000000000   0.000000000000   0.000000000000  1.00000000000000
kpoint-folding 12 12 1 
latt-move-scale 1 1 1
latt-scale 1 1 1 
lattice  \
	   9.356640512437433   -4.678320256218713    0.000000000000000  \
	  -0.000000000000000    8.103088377849462    0.000000000000000  \
	   0.000000000000000    0.000000000000000   40.000000000000000 
lattice-minimize  \
	dirUpdateScheme      L-BFGS \
	linminMethod         DirUpdateRecommended \
	nIterations          0 \
	history              15 \
	knormThreshold       0 \
	energyDiffThreshold  1e-06 \
	nEnergyDiff          2 \
	alphaTstart          1 \
	alphaTmin            1e-10 \
	updateTestStepSize   yes \
	alphaTreduceFactor   0.1 \
	alphaTincreaseFactor 3 \
	nAlphaAdjustMax      3 \
	wolfeEnergy          0.0001 \
	wolfeGradient        0.9 \
	fdTest               no
lcao-params -1 1e-06 1e-05
pcm-variant GLSSA13
spintype z-spin
subspace-rotation-factor 1 yes
symmetries automatic
symmetry-threshold 0.0001



---------- Setting up symmetries ----------

Found 24 point-group symmetries of the bravais lattice
Found 12 space-group symmetries with basis
Applied RMS atom displacement 3.80214e-15 bohrs to make symmetries exact.

---------- Initializing the Grid ----------
R = 
[      9.35664     -4.67832            0  ]
[            0      8.10309            0  ]
[            0            0           40  ]
unit cell volume = 3032.71
G =
[   0.671522   0.387703         -0  ]
[          0   0.775406         -0  ]
[         -0         -0    0.15708  ]
Minimum fftbox size, Smin = [  40  40  164  ]
Chosen fftbox size, S = [  40  40  168  ]

---------- Exchange Correlation functional ----------
Initalized PBE GGA exchange.
Initalized PBE GGA correlation.

---------- Setting up pseudopotentials ----------
Width of ionic core gaussian charges (only for fluid interactions / plotting) set to 0

Reading pseudopotential file '/home/gridsan/aligho/DFT/build-Nov24/pseudopotentials/SG15/C_ONCV_PBE.upf':
  'C' pseudopotential, 'PBE' functional
  Generated using ONCVPSP code by D. R. Hamann
  Author: Martin Schlipf and Francois Gygi  Date: 150915.
  4 valence electrons, 2 orbitals, 4 projectors, 1248 radial grid points, with lMax = 1
  Transforming local potential to a uniform radial grid of dG=0.02 with 1502 points.
  Transforming nonlocal projectors to a uniform radial grid of dG=0.02 with 432 points.
    2S    l: 0   occupation:  2.0   eigenvalue: -0.505335
    2P    l: 1   occupation:  2.0   eigenvalue: -0.194238
  Transforming atomic orbitals to a uniform radial grid of dG=0.02 with 432 points.
  Core radius for overlap checks: 1.23 bohrs.
  Reading pulay file /home/gridsan/aligho/DFT/build-Nov24/pseudopotentials/SG15/C_ONCV_PBE.pulay ... using dE_dnG = -9.239532e-03 computed for Ecut = 20.

Reading pseudopotential file '/home/gridsan/aligho/DFT/build-Nov24/pseudopotentials/SG15/N_ONCV_PBE.upf':
  'N' pseudopotential, 'PBE' functional
  Generated using ONCVPSP code by D. R. Hamann
  Author: Martin Schlipf and Francois Gygi  Date: 150915.
  5 valence electrons, 2 orbitals, 4 projectors, 1058 radial grid points, with lMax = 1
  Transforming local potential to a uniform radial grid of dG=0.02 with 1502 points.
  Transforming nonlocal projectors to a uniform radial grid of dG=0.02 with 432 points.
    2S    l: 0   occupation:  2.0   eigenvalue: -0.682907
    2P    l: 1   occupation:  3.0   eigenvalue: -0.260548
  Transforming atomic orbitals to a uniform radial grid of dG=0.02 with 432 points.
  Core radius for overlap checks: 1.35 bohrs.
  Reading pulay file /home/gridsan/aligho/DFT/build-Nov24/pseudopotentials/SG15/N_ONCV_PBE.pulay ... using dE_dnG = -2.956256e-02 computed for Ecut = 20.

Reading pseudopotential file '/home/gridsan/aligho/DFT/build-Nov24/pseudopotentials/SG15/B_ONCV_PBE.upf':
  'B' pseudopotential, 'PBE' functional
  Generated using ONCVPSP code by D. R. Hamann
  Author: Martin Schlipf and Francois Gygi  Date: 150915.
  3 valence electrons, 2 orbitals, 4 projectors, 1534 radial grid points, with lMax = 1
  Transforming local potential to a uniform radial grid of dG=0.02 with 1502 points.
  Transforming nonlocal projectors to a uniform radial grid of dG=0.02 with 432 points.
    2S    l: 0   occupation:  2.0   eigenvalue: -0.347027
    2P    l: 1   occupation:  1.0   eigenvalue: -0.132548
  Transforming atomic orbitals to a uniform radial grid of dG=0.02 with 432 points.
  Core radius for overlap checks: 1.60 bohrs.
  Reading pulay file /home/gridsan/aligho/DFT/build-Nov24/pseudopotentials/SG15/B_ONCV_PBE.pulay ... using dE_dnG = -3.748568e-04 computed for Ecut = 20.

Initialized 3 species with 8 total atoms.

Folded 1 k-points by 12x12x1 to 144 k-points.

---------- Setting up k-points, bands, fillings ----------
Adding inversion symmetry to k-mesh for non-inversion-symmetric unit cell.
Reduced to 19 k-points under symmetry. 
Computing the number of bands and number of electrons
Calculating initial fillings.
nElectrons:  33.000000   nBands: 32   nStates: 38

----- Setting up reduced wavefunction bases (one per k-point) -----
average nbasis = 12955.938 , ideal nbasis = 12955.957

---------- Setting up coulomb interaction ----------
Initialized slab truncation along lattice direction 001

---------- Setting up 2D ewald sum ----------
Optimum gaussian width for ewald sums = 5.194429 bohr.
Real space sums over 289 unit cells with max indices [  8  8  0  ]
Reciprocal space sums over 81 terms with max indices [  4  4  0  ]

---------- Allocating electronic variables ----------
Initializing wave functions:  linear combination of atomic orbitals
C pseudo-atom occupations:   s ( 2 )  p ( 2 )
N pseudo-atom occupations:   s ( 2 )  p ( 3 )
B pseudo-atom occupations:   s ( 2 )  p ( 1 )
[d-17-11-2:27067] 37 more processes have sent help message help-mpi-common-cuda.txt / dlopen failed
[d-17-11-2:27067] Set MCA parameter "orte_base_help_aggregate" to 0 to see all help / error messages
[d-17-11-2:27067] 37 more processes have sent help message help-mpi-btl-openib-cpc-base.txt / no cpcs for port
	FillingsUpdate:  mu: -0.182189348  nElectrons: 33.000000  magneticMoment: [ Abs: 0.34874  Tot: +0.34000 ]
LCAOMinimize: Iter:   0  F: -53.3386626922389624  |grad|_K:  5.492e-03  alpha:  1.000e+00
	FillingsUpdate:  mu: -0.186083596  nElectrons: 33.000000  magneticMoment: [ Abs: 0.34976  Tot: +0.34000 ]
LCAOMinimize: Iter:   1  F: -53.5602817530763105  |grad|_K:  9.876e-04  alpha:  4.242e-01  linmin:  3.467e-01  cgtest: -8.186e-01  t[s]:      6.92
	FillingsUpdate:  mu: -0.180864609  nElectrons: 33.000000  magneticMoment: [ Abs: 0.35044  Tot: +0.34000 ]
LCAOMinimize: Iter:   2  F: -53.5617805586234752  |grad|_K:  8.386e-04  alpha:  2.313e-01  linmin: -3.623e-04  cgtest:  8.918e-01  t[s]:      8.95
LCAOMinimize: Encountered beta<0, resetting CG.
	FillingsUpdate:  mu: -0.180251633  nElectrons: 33.000000  magneticMoment: [ Abs: 0.35141  Tot: +0.34000 ]
LCAOMinimize: Iter:   3  F: -53.5672119384313277  |grad|_K:  9.883e-05  alpha:  3.783e-01  linmin:  9.645e-02  cgtest: -2.489e-01  t[s]:     10.99
	FillingsUpdate:  mu: -0.181272609  nElectrons: 33.000000  magneticMoment: [ Abs: 0.35230  Tot: +0.34000 ]
LCAOMinimize: Iter:   4  F: -53.5672798366367431  |grad|_K:  2.857e-05  alpha:  3.713e-01  linmin:  1.973e-03  cgtest:  3.418e-01  t[s]:     13.00
LCAOMinimize: Encountered beta<0, resetting CG.
	FillingsUpdate:  mu: -0.181366010  nElectrons: 33.000000  magneticMoment: [ Abs: 0.35296  Tot: +0.34000 ]
LCAOMinimize: Iter:   5  F: -53.5672864470706926  |grad|_K:  7.614e-06  alpha:  3.914e-01  linmin: -2.907e-04  cgtest:  1.633e-04  t[s]:     14.99
	FillingsUpdate:  mu: -0.181272780  nElectrons: 33.000000  magneticMoment: [ Abs: 0.35412  Tot: +0.34000 ]
LCAOMinimize: Iter:   6  F: -53.5672874666338501  |grad|_K:  4.554e-06  alpha:  8.496e-01  linmin: -1.974e-04  cgtest:  1.130e-03  t[s]:     16.99
	FillingsUpdate:  mu: -0.181301380  nElectrons: 33.000000  magneticMoment: [ Abs: 0.35467  Tot: +0.34000 ]
LCAOMinimize: Iter:   7  F: -53.5672877075661376  |grad|_K:  1.095e-06  alpha:  5.612e-01  linmin: -7.306e-05  cgtest: -2.359e-03  t[s]:     19.02
	FillingsUpdate:  mu: -0.181314314  nElectrons: 33.000000  magneticMoment: [ Abs: 0.35481  Tot: +0.34000 ]
LCAOMinimize: Iter:   8  F: -53.5672877281575808  |grad|_K:  2.992e-07  alpha:  8.316e-01  linmin:  2.775e-03  cgtest: -9.651e-03  t[s]:     21.01
LCAOMinimize: Converged (|Delta F|<1.000000e-06 for 2 iters).


---- Citations for features of the code used in this run ----

   Software package:
      R. Sundararaman, K. Letchworth-Weaver, K.A. Schwarz, D. Gunceler, Y. Ozhabes and T.A. Arias, 'JDFTx: software for joint density-functional theory', SoftwareX 6, 278 (2017)

   gga-PBE exchange-correlation functional:
      J.P. Perdew, K. Burke and M. Ernzerhof, Phys. Rev. Lett. 77, 3865 (1996)

   Pseudopotentials:
      M Schlipf and F Gygi, Comput. Phys. Commun. 196, 36 (2015)

   Truncated Coulomb potentials:
      R. Sundararaman and T.A. Arias, Phys. Rev. B 87, 165122 (2013)

This list may not be complete. Please suggest additional citations or
report any other bugs at https://github.com/shankar1729/jdftx/issues

Initialization completed successfully at t[s]:     21.21


-------- Electronic minimization -----------
Will mix electronic density at each iteration.
	FillingsUpdate:  mu: -0.181314314  nElectrons: 33.000000  magneticMoment: [ Abs: 0.35481  Tot: +0.34000 ]
	FillingsUpdate:  mu: -0.198274566  nElectrons: 33.000000  magneticMoment: [ Abs: 0.35481  Tot: +0.34000 ]
SCF: Cycle:  0   F: -53.997743981395836   dF: -4.305e-01   |Residual|: 2.313e-01   |deigs|: 1.091e-01  t[s]:     25.80
	FillingsUpdate:  mu: -0.176271558  nElectrons: 33.000000  magneticMoment: [ Abs: 0.36763  Tot: +0.34000 ]
SCF: Cycle:  1   F: -54.017931991559813   dF: -2.019e-02   |Residual|: 1.289e-01   |deigs|: 2.699e-02  t[s]:     29.17
	FillingsUpdate:  mu: -0.145321802  nElectrons: 33.000000  magneticMoment: [ Abs: 0.38233  Tot: +0.34000 ]
SCF: Cycle:  2   F: -54.030666185582703   dF: -1.273e-02   |Residual|: 2.854e-02   |deigs|: 3.126e-02  t[s]:     32.58
	FillingsUpdate:  mu: -0.141923639  nElectrons: 33.000000  magneticMoment: [ Abs: 0.38308  Tot: +0.34000 ]
SCF: Cycle:  3   F: -54.031007253433287   dF: -3.411e-04   |Residual|: 1.566e-02   |deigs|: 8.545e-03  t[s]:     36.02
	FillingsUpdate:  mu: -0.130151227  nElectrons: 33.000000  magneticMoment: [ Abs: 0.37181  Tot: +0.34000 ]
SCF: Cycle:  4   F: -54.031678471469945   dF: -6.712e-04   |Residual|: 8.193e-03   |deigs|: 1.089e-02  t[s]:     39.48
	FillingsUpdate:  mu: -0.125469534  nElectrons: 33.000000  magneticMoment: [ Abs: 0.37482  Tot: +0.34000 ]
SCF: Cycle:  5   F: -54.031829889659399   dF: -1.514e-04   |Residual|: 6.105e-03   |deigs|: 4.632e-03  t[s]:     42.96
	FillingsUpdate:  mu: -0.119041912  nElectrons: 33.000000  magneticMoment: [ Abs: 0.37525  Tot: +0.34000 ]
SCF: Cycle:  6   F: -54.031890704854973   dF: -6.082e-05   |Residual|: 4.062e-03   |deigs|: 6.016e-03  t[s]:     46.47
	FillingsUpdate:  mu: -0.114433143  nElectrons: 33.000000  magneticMoment: [ Abs: 0.37491  Tot: +0.34000 ]
SCF: Cycle:  7   F: -54.031885355183888   dF: +5.350e-06   |Residual|: 3.263e-03   |deigs|: 5.610e-03  t[s]:     50.02
	FillingsUpdate:  mu: -0.110140342  nElectrons: 33.000000  magneticMoment: [ Abs: 0.37521  Tot: +0.34000 ]
SCF: Cycle:  8   F: -54.031908669598621   dF: -2.331e-05   |Residual|: 2.686e-03   |deigs|: 4.463e-03  t[s]:     53.59
	FillingsUpdate:  mu: -0.107177234  nElectrons: 33.000000  magneticMoment: [ Abs: 0.37327  Tot: +0.34000 ]
SCF: Cycle:  9   F: -54.031928646055611   dF: -1.998e-05   |Residual|: 2.060e-03   |deigs|: 3.210e-03  t[s]:     57.21
	FillingsUpdate:  mu: -0.104727416  nElectrons: 33.000000  magneticMoment: [ Abs: 0.37418  Tot: +0.34000 ]
SCF: Cycle: 10   F: -54.031942354285668   dF: -1.371e-05   |Residual|: 1.749e-03   |deigs|: 2.567e-03  t[s]:     60.82
	FillingsUpdate:  mu: -0.101690488  nElectrons: 33.000000  magneticMoment: [ Abs: 0.37491  Tot: +0.34000 ]
SCF: Cycle: 11   F: -54.031951252319821   dF: -8.898e-06   |Residual|: 1.408e-03   |deigs|: 2.869e-03  t[s]:     64.47
	FillingsUpdate:  mu: -0.099025470  nElectrons: 33.000000  magneticMoment: [ Abs: 0.37402  Tot: +0.34000 ]
SCF: Cycle: 12   F: -54.031954969724985   dF: -3.717e-06   |Residual|: 1.282e-03   |deigs|: 2.465e-03  t[s]:     68.10
	FillingsUpdate:  mu: -0.095588400  nElectrons: 33.000000  magneticMoment: [ Abs: 0.37439  Tot: +0.34000 ]
SCF: Cycle: 13   F: -54.031956302854660   dF: -1.333e-06   |Residual|: 1.121e-03   |deigs|: 3.268e-03  t[s]:     71.72
	FillingsUpdate:  mu: -0.092255031  nElectrons: 33.000000  magneticMoment: [ Abs: 0.37349  Tot: +0.34000 ]
SCF: Cycle: 14   F: -54.031956208904312   dF: +9.395e-08   |Residual|: 1.091e-03   |deigs|: 2.987e-03  t[s]:     75.35
	FillingsUpdate:  mu: -0.088188923  nElectrons: 33.000000  magneticMoment: [ Abs: 0.37450  Tot: +0.34000 ]
SCF: Cycle: 15   F: -54.031955869781548   dF: +3.391e-07   |Residual|: 9.730e-04   |deigs|: 3.774e-03  t[s]:     79.00
	FillingsUpdate:  mu: -0.084325651  nElectrons: 33.000000  magneticMoment: [ Abs: 0.37431  Tot: +0.34000 ]
SCF: Cycle: 16   F: -54.031957296890475   dF: -1.427e-06   |Residual|: 7.685e-04   |deigs|: 3.654e-03  t[s]:     82.62
	FillingsUpdate:  mu: -0.081638721  nElectrons: 33.000000  magneticMoment: [ Abs: 0.37365  Tot: +0.34000 ]
SCF: Cycle: 17   F: -54.031960017063845   dF: -2.720e-06   |Residual|: 5.639e-04   |deigs|: 2.411e-03  t[s]:     86.24
	FillingsUpdate:  mu: -0.080439313  nElectrons: 33.000000  magneticMoment: [ Abs: 0.37325  Tot: +0.34000 ]
SCF: Cycle: 18   F: -54.031961706127809   dF: -1.689e-06   |Residual|: 3.500e-04   |deigs|: 1.117e-03  t[s]:     89.85
	FillingsUpdate:  mu: -0.079999392  nElectrons: 33.000000  magneticMoment: [ Abs: 0.37326  Tot: +0.34000 ]
SCF: Cycle: 19   F: -54.031962204512823   dF: -4.984e-07   |Residual|: 1.972e-04   |deigs|: 5.814e-04  t[s]:     93.49
	FillingsUpdate:  mu: -0.079848753  nElectrons: 33.000000  magneticMoment: [ Abs: 0.37302  Tot: +0.34000 ]
SCF: Cycle: 20   F: -54.031962312469254   dF: -1.080e-07   |Residual|: 1.002e-04   |deigs|: 4.035e-04  t[s]:     97.10
	FillingsUpdate:  mu: -0.079788182  nElectrons: 33.000000  magneticMoment: [ Abs: 0.37303  Tot: +0.34000 ]
SCF: Cycle: 21   F: -54.031962324014160   dF: -1.154e-08   |Residual|: 4.867e-05   |deigs|: 2.342e-04  t[s]:    100.78
	FillingsUpdate:  mu: -0.079764589  nElectrons: 33.000000  magneticMoment: [ Abs: 0.37298  Tot: +0.34000 ]
SCF: Cycle: 22   F: -54.031962327712854   dF: -3.699e-09   |Residual|: 2.653e-05   |deigs|: 1.794e-04  t[s]:    104.42
	FillingsUpdate:  mu: -0.079750624  nElectrons: 33.000000  magneticMoment: [ Abs: 0.37295  Tot: +0.34000 ]
SCF: Cycle: 23   F: -54.031962331111203   dF: -3.398e-09   |Residual|: 1.353e-05   |deigs|: 2.458e-04  t[s]:    108.06
SCF: Converged (|Delta E|<1.000000e-08 for 2 iters).


# Ionic positions in lattice coordinates:
ion C  -0.000000000000000   0.000000000000000   0.000000000000000 1
ion N   0.164313074529992   0.328626149059985   0.000000000000000 1
ion N   0.164313074529992   0.835686925470008   0.000000000000000 1
ion N   0.666666666666667   0.333333333333333   0.000000000000000 1
ion N   0.671373850940015   0.835686925470008   0.000000000000000 1
ion B  -0.001576660817548   0.499211669591226   0.000000000000000 1
ion B   0.500788330408774   0.001576660817548   0.000000000000000 1
ion B   0.500788330408774   0.499211669591226   0.000000000000000 1

# Forces in Lattice coordinates:
force C  -0.000000000000000  -0.000000000000000   0.000000000000000 1
force N   0.000000000000000  -0.037480425092411   0.000000000000000 1
force N  -0.037480425092413   0.037480425092411   0.000000000000000 1
force N  -0.000000000000000  -0.000000000000000   0.000000000000000 1
force N   0.037480425092411  -0.000000000000000   0.000000000000000 1
force B   0.007287356237313   0.000000000000000   0.000000000000000 1
force B   0.000000000000000  -0.007287356237313   0.000000000000000 1
force B  -0.007287356237313   0.007287356237313   0.000000000000000 1

# Energy components:
   Eewald =      -85.5148968124686775
       EH =      -43.5297377041845550
     Eloc =       54.1354119808832905
      Enl =       -2.2703876805071568
   Epulay =       -0.0000008322926719
      Exc =      -15.3364868633523681
       KE =       38.4841362931252604
-------------------------------------
     Etot =      -54.0319616187968563
       TS =        0.0000007123143473
-------------------------------------
        F =      -54.0319623311112025

IonicMinimize: Iter:   0  F: -54.031962331111203  |grad|_K:  1.666e-03  t[s]:    108.39
IonicMinimize: None of the convergence criteria satisfied after 0 iterations.

#--- Lowdin population analysis ---
# oxidation-state C +0.258
# magnetic-moments C +0.185
# oxidation-state N -0.255 -0.255 -0.381 -0.255
# magnetic-moments N -0.000 -0.000 +0.008 -0.000
# oxidation-state B +0.403 +0.403 +0.403
# magnetic-moments B +0.047 +0.047 +0.047


Dumping 'BN22BC-0.34.fillings' ... done
Dumping 'BN22BC-0.34.wfns' ... done
Dumping 'BN22BC-0.34.n_up' ... done
Dumping 'BN22BC-0.34.n_dn' ... done
Dumping 'BN22BC-0.34.eigenvals' ... done
End date and time: Sun Jan 30 23:11:10 2022  (Duration: 0-0:01:52.63)
Done!
