magnetization is -0.92
--------------------------------------------------------------------------
The library attempted to open the following supporting CUDA libraries,
but each of them failed.  CUDA-aware support is disabled.
libcuda.so.1: cannot open shared object file: No such file or directory
libcuda.dylib: cannot open shared object file: No such file or directory
/usr/lib64/libcuda.so.1: cannot open shared object file: No such file or directory
/usr/lib64/libcuda.dylib: cannot open shared object file: No such file or directory
If you are not interested in CUDA-aware support, then run with
--mca opal_warn_on_missing_libcuda 0 to suppress this message.  If you are interested
in CUDA-aware support, then try setting LD_LIBRARY_PATH to the location
of libcuda.so.1 to get passed this issue.
--------------------------------------------------------------------------
--------------------------------------------------------------------------
No OpenFabrics connection schemes reported that they were able to be
used on a specific port.  As such, the openib BTL (OpenFabrics
support) will be disabled for this port.

  Local host:           d-4-11-2
  Local device:         mlx5_1
  Local port:           1
  CPCs attempted:       rdmacm, udcm
--------------------------------------------------------------------------

*************** JDFTx 1.6.0 (git hash 42ebbcc2) ***************

Start date and time: Sun Jan 30 23:05:12 2022
Executable jdftx with command-line: -i BN22BC.in
Running on hosts (process indices):  d-4-11-2 (0-37)
Divided in process groups (process indices):  0 (0)  1 (1)  2 (2)  3 (3)  4 (4)  5 (5)  6 (6)  7 (7)  8 (8)  9 (9)  10 (10)  11 (11)  12 (12)  13 (13)  14 (14)  15 (15)  16 (16)  17 (17)  18 (18)  19 (19)  20 (20)  21 (21)  22 (22)  23 (23)  24 (24)  25 (25)  26 (26)  27 (27)  28 (28)  29 (29)  30 (30)  31 (31)  32 (32)  33 (33)  34 (34)  35 (35)  36 (36)  37 (37)
Resource initialization completed at t[s]:      0.00
Run totals: 38 processes, 48 threads, 0 GPUs


Input parsed successfully to the following command list (including defaults):

basis kpoint-dependent
coords-type Lattice
core-overlap-check vector
coulomb-interaction Slab 001
davidson-band-ratio 1.1
dump End State ElecDensity BandEigs
dump-name BN22BC--0.92.$VAR
elec-cutoff 20
elec-eigen-algo Davidson
elec-ex-corr gga-PBE
elec-initial-magnetization -0.920000 yes
elec-smearing Fermi 1e-05
electronic-minimize  \
	dirUpdateScheme      FletcherReeves \
	linminMethod         DirUpdateRecommended \
	nIterations          100 \
	history              15 \
	knormThreshold       0 \
	energyDiffThreshold  1e-08 \
	nEnergyDiff          2 \
	alphaTstart          1 \
	alphaTmin            1e-10 \
	updateTestStepSize   yes \
	alphaTreduceFactor   0.1 \
	alphaTincreaseFactor 3 \
	nAlphaAdjustMax      3 \
	wolfeEnergy          0.0001 \
	wolfeGradient        0.9 \
	fdTest               no
electronic-scf  \
	nIterations	1000 \
	energyDiffThreshold	1e-08 \
	residualThreshold	1e-07 \
	mixFraction	0.5 \
	qMetric	0.8 \
	history	10 \
	nEigSteps	2 \
	eigDiffThreshold	1e-08 \
	mixedVariable	Density \
	qKerker	0.8 \
	qKappa	-1 \
	verbose	no \
	mixFractionMag	1.5
exchange-regularization WignerSeitzTruncated
fluid None
fluid-ex-corr (null) lda-PZ
fluid-gummel-loop 10 1.000000e-05
fluid-minimize  \
	dirUpdateScheme      PolakRibiere \
	linminMethod         DirUpdateRecommended \
	nIterations          100 \
	history              15 \
	knormThreshold       0 \
	energyDiffThreshold  0 \
	nEnergyDiff          2 \
	alphaTstart          1 \
	alphaTmin            1e-10 \
	updateTestStepSize   yes \
	alphaTreduceFactor   0.1 \
	alphaTincreaseFactor 3 \
	nAlphaAdjustMax      3 \
	wolfeEnergy          0.0001 \
	wolfeGradient        0.9 \
	fdTest               no
fluid-solvent H2O 55.338 ScalarEOS \
	epsBulk 78.4 \
	pMol 0.92466 \
	epsInf 1.77 \
	Pvap 1.06736e-10 \
	sigmaBulk 4.62e-05 \
	Rvdw 2.61727 \
	Res 1.42 \
	tauNuc 343133 \
	poleEl 15 7 1
forces-output-coords Positions
ion C   0.000000000000000  -0.000000000000000   0.000000000000000 1
ion N   0.164313074529992   0.328626149059985   0.000000000000000 1
ion N   0.164313074529992   0.835686925470008   0.000000000000000 1
ion N   0.666666666666667   0.333333333333333   0.000000000000000 1
ion N   0.671373850940015   0.835686925470008   0.000000000000000 1
ion B  -0.001576660817548   0.499211669591226   0.000000000000000 1
ion B   0.500788330408774   0.001576660817548   0.000000000000000 1
ion B   0.500788330408774   0.499211669591226   0.000000000000000 1
ion-species SG15/$ID_ONCV_PBE.upf
ion-width 0
ionic-minimize  \
	dirUpdateScheme      L-BFGS \
	linminMethod         DirUpdateRecommended \
	nIterations          0 \
	history              15 \
	knormThreshold       0.0001 \
	energyDiffThreshold  1e-06 \
	nEnergyDiff          2 \
	alphaTstart          1 \
	alphaTmin            1e-10 \
	updateTestStepSize   yes \
	alphaTreduceFactor   0.1 \
	alphaTincreaseFactor 3 \
	nAlphaAdjustMax      3 \
	wolfeEnergy          0.0001 \
	wolfeGradient        0.9 \
	fdTest               no
kpoint   0.000000000000   0.000000000000   0.000000000000  1.00000000000000
kpoint-folding 12 12 1 
latt-move-scale 1 1 1
latt-scale 1 1 1 
lattice  \
	   9.356640512437433   -4.678320256218713    0.000000000000000  \
	  -0.000000000000000    8.103088377849462    0.000000000000000  \
	   0.000000000000000    0.000000000000000   40.000000000000000 
lattice-minimize  \
	dirUpdateScheme      L-BFGS \
	linminMethod         DirUpdateRecommended \
	nIterations          0 \
	history              15 \
	knormThreshold       0 \
	energyDiffThreshold  1e-06 \
	nEnergyDiff          2 \
	alphaTstart          1 \
	alphaTmin            1e-10 \
	updateTestStepSize   yes \
	alphaTreduceFactor   0.1 \
	alphaTincreaseFactor 3 \
	nAlphaAdjustMax      3 \
	wolfeEnergy          0.0001 \
	wolfeGradient        0.9 \
	fdTest               no
lcao-params -1 1e-06 1e-05
pcm-variant GLSSA13
spintype z-spin
subspace-rotation-factor 1 yes
symmetries automatic
symmetry-threshold 0.0001



---------- Setting up symmetries ----------

Found 24 point-group symmetries of the bravais lattice
Found 12 space-group symmetries with basis
Applied RMS atom displacement 3.80214e-15 bohrs to make symmetries exact.

---------- Initializing the Grid ----------
R = 
[      9.35664     -4.67832            0  ]
[            0      8.10309            0  ]
[            0            0           40  ]
unit cell volume = 3032.71
G =
[   0.671522   0.387703         -0  ]
[          0   0.775406         -0  ]
[         -0         -0    0.15708  ]
Minimum fftbox size, Smin = [  40  40  164  ]
Chosen fftbox size, S = [  40  40  168  ]

---------- Exchange Correlation functional ----------
Initalized PBE GGA exchange.
Initalized PBE GGA correlation.

---------- Setting up pseudopotentials ----------
Width of ionic core gaussian charges (only for fluid interactions / plotting) set to 0

Reading pseudopotential file '/home/gridsan/aligho/DFT/build-Nov24/pseudopotentials/SG15/C_ONCV_PBE.upf':
  'C' pseudopotential, 'PBE' functional
  Generated using ONCVPSP code by D. R. Hamann
  Author: Martin Schlipf and Francois Gygi  Date: 150915.
  4 valence electrons, 2 orbitals, 4 projectors, 1248 radial grid points, with lMax = 1
  Transforming local potential to a uniform radial grid of dG=0.02 with 1502 points.
  Transforming nonlocal projectors to a uniform radial grid of dG=0.02 with 432 points.
    2S    l: 0   occupation:  2.0   eigenvalue: -0.505335
    2P    l: 1   occupation:  2.0   eigenvalue: -0.194238
  Transforming atomic orbitals to a uniform radial grid of dG=0.02 with 432 points.
  Core radius for overlap checks: 1.23 bohrs.
  Reading pulay file /home/gridsan/aligho/DFT/build-Nov24/pseudopotentials/SG15/C_ONCV_PBE.pulay ... using dE_dnG = -9.239532e-03 computed for Ecut = 20.

Reading pseudopotential file '/home/gridsan/aligho/DFT/build-Nov24/pseudopotentials/SG15/N_ONCV_PBE.upf':
  'N' pseudopotential, 'PBE' functional
  Generated using ONCVPSP code by D. R. Hamann
  Author: Martin Schlipf and Francois Gygi  Date: 150915.
  5 valence electrons, 2 orbitals, 4 projectors, 1058 radial grid points, with lMax = 1
  Transforming local potential to a uniform radial grid of dG=0.02 with 1502 points.
  Transforming nonlocal projectors to a uniform radial grid of dG=0.02 with 432 points.
    2S    l: 0   occupation:  2.0   eigenvalue: -0.682907
    2P    l: 1   occupation:  3.0   eigenvalue: -0.260548
  Transforming atomic orbitals to a uniform radial grid of dG=0.02 with 432 points.
  Core radius for overlap checks: 1.35 bohrs.
  Reading pulay file /home/gridsan/aligho/DFT/build-Nov24/pseudopotentials/SG15/N_ONCV_PBE.pulay ... using dE_dnG = -2.956256e-02 computed for Ecut = 20.

Reading pseudopotential file '/home/gridsan/aligho/DFT/build-Nov24/pseudopotentials/SG15/B_ONCV_PBE.upf':
  'B' pseudopotential, 'PBE' functional
  Generated using ONCVPSP code by D. R. Hamann
  Author: Martin Schlipf and Francois Gygi  Date: 150915.
  3 valence electrons, 2 orbitals, 4 projectors, 1534 radial grid points, with lMax = 1
  Transforming local potential to a uniform radial grid of dG=0.02 with 1502 points.
  Transforming nonlocal projectors to a uniform radial grid of dG=0.02 with 432 points.
    2S    l: 0   occupation:  2.0   eigenvalue: -0.347027
    2P    l: 1   occupation:  1.0   eigenvalue: -0.132548
  Transforming atomic orbitals to a uniform radial grid of dG=0.02 with 432 points.
  Core radius for overlap checks: 1.60 bohrs.
  Reading pulay file /home/gridsan/aligho/DFT/build-Nov24/pseudopotentials/SG15/B_ONCV_PBE.pulay ... using dE_dnG = -3.748568e-04 computed for Ecut = 20.

Initialized 3 species with 8 total atoms.

Folded 1 k-points by 12x12x1 to 144 k-points.

---------- Setting up k-points, bands, fillings ----------
Adding inversion symmetry to k-mesh for non-inversion-symmetric unit cell.
Reduced to 19 k-points under symmetry. 
Computing the number of bands and number of electrons
Calculating initial fillings.
nElectrons:  33.000000   nBands: 32   nStates: 38

----- Setting up reduced wavefunction bases (one per k-point) -----
average nbasis = 12955.938 , ideal nbasis = 12955.957

---------- Setting up coulomb interaction ----------
Initialized slab truncation along lattice direction 001

---------- Setting up 2D ewald sum ----------
Optimum gaussian width for ewald sums = 5.194429 bohr.
Real space sums over 289 unit cells with max indices [  8  8  0  ]
Reciprocal space sums over 81 terms with max indices [  4  4  0  ]

---------- Allocating electronic variables ----------
Initializing wave functions:  linear combination of atomic orbitals
C pseudo-atom occupations:   s ( 2 )  p ( 2 )
N pseudo-atom occupations:   s ( 2 )  p ( 3 )
B pseudo-atom occupations:   s ( 2 )  p ( 1 )
[d-4-11-2:35587] 37 more processes have sent help message help-mpi-common-cuda.txt / dlopen failed
[d-4-11-2:35587] Set MCA parameter "orte_base_help_aggregate" to 0 to see all help / error messages
[d-4-11-2:35587] 37 more processes have sent help message help-mpi-btl-openib-cpc-base.txt / no cpcs for port
	FillingsUpdate:  mu: -0.180713647  nElectrons: 33.000000  magneticMoment: [ Abs: 0.94519  Tot: -0.92000 ]
LCAOMinimize: Iter:   0  F: -53.3632913150772694  |grad|_K:  5.232e-03  alpha:  1.000e+00
	FillingsUpdate:  mu: -0.181369109  nElectrons: 33.000000  magneticMoment: [ Abs: 0.95050  Tot: -0.92000 ]
LCAOMinimize: Iter:   1  F: -53.5650827948602739  |grad|_K:  9.052e-04  alpha:  4.284e-01  linmin:  3.144e-01  cgtest: -7.815e-01  t[s]:      7.01
	FillingsUpdate:  mu: -0.176647216  nElectrons: 33.000000  magneticMoment: [ Abs: 0.95295  Tot: -0.92000 ]
LCAOMinimize: Iter:   2  F: -53.5666976645100021  |grad|_K:  7.302e-04  alpha:  2.543e-01  linmin:  6.759e-04  cgtest:  8.569e-01  t[s]:      9.13
LCAOMinimize: Encountered beta<0, resetting CG.
	FillingsUpdate:  mu: -0.176284760  nElectrons: 33.000000  magneticMoment: [ Abs: 0.95576  Tot: -0.92000 ]
LCAOMinimize: Iter:   3  F: -53.5708756683192604  |grad|_K:  9.257e-05  alpha:  3.823e-01  linmin:  7.572e-02  cgtest: -1.703e-01  t[s]:     11.18
	FillingsUpdate:  mu: -0.177057657  nElectrons: 33.000000  magneticMoment: [ Abs: 0.95860  Tot: -0.92000 ]
LCAOMinimize: Iter:   4  F: -53.5709404558293372  |grad|_K:  2.506e-05  alpha:  3.866e-01  linmin:  2.654e-03  cgtest:  1.965e-01  t[s]:     13.19
	FillingsUpdate:  mu: -0.177048299  nElectrons: 33.000000  magneticMoment: [ Abs: 0.96162  Tot: -0.92000 ]
LCAOMinimize: Iter:   5  F: -53.5709481498987188  |grad|_K:  1.434e-05  alpha:  5.921e-01  linmin: -8.654e-04  cgtest:  3.455e-03  t[s]:     15.23
	FillingsUpdate:  mu: -0.176925621  nElectrons: 33.000000  magneticMoment: [ Abs: 0.96499  Tot: -0.92000 ]
LCAOMinimize: Iter:   6  F: -53.5709512075656846  |grad|_K:  6.269e-06  alpha:  7.176e-01  linmin: -1.210e-03  cgtest: -3.693e-03  t[s]:     17.24
	FillingsUpdate:  mu: -0.176966704  nElectrons: 33.000000  magneticMoment: [ Abs: 0.96580  Tot: -0.92000 ]
LCAOMinimize: Iter:   7  F: -53.5709515842382586  |grad|_K:  1.124e-06  alpha:  4.626e-01  linmin:  2.159e-05  cgtest: -1.108e-02  t[s]:     19.28
	FillingsUpdate:  mu: -0.176976776  nElectrons: 33.000000  magneticMoment: [ Abs: 0.96603  Tot: -0.92000 ]
LCAOMinimize: Iter:   8  F: -53.5709516036338300  |grad|_K:  4.764e-07  alpha:  7.437e-01  linmin:  2.662e-03  cgtest: -8.045e-03  t[s]:     21.29
LCAOMinimize: Converged (|Delta F|<1.000000e-06 for 2 iters).


---- Citations for features of the code used in this run ----

   Software package:
      R. Sundararaman, K. Letchworth-Weaver, K.A. Schwarz, D. Gunceler, Y. Ozhabes and T.A. Arias, 'JDFTx: software for joint density-functional theory', SoftwareX 6, 278 (2017)

   gga-PBE exchange-correlation functional:
      J.P. Perdew, K. Burke and M. Ernzerhof, Phys. Rev. Lett. 77, 3865 (1996)

   Pseudopotentials:
      M Schlipf and F Gygi, Comput. Phys. Commun. 196, 36 (2015)

   Truncated Coulomb potentials:
      R. Sundararaman and T.A. Arias, Phys. Rev. B 87, 165122 (2013)

This list may not be complete. Please suggest additional citations or
report any other bugs at https://github.com/shankar1729/jdftx/issues

Initialization completed successfully at t[s]:     21.49


-------- Electronic minimization -----------
Will mix electronic density at each iteration.
	FillingsUpdate:  mu: -0.176976776  nElectrons: 33.000000  magneticMoment: [ Abs: 0.96603  Tot: -0.92000 ]
	FillingsUpdate:  mu: -0.193881281  nElectrons: 33.000000  magneticMoment: [ Abs: 0.96603  Tot: -0.92000 ]
SCF: Cycle:  0   F: -54.001192712156268   dF: -4.302e-01   |Residual|: 2.322e-01   |deigs|: 1.093e-01  t[s]:     26.09
	FillingsUpdate:  mu: -0.172509898  nElectrons: 33.000000  magneticMoment: [ Abs: 1.00190  Tot: -0.92000 ]
SCF: Cycle:  1   F: -54.020906619622941   dF: -1.971e-02   |Residual|: 1.296e-01   |deigs|: 2.695e-02  t[s]:     29.49
	FillingsUpdate:  mu: -0.143078883  nElectrons: 33.000000  magneticMoment: [ Abs: 1.02045  Tot: -0.92000 ]
SCF: Cycle:  2   F: -54.033542987661704   dF: -1.264e-02   |Residual|: 2.853e-02   |deigs|: 3.116e-02  t[s]:     32.90
	FillingsUpdate:  mu: -0.139937114  nElectrons: 33.000000  magneticMoment: [ Abs: 1.02485  Tot: -0.92000 ]
SCF: Cycle:  3   F: -54.033914427670886   dF: -3.714e-04   |Residual|: 1.630e-02   |deigs|: 8.792e-03  t[s]:     36.36
	FillingsUpdate:  mu: -0.129626582  nElectrons: 33.000000  magneticMoment: [ Abs: 1.00746  Tot: -0.92000 ]
SCF: Cycle:  4   F: -54.034494425469106   dF: -5.800e-04   |Residual|: 8.622e-03   |deigs|: 9.851e-03  t[s]:     39.87
	FillingsUpdate:  mu: -0.123995252  nElectrons: 33.000000  magneticMoment: [ Abs: 1.01194  Tot: -0.92000 ]
SCF: Cycle:  5   F: -54.034711644091438   dF: -2.172e-04   |Residual|: 6.690e-03   |deigs|: 5.228e-03  t[s]:     43.35
	FillingsUpdate:  mu: -0.117954002  nElectrons: 33.000000  magneticMoment: [ Abs: 1.01182  Tot: -0.92000 ]
SCF: Cycle:  6   F: -54.034781761281160   dF: -7.012e-05   |Residual|: 4.374e-03   |deigs|: 5.533e-03  t[s]:     46.86
	FillingsUpdate:  mu: -0.112864114  nElectrons: 33.000000  magneticMoment: [ Abs: 1.00976  Tot: -0.92000 ]
SCF: Cycle:  7   F: -54.034777215191632   dF: +4.546e-06   |Residual|: 3.341e-03   |deigs|: 6.316e-03  t[s]:     50.41
	FillingsUpdate:  mu: -0.108798655  nElectrons: 33.000000  magneticMoment: [ Abs: 1.01074  Tot: -0.92000 ]
SCF: Cycle:  8   F: -54.034796459545348   dF: -1.924e-05   |Residual|: 2.900e-03   |deigs|: 4.254e-03  t[s]:     53.98
	FillingsUpdate:  mu: -0.105412782  nElectrons: 33.000000  magneticMoment: [ Abs: 1.00735  Tot: -0.92000 ]
SCF: Cycle:  9   F: -54.034819215200564   dF: -2.276e-05   |Residual|: 2.091e-03   |deigs|: 3.628e-03  t[s]:     57.61
	FillingsUpdate:  mu: -0.103167638  nElectrons: 33.000000  magneticMoment: [ Abs: 1.00758  Tot: -0.92000 ]
SCF: Cycle: 10   F: -54.034832779800283   dF: -1.356e-05   |Residual|: 1.842e-03   |deigs|: 2.335e-03  t[s]:     61.25
	FillingsUpdate:  mu: -0.100409582  nElectrons: 33.000000  magneticMoment: [ Abs: 1.00916  Tot: -0.92000 ]
SCF: Cycle: 11   F: -54.034841942059934   dF: -9.162e-06   |Residual|: 1.465e-03   |deigs|: 2.716e-03  t[s]:     64.90
	FillingsUpdate:  mu: -0.097733165  nElectrons: 33.000000  magneticMoment: [ Abs: 1.00866  Tot: -0.92000 ]
SCF: Cycle: 12   F: -54.034846544301779   dF: -4.602e-06   |Residual|: 1.328e-03   |deigs|: 2.534e-03  t[s]:     68.52
	FillingsUpdate:  mu: -0.094705856  nElectrons: 33.000000  magneticMoment: [ Abs: 1.00848  Tot: -0.92000 ]
SCF: Cycle: 13   F: -54.034848752178284   dF: -2.208e-06   |Residual|: 1.191e-03   |deigs|: 2.794e-03  t[s]:     72.16
	FillingsUpdate:  mu: -0.090984057  nElectrons: 33.000000  magneticMoment: [ Abs: 1.00724  Tot: -0.92000 ]
SCF: Cycle: 14   F: -54.034848832679579   dF: -8.050e-08   |Residual|: 1.103e-03   |deigs|: 3.456e-03  t[s]:     75.79
	FillingsUpdate:  mu: -0.087257945  nElectrons: 33.000000  magneticMoment: [ Abs: 1.00777  Tot: -0.92000 ]
SCF: Cycle: 15   F: -54.034849032665754   dF: -2.000e-07   |Residual|: 1.035e-03   |deigs|: 3.318e-03  t[s]:     79.46
	FillingsUpdate:  mu: -0.083764591  nElectrons: 33.000000  magneticMoment: [ Abs: 1.00801  Tot: -0.92000 ]
SCF: Cycle: 16   F: -54.034849980399876   dF: -9.477e-07   |Residual|: 9.129e-04   |deigs|: 3.196e-03  t[s]:     83.10
	FillingsUpdate:  mu: -0.080873280  nElectrons: 33.000000  magneticMoment: [ Abs: 1.00803  Tot: -0.92000 ]
SCF: Cycle: 17   F: -54.034852016889424   dF: -2.036e-06   |Residual|: 6.775e-04   |deigs|: 2.618e-03  t[s]:     86.74
	FillingsUpdate:  mu: -0.078949148  nElectrons: 33.000000  magneticMoment: [ Abs: 1.00755  Tot: -0.92000 ]
SCF: Cycle: 18   F: -54.034853865146296   dF: -1.848e-06   |Residual|: 4.155e-04   |deigs|: 1.688e-03  t[s]:     90.38
	FillingsUpdate:  mu: -0.078138325  nElectrons: 33.000000  magneticMoment: [ Abs: 1.00732  Tot: -0.92000 ]
SCF: Cycle: 19   F: -54.034854475535447   dF: -6.104e-07   |Residual|: 2.430e-04   |deigs|: 7.685e-04  t[s]:     94.01
	FillingsUpdate:  mu: -0.077716065  nElectrons: 33.000000  magneticMoment: [ Abs: 1.00727  Tot: -0.92000 ]
SCF: Cycle: 20   F: -54.034854677922972   dF: -2.024e-07   |Residual|: 1.358e-04   |deigs|: 7.081e-04  t[s]:     97.62
	FillingsUpdate:  mu: -0.077526258  nElectrons: 33.000000  magneticMoment: [ Abs: 1.00727  Tot: -0.92000 ]
SCF: Cycle: 21   F: -54.034854727966440   dF: -5.004e-08   |Residual|: 7.375e-05   |deigs|: 3.939e-04  t[s]:    101.26
	FillingsUpdate:  mu: -0.077448256  nElectrons: 33.000000  magneticMoment: [ Abs: 1.00725  Tot: -0.92000 ]
SCF: Cycle: 22   F: -54.034854742173223   dF: -1.421e-08   |Residual|: 3.145e-05   |deigs|: 3.205e-04  t[s]:    104.91
	FillingsUpdate:  mu: -0.077421526  nElectrons: 33.000000  magneticMoment: [ Abs: 1.00724  Tot: -0.92000 ]
SCF: Cycle: 23   F: -54.034854749148998   dF: -6.976e-09   |Residual|: 1.363e-05   |deigs|: 4.228e-04  t[s]:    108.57
	FillingsUpdate:  mu: -0.077414244  nElectrons: 33.000000  magneticMoment: [ Abs: 1.00723  Tot: -0.92000 ]
SCF: Cycle: 24   F: -54.034854751376074   dF: -2.227e-09   |Residual|: 8.385e-06   |deigs|: 3.617e-04  t[s]:    112.23
SCF: Converged (|Delta E|<1.000000e-08 for 2 iters).


# Ionic positions in lattice coordinates:
ion C  -0.000000000000000   0.000000000000000   0.000000000000000 1
ion N   0.164313074529992   0.328626149059985   0.000000000000000 1
ion N   0.164313074529992   0.835686925470008   0.000000000000000 1
ion N   0.666666666666667   0.333333333333333   0.000000000000000 1
ion N   0.671373850940015   0.835686925470008   0.000000000000000 1
ion B  -0.001576660817548   0.499211669591226   0.000000000000000 1
ion B   0.500788330408774   0.001576660817548   0.000000000000000 1
ion B   0.500788330408774   0.499211669591226   0.000000000000000 1

# Forces in Lattice coordinates:
force C   0.000000000000000  -0.000000000000000   0.000000000000000 1
force N   0.000000000000000  -0.007343394936178   0.000000000000000 1
force N  -0.007343394936180   0.007343394936177  -0.000000000000000 1
force N   0.000000000000000   0.000000000000000   0.000000000000000 1
force N   0.007343394936180  -0.000000000000000  -0.000000000000000 1
force B   0.002983995354086   0.000000000000000   0.000000000000000 1
force B   0.000000000000000  -0.002983995354086   0.000000000000000 1
force B  -0.002983995354086   0.002983995354086   0.000000000000000 1

# Energy components:
   Eewald =      -85.5148968124686775
       EH =      -43.4731341381438341
     Eloc =       54.0588436300692692
      Enl =       -2.2825142372443707
   Epulay =       -0.0000008322926719
      Exc =      -15.3537992132719161
       KE =       38.5306473517471133
-------------------------------------
     Etot =      -54.0348542516050756
       TS =        0.0000004997709968
-------------------------------------
        F =      -54.0348547513760735

IonicMinimize: Iter:   0  F: -54.034854751376074  |grad|_K:  3.458e-04  t[s]:    112.56
IonicMinimize: None of the convergence criteria satisfied after 0 iterations.

#--- Lowdin population analysis ---
# oxidation-state C +0.278
# magnetic-moments C -0.514
# oxidation-state N -0.265 -0.265 -0.383 -0.265
# magnetic-moments N -0.002 -0.002 -0.031 -0.002
# oxidation-state B +0.405 +0.405 +0.405
# magnetic-moments B -0.116 -0.116 -0.116


Dumping 'BN22BC--0.92.fillings' ... done
Dumping 'BN22BC--0.92.wfns' ... done
Dumping 'BN22BC--0.92.n_up' ... done
Dumping 'BN22BC--0.92.n_dn' ... done
Dumping 'BN22BC--0.92.eigenvals' ... done
End date and time: Sun Jan 30 23:07:06 2022  (Duration: 0-0:01:54.30)
Done!
