magnetization is 1.0
--------------------------------------------------------------------------
The library attempted to open the following supporting CUDA libraries,
but each of them failed.  CUDA-aware support is disabled.
libcuda.so.1: cannot open shared object file: No such file or directory
libcuda.dylib: cannot open shared object file: No such file or directory
/usr/lib64/libcuda.so.1: cannot open shared object file: No such file or directory
/usr/lib64/libcuda.dylib: cannot open shared object file: No such file or directory
If you are not interested in CUDA-aware support, then run with
--mca opal_warn_on_missing_libcuda 0 to suppress this message.  If you are interested
in CUDA-aware support, then try setting LD_LIBRARY_PATH to the location
of libcuda.so.1 to get passed this issue.
--------------------------------------------------------------------------
--------------------------------------------------------------------------
No OpenFabrics connection schemes reported that they were able to be
used on a specific port.  As such, the openib BTL (OpenFabrics
support) will be disabled for this port.

  Local host:           d-6-12-4
  Local device:         mlx5_1
  Local port:           1
  CPCs attempted:       rdmacm, udcm
--------------------------------------------------------------------------

*************** JDFTx 1.6.0 (git hash 42ebbcc2) ***************

Start date and time: Sun Jan 30 23:13:23 2022
Executable jdftx with command-line: -i BN22BC.in
Running on hosts (process indices):  d-6-12-4 (0-37)
Divided in process groups (process indices):  0 (0)  1 (1)  2 (2)  3 (3)  4 (4)  5 (5)  6 (6)  7 (7)  8 (8)  9 (9)  10 (10)  11 (11)  12 (12)  13 (13)  14 (14)  15 (15)  16 (16)  17 (17)  18 (18)  19 (19)  20 (20)  21 (21)  22 (22)  23 (23)  24 (24)  25 (25)  26 (26)  27 (27)  28 (28)  29 (29)  30 (30)  31 (31)  32 (32)  33 (33)  34 (34)  35 (35)  36 (36)  37 (37)
Resource initialization completed at t[s]:      0.00
Run totals: 38 processes, 48 threads, 0 GPUs


Input parsed successfully to the following command list (including defaults):

basis kpoint-dependent
coords-type Lattice
core-overlap-check vector
coulomb-interaction Slab 001
davidson-band-ratio 1.1
dump End State ElecDensity BandEigs
dump-name BN22BC-1.0.$VAR
elec-cutoff 20
elec-eigen-algo Davidson
elec-ex-corr gga-PBE
elec-initial-magnetization 1.000000 yes
elec-smearing Fermi 1e-05
electronic-minimize  \
	dirUpdateScheme      FletcherReeves \
	linminMethod         DirUpdateRecommended \
	nIterations          100 \
	history              15 \
	knormThreshold       0 \
	energyDiffThreshold  1e-08 \
	nEnergyDiff          2 \
	alphaTstart          1 \
	alphaTmin            1e-10 \
	updateTestStepSize   yes \
	alphaTreduceFactor   0.1 \
	alphaTincreaseFactor 3 \
	nAlphaAdjustMax      3 \
	wolfeEnergy          0.0001 \
	wolfeGradient        0.9 \
	fdTest               no
electronic-scf  \
	nIterations	1000 \
	energyDiffThreshold	1e-08 \
	residualThreshold	1e-07 \
	mixFraction	0.5 \
	qMetric	0.8 \
	history	10 \
	nEigSteps	2 \
	eigDiffThreshold	1e-08 \
	mixedVariable	Density \
	qKerker	0.8 \
	qKappa	-1 \
	verbose	no \
	mixFractionMag	1.5
exchange-regularization WignerSeitzTruncated
fluid None
fluid-ex-corr (null) lda-PZ
fluid-gummel-loop 10 1.000000e-05
fluid-minimize  \
	dirUpdateScheme      PolakRibiere \
	linminMethod         DirUpdateRecommended \
	nIterations          100 \
	history              15 \
	knormThreshold       0 \
	energyDiffThreshold  0 \
	nEnergyDiff          2 \
	alphaTstart          1 \
	alphaTmin            1e-10 \
	updateTestStepSize   yes \
	alphaTreduceFactor   0.1 \
	alphaTincreaseFactor 3 \
	nAlphaAdjustMax      3 \
	wolfeEnergy          0.0001 \
	wolfeGradient        0.9 \
	fdTest               no
fluid-solvent H2O 55.338 ScalarEOS \
	epsBulk 78.4 \
	pMol 0.92466 \
	epsInf 1.77 \
	Pvap 1.06736e-10 \
	sigmaBulk 4.62e-05 \
	Rvdw 2.61727 \
	Res 1.42 \
	tauNuc 343133 \
	poleEl 15 7 1
forces-output-coords Positions
ion C   0.000000000000000  -0.000000000000000   0.000000000000000 1
ion N   0.164313074529992   0.328626149059985   0.000000000000000 1
ion N   0.164313074529992   0.835686925470008   0.000000000000000 1
ion N   0.666666666666667   0.333333333333333   0.000000000000000 1
ion N   0.671373850940015   0.835686925470008   0.000000000000000 1
ion B  -0.001576660817548   0.499211669591226   0.000000000000000 1
ion B   0.500788330408774   0.001576660817548   0.000000000000000 1
ion B   0.500788330408774   0.499211669591226   0.000000000000000 1
ion-species SG15/$ID_ONCV_PBE.upf
ion-width 0
ionic-minimize  \
	dirUpdateScheme      L-BFGS \
	linminMethod         DirUpdateRecommended \
	nIterations          0 \
	history              15 \
	knormThreshold       0.0001 \
	energyDiffThreshold  1e-06 \
	nEnergyDiff          2 \
	alphaTstart          1 \
	alphaTmin            1e-10 \
	updateTestStepSize   yes \
	alphaTreduceFactor   0.1 \
	alphaTincreaseFactor 3 \
	nAlphaAdjustMax      3 \
	wolfeEnergy          0.0001 \
	wolfeGradient        0.9 \
	fdTest               no
kpoint   0.000000000000   0.000000000000   0.000000000000  1.00000000000000
kpoint-folding 12 12 1 
latt-move-scale 1 1 1
latt-scale 1 1 1 
lattice  \
	   9.356640512437433   -4.678320256218713    0.000000000000000  \
	  -0.000000000000000    8.103088377849462    0.000000000000000  \
	   0.000000000000000    0.000000000000000   40.000000000000000 
lattice-minimize  \
	dirUpdateScheme      L-BFGS \
	linminMethod         DirUpdateRecommended \
	nIterations          0 \
	history              15 \
	knormThreshold       0 \
	energyDiffThreshold  1e-06 \
	nEnergyDiff          2 \
	alphaTstart          1 \
	alphaTmin            1e-10 \
	updateTestStepSize   yes \
	alphaTreduceFactor   0.1 \
	alphaTincreaseFactor 3 \
	nAlphaAdjustMax      3 \
	wolfeEnergy          0.0001 \
	wolfeGradient        0.9 \
	fdTest               no
lcao-params -1 1e-06 1e-05
pcm-variant GLSSA13
spintype z-spin
subspace-rotation-factor 1 yes
symmetries automatic
symmetry-threshold 0.0001



---------- Setting up symmetries ----------

Found 24 point-group symmetries of the bravais lattice
Found 12 space-group symmetries with basis
Applied RMS atom displacement 3.80214e-15 bohrs to make symmetries exact.

---------- Initializing the Grid ----------
R = 
[      9.35664     -4.67832            0  ]
[            0      8.10309            0  ]
[            0            0           40  ]
unit cell volume = 3032.71
G =
[   0.671522   0.387703         -0  ]
[          0   0.775406         -0  ]
[         -0         -0    0.15708  ]
Minimum fftbox size, Smin = [  40  40  164  ]
Chosen fftbox size, S = [  40  40  168  ]

---------- Exchange Correlation functional ----------
Initalized PBE GGA exchange.
Initalized PBE GGA correlation.

---------- Setting up pseudopotentials ----------
Width of ionic core gaussian charges (only for fluid interactions / plotting) set to 0

Reading pseudopotential file '/home/gridsan/aligho/DFT/build-Nov24/pseudopotentials/SG15/C_ONCV_PBE.upf':
  'C' pseudopotential, 'PBE' functional
  Generated using ONCVPSP code by D. R. Hamann
  Author: Martin Schlipf and Francois Gygi  Date: 150915.
  4 valence electrons, 2 orbitals, 4 projectors, 1248 radial grid points, with lMax = 1
  Transforming local potential to a uniform radial grid of dG=0.02 with 1502 points.
  Transforming nonlocal projectors to a uniform radial grid of dG=0.02 with 432 points.
    2S    l: 0   occupation:  2.0   eigenvalue: -0.505335
    2P    l: 1   occupation:  2.0   eigenvalue: -0.194238
  Transforming atomic orbitals to a uniform radial grid of dG=0.02 with 432 points.
  Core radius for overlap checks: 1.23 bohrs.
  Reading pulay file /home/gridsan/aligho/DFT/build-Nov24/pseudopotentials/SG15/C_ONCV_PBE.pulay ... using dE_dnG = -9.239532e-03 computed for Ecut = 20.

Reading pseudopotential file '/home/gridsan/aligho/DFT/build-Nov24/pseudopotentials/SG15/N_ONCV_PBE.upf':
  'N' pseudopotential, 'PBE' functional
  Generated using ONCVPSP code by D. R. Hamann
  Author: Martin Schlipf and Francois Gygi  Date: 150915.
  5 valence electrons, 2 orbitals, 4 projectors, 1058 radial grid points, with lMax = 1
  Transforming local potential to a uniform radial grid of dG=0.02 with 1502 points.
  Transforming nonlocal projectors to a uniform radial grid of dG=0.02 with 432 points.
    2S    l: 0   occupation:  2.0   eigenvalue: -0.682907
    2P    l: 1   occupation:  3.0   eigenvalue: -0.260548
  Transforming atomic orbitals to a uniform radial grid of dG=0.02 with 432 points.
  Core radius for overlap checks: 1.35 bohrs.
  Reading pulay file /home/gridsan/aligho/DFT/build-Nov24/pseudopotentials/SG15/N_ONCV_PBE.pulay ... using dE_dnG = -2.956256e-02 computed for Ecut = 20.

Reading pseudopotential file '/home/gridsan/aligho/DFT/build-Nov24/pseudopotentials/SG15/B_ONCV_PBE.upf':
  'B' pseudopotential, 'PBE' functional
  Generated using ONCVPSP code by D. R. Hamann
  Author: Martin Schlipf and Francois Gygi  Date: 150915.
  3 valence electrons, 2 orbitals, 4 projectors, 1534 radial grid points, with lMax = 1
  Transforming local potential to a uniform radial grid of dG=0.02 with 1502 points.
  Transforming nonlocal projectors to a uniform radial grid of dG=0.02 with 432 points.
    2S    l: 0   occupation:  2.0   eigenvalue: -0.347027
    2P    l: 1   occupation:  1.0   eigenvalue: -0.132548
  Transforming atomic orbitals to a uniform radial grid of dG=0.02 with 432 points.
  Core radius for overlap checks: 1.60 bohrs.
  Reading pulay file /home/gridsan/aligho/DFT/build-Nov24/pseudopotentials/SG15/B_ONCV_PBE.pulay ... using dE_dnG = -3.748568e-04 computed for Ecut = 20.

Initialized 3 species with 8 total atoms.

Folded 1 k-points by 12x12x1 to 144 k-points.

---------- Setting up k-points, bands, fillings ----------
Adding inversion symmetry to k-mesh for non-inversion-symmetric unit cell.
Reduced to 19 k-points under symmetry. 
Computing the number of bands and number of electrons
Calculating initial fillings.
nElectrons:  33.000000   nBands: 32   nStates: 38

----- Setting up reduced wavefunction bases (one per k-point) -----
average nbasis = 12955.938 , ideal nbasis = 12955.957

---------- Setting up coulomb interaction ----------
Initialized slab truncation along lattice direction 001

---------- Setting up 2D ewald sum ----------
Optimum gaussian width for ewald sums = 5.194429 bohr.
Real space sums over 289 unit cells with max indices [  8  8  0  ]
Reciprocal space sums over 81 terms with max indices [  4  4  0  ]

---------- Allocating electronic variables ----------
Initializing wave functions:  linear combination of atomic orbitals
C pseudo-atom occupations:   s ( 2 )  p ( 2 )
N pseudo-atom occupations:   s ( 2 )  p ( 3 )
B pseudo-atom occupations:   s ( 2 )  p ( 1 )
	FillingsUpdate:  mu: -0.175764572  nElectrons: 33.000000  magneticMoment: [ Abs: 1.02764  Tot: +1.00000 ]
LCAOMinimize: Iter:   0  F: -53.3681264888002147  |grad|_K:  5.171e-03  alpha:  1.000e+00
[d-6-12-4:53048] 37 more processes have sent help message help-mpi-common-cuda.txt / dlopen failed
[d-6-12-4:53048] Set MCA parameter "orte_base_help_aggregate" to 0 to see all help / error messages
[d-6-12-4:53048] 37 more processes have sent help message help-mpi-btl-openib-cpc-base.txt / no cpcs for port
	FillingsUpdate:  mu: -0.159497230  nElectrons: 33.000000  magneticMoment: [ Abs: 1.03381  Tot: +1.00000 ]
LCAOMinimize: Iter:   1  F: -53.5657137918038444  |grad|_K:  8.937e-04  alpha:  4.292e-01  linmin:  2.933e-01  cgtest: -7.736e-01  t[s]:      6.79
	FillingsUpdate:  mu: -0.157124272  nElectrons: 33.000000  magneticMoment: [ Abs: 1.03664  Tot: +1.00000 ]
LCAOMinimize: Iter:   2  F: -53.5673603665943432  |grad|_K:  7.127e-04  alpha:  2.573e-01  linmin:  6.606e-04  cgtest:  8.495e-01  t[s]:      8.78
LCAOMinimize: Encountered beta<0, resetting CG.
	FillingsUpdate:  mu: -0.158476233  nElectrons: 33.000000  magneticMoment: [ Abs: 1.03984  Tot: +1.00000 ]
LCAOMinimize: Iter:   3  F: -53.5713510225242686  |grad|_K:  9.165e-05  alpha:  3.831e-01  linmin:  7.618e-02  cgtest: -1.619e-01  t[s]:     10.74
	FillingsUpdate:  mu: -0.158805090  nElectrons: 33.000000  magneticMoment: [ Abs: 1.04305  Tot: +1.00000 ]
LCAOMinimize: Iter:   4  F: -53.5714147762038806  |grad|_K:  2.424e-05  alpha:  3.866e-01  linmin:  2.828e-03  cgtest:  1.861e-01  t[s]:     12.69
	FillingsUpdate:  mu: -0.158649292  nElectrons: 33.000000  magneticMoment: [ Abs: 1.04666  Tot: +1.00000 ]
LCAOMinimize: Iter:   5  F: -53.5714222162284983  |grad|_K:  1.423e-05  alpha:  6.119e-01  linmin: -9.606e-04  cgtest:  3.848e-03  t[s]:     14.68
	FillingsUpdate:  mu: -0.158542917  nElectrons: 33.000000  magneticMoment: [ Abs: 1.05052  Tot: +1.00000 ]
LCAOMinimize: Iter:   6  F: -53.5714251579653506  |grad|_K:  6.084e-06  alpha:  7.007e-01  linmin: -1.175e-03  cgtest: -5.687e-03  t[s]:     16.64
	FillingsUpdate:  mu: -0.158557943  nElectrons: 33.000000  magneticMoment: [ Abs: 1.05143  Tot: +1.00000 ]
LCAOMinimize: Iter:   7  F: -53.5714255126626284  |grad|_K:  1.125e-06  alpha:  4.626e-01  linmin:  9.686e-05  cgtest: -8.662e-03  t[s]:     18.59
	FillingsUpdate:  mu: -0.158559771  nElectrons: 33.000000  magneticMoment: [ Abs: 1.05172  Tot: +1.00000 ]
LCAOMinimize: Iter:   8  F: -53.5714255327263871  |grad|_K:  5.071e-07  alpha:  7.688e-01  linmin:  2.455e-03  cgtest: -6.896e-03  t[s]:     20.55
LCAOMinimize: Converged (|Delta F|<1.000000e-06 for 2 iters).


---- Citations for features of the code used in this run ----

   Software package:
      R. Sundararaman, K. Letchworth-Weaver, K.A. Schwarz, D. Gunceler, Y. Ozhabes and T.A. Arias, 'JDFTx: software for joint density-functional theory', SoftwareX 6, 278 (2017)

   gga-PBE exchange-correlation functional:
      J.P. Perdew, K. Burke and M. Ernzerhof, Phys. Rev. Lett. 77, 3865 (1996)

   Pseudopotentials:
      M Schlipf and F Gygi, Comput. Phys. Commun. 196, 36 (2015)

   Truncated Coulomb potentials:
      R. Sundararaman and T.A. Arias, Phys. Rev. B 87, 165122 (2013)

This list may not be complete. Please suggest additional citations or
report any other bugs at https://github.com/shankar1729/jdftx/issues

Initialization completed successfully at t[s]:     20.75


-------- Electronic minimization -----------
Will mix electronic density at each iteration.
	FillingsUpdate:  mu: -0.158559771  nElectrons: 33.000000  magneticMoment: [ Abs: 1.05172  Tot: +1.00000 ]
	FillingsUpdate:  mu: -0.179163106  nElectrons: 33.000000  magneticMoment: [ Abs: 1.05172  Tot: +1.00000 ]
SCF: Cycle:  0   F: -54.001704255468823   dF: -4.303e-01   |Residual|: 2.328e-01   |deigs|: 1.090e-01  t[s]:     25.26
	FillingsUpdate:  mu: -0.159195291  nElectrons: 33.000000  magneticMoment: [ Abs: 1.09295  Tot: +1.00000 ]
SCF: Cycle:  1   F: -54.021062734729668   dF: -1.936e-02   |Residual|: 1.297e-01   |deigs|: 2.687e-02  t[s]:     28.60
	FillingsUpdate:  mu: -0.129960650  nElectrons: 33.000000  magneticMoment: [ Abs: 1.10666  Tot: +1.00000 ]
SCF: Cycle:  2   F: -54.033726182470353   dF: -1.266e-02   |Residual|: 2.865e-02   |deigs|: 3.130e-02  t[s]:     31.93
	FillingsUpdate:  mu: -0.126266522  nElectrons: 33.000000  magneticMoment: [ Abs: 1.11197  Tot: +1.00000 ]
SCF: Cycle:  3   F: -54.034095312298319   dF: -3.691e-04   |Residual|: 1.637e-02   |deigs|: 8.899e-03  t[s]:     35.28
	FillingsUpdate:  mu: -0.116030893  nElectrons: 33.000000  magneticMoment: [ Abs: 1.09404  Tot: +1.00000 ]
SCF: Cycle:  4   F: -54.034670352052416   dF: -5.750e-04   |Residual|: 8.781e-03   |deigs|: 9.782e-03  t[s]:     38.66
	FillingsUpdate:  mu: -0.110778757  nElectrons: 33.000000  magneticMoment: [ Abs: 1.09870  Tot: +1.00000 ]
SCF: Cycle:  5   F: -54.034891626191346   dF: -2.213e-04   |Residual|: 6.718e-03   |deigs|: 5.246e-03  t[s]:     42.10
	FillingsUpdate:  mu: -0.105040241  nElectrons: 33.000000  magneticMoment: [ Abs: 1.09817  Tot: +1.00000 ]
SCF: Cycle:  6   F: -54.034962871488048   dF: -7.125e-05   |Residual|: 4.399e-03   |deigs|: 5.529e-03  t[s]:     45.56
	FillingsUpdate:  mu: -0.099913782  nElectrons: 33.000000  magneticMoment: [ Abs: 1.09600  Tot: +1.00000 ]
SCF: Cycle:  7   F: -54.034958763765921   dF: +4.108e-06   |Residual|: 3.352e-03   |deigs|: 6.353e-03  t[s]:     49.06
	FillingsUpdate:  mu: -0.096016853  nElectrons: 33.000000  magneticMoment: [ Abs: 1.09698  Tot: +1.00000 ]
SCF: Cycle:  8   F: -54.034976793115568   dF: -1.803e-05   |Residual|: 2.891e-03   |deigs|: 4.076e-03  t[s]:     52.57
	FillingsUpdate:  mu: -0.092504545  nElectrons: 33.000000  magneticMoment: [ Abs: 1.09374  Tot: +1.00000 ]
SCF: Cycle:  9   F: -54.035000512404707   dF: -2.372e-05   |Residual|: 2.109e-03   |deigs|: 3.753e-03  t[s]:     56.08
	FillingsUpdate:  mu: -0.090268230  nElectrons: 33.000000  magneticMoment: [ Abs: 1.09409  Tot: +1.00000 ]
SCF: Cycle: 10   F: -54.035013689498179   dF: -1.318e-05   |Residual|: 1.816e-03   |deigs|: 2.311e-03  t[s]:     59.63
	FillingsUpdate:  mu: -0.087502136  nElectrons: 33.000000  magneticMoment: [ Abs: 1.09555  Tot: +1.00000 ]
SCF: Cycle: 11   F: -54.035022994540263   dF: -9.305e-06   |Residual|: 1.460e-03   |deigs|: 2.775e-03  t[s]:     63.20
	FillingsUpdate:  mu: -0.084842330  nElectrons: 33.000000  magneticMoment: [ Abs: 1.09500  Tot: +1.00000 ]
SCF: Cycle: 12   F: -54.035027527909946   dF: -4.533e-06   |Residual|: 1.331e-03   |deigs|: 2.527e-03  t[s]:     66.78
	FillingsUpdate:  mu: -0.081776614  nElectrons: 33.000000  magneticMoment: [ Abs: 1.09483  Tot: +1.00000 ]
SCF: Cycle: 13   F: -54.035029627985118   dF: -2.100e-06   |Residual|: 1.190e-03   |deigs|: 2.816e-03  t[s]:     70.35
	FillingsUpdate:  mu: -0.077849889  nElectrons: 33.000000  magneticMoment: [ Abs: 1.09376  Tot: +1.00000 ]
SCF: Cycle: 14   F: -54.035029736655666   dF: -1.087e-07   |Residual|: 1.101e-03   |deigs|: 3.622e-03  t[s]:     73.91
	FillingsUpdate:  mu: -0.074268691  nElectrons: 33.000000  magneticMoment: [ Abs: 1.09427  Tot: +1.00000 ]
SCF: Cycle: 15   F: -54.035029934944440   dF: -1.983e-07   |Residual|: 1.037e-03   |deigs|: 3.195e-03  t[s]:     77.47
	FillingsUpdate:  mu: -0.070567914  nElectrons: 33.000000  magneticMoment: [ Abs: 1.09461  Tot: +1.00000 ]
SCF: Cycle: 16   F: -54.035030689784904   dF: -7.548e-07   |Residual|: 8.828e-04   |deigs|: 3.473e-03  t[s]:     81.06
	FillingsUpdate:  mu: -0.067763614  nElectrons: 33.000000  magneticMoment: [ Abs: 1.09455  Tot: +1.00000 ]
SCF: Cycle: 17   F: -54.035032640707392   dF: -1.951e-06   |Residual|: 6.599e-04   |deigs|: 2.574e-03  t[s]:     84.60
	FillingsUpdate:  mu: -0.065764965  nElectrons: 33.000000  magneticMoment: [ Abs: 1.09391  Tot: +1.00000 ]
SCF: Cycle: 18   F: -54.035034644401790   dF: -2.004e-06   |Residual|: 3.882e-04   |deigs|: 1.816e-03  t[s]:     88.14
	FillingsUpdate:  mu: -0.065020498  nElectrons: 33.000000  magneticMoment: [ Abs: 1.09367  Tot: +1.00000 ]
SCF: Cycle: 19   F: -54.035035250370925   dF: -6.060e-07   |Residual|: 2.304e-04   |deigs|: 7.905e-04  t[s]:     91.68
	FillingsUpdate:  mu: -0.064693403  nElectrons: 33.000000  magneticMoment: [ Abs: 1.09364  Tot: +1.00000 ]
SCF: Cycle: 20   F: -54.035035440872974   dF: -1.905e-07   |Residual|: 1.335e-04   |deigs|: 4.956e-04  t[s]:     95.24
	FillingsUpdate:  mu: -0.064554687  nElectrons: 33.000000  magneticMoment: [ Abs: 1.09367  Tot: +1.00000 ]
SCF: Cycle: 21   F: -54.035035490674758   dF: -4.980e-08   |Residual|: 6.742e-05   |deigs|: 3.118e-04  t[s]:     98.79
	FillingsUpdate:  mu: -0.064511350  nElectrons: 33.000000  magneticMoment: [ Abs: 1.09367  Tot: +1.00000 ]
SCF: Cycle: 22   F: -54.035035507240522   dF: -1.657e-08   |Residual|: 2.991e-05   |deigs|: 3.231e-04  t[s]:    102.34
	FillingsUpdate:  mu: -0.064501179  nElectrons: 33.000000  magneticMoment: [ Abs: 1.09366  Tot: +1.00000 ]
SCF: Cycle: 23   F: -54.035035515712053   dF: -8.472e-09   |Residual|: 1.292e-05   |deigs|: 3.296e-04  t[s]:    105.88
	FillingsUpdate:  mu: -0.064498457  nElectrons: 33.000000  magneticMoment: [ Abs: 1.09365  Tot: +1.00000 ]
SCF: Cycle: 24   F: -54.035035517015331   dF: -1.303e-09   |Residual|: 7.447e-06   |deigs|: 3.535e-04  t[s]:    109.44
SCF: Converged (|Delta E|<1.000000e-08 for 2 iters).


# Ionic positions in lattice coordinates:
ion C  -0.000000000000000   0.000000000000000   0.000000000000000 1
ion N   0.164313074529992   0.328626149059985   0.000000000000000 1
ion N   0.164313074529992   0.835686925470008   0.000000000000000 1
ion N   0.666666666666667   0.333333333333333   0.000000000000000 1
ion N   0.671373850940015   0.835686925470008   0.000000000000000 1
ion B  -0.001576660817548   0.499211669591226   0.000000000000000 1
ion B   0.500788330408774   0.001576660817548   0.000000000000000 1
ion B   0.500788330408774   0.499211669591226   0.000000000000000 1

# Forces in Lattice coordinates:
force C   0.000000000000000  -0.000000000000000   0.000000000000000 1
force N   0.000000000000000  -0.000223119340451  -0.000000000000000 1
force N  -0.000223119340453   0.000223119340450   0.000000000000000 1
force N   0.000000000000000  -0.000000000000000   0.000000000000000 1
force N   0.000223119340453   0.000000000000000  -0.000000000000000 1
force B  -0.000021371708087   0.000000000000000   0.000000000000000 1
force B  -0.000000000000000   0.000021371708087   0.000000000000000 1
force B   0.000021371708087  -0.000021371708087   0.000000000000000 1

# Energy components:
   Eewald =      -85.5148968124686775
       EH =      -43.4582281370922630
     Eloc =       54.0385973250679257
      Enl =       -2.2855579632796252
   Epulay =       -0.0000008322926719
      Exc =      -15.3578989593047908
       KE =       38.5429498623547744
-------------------------------------
     Etot =      -54.0350355170153307
       TS =        0.0000000000000000
-------------------------------------
        F =      -54.0350355170153307

IonicMinimize: Iter:   0  F: -54.035035517015331  |grad|_K:  9.780e-06  t[s]:    109.76
IonicMinimize: Converged (|grad|_K<1.000000e-04).

#--- Lowdin population analysis ---
# oxidation-state C +0.284
# magnetic-moments C +0.567
# oxidation-state N -0.267 -0.267 -0.382 -0.267
# magnetic-moments N +0.003 +0.003 +0.039 +0.003
# oxidation-state B +0.405 +0.405 +0.405
# magnetic-moments B +0.120 +0.120 +0.120


Dumping 'BN22BC-1.0.fillings' ... done
Dumping 'BN22BC-1.0.wfns' ... done
Dumping 'BN22BC-1.0.n_up' ... done
Dumping 'BN22BC-1.0.n_dn' ... done
Dumping 'BN22BC-1.0.eigenvals' ... done
End date and time: Sun Jan 30 23:15:14 2022  (Duration: 0-0:01:51.62)
Done!
