magnetization is 0.3
--------------------------------------------------------------------------
The library attempted to open the following supporting CUDA libraries,
but each of them failed.  CUDA-aware support is disabled.
libcuda.so.1: cannot open shared object file: No such file or directory
libcuda.dylib: cannot open shared object file: No such file or directory
/usr/lib64/libcuda.so.1: cannot open shared object file: No such file or directory
/usr/lib64/libcuda.dylib: cannot open shared object file: No such file or directory
If you are not interested in CUDA-aware support, then run with
--mca opal_warn_on_missing_libcuda 0 to suppress this message.  If you are interested
in CUDA-aware support, then try setting LD_LIBRARY_PATH to the location
of libcuda.so.1 to get passed this issue.
--------------------------------------------------------------------------
[d-17-6-1:52564] [[15981,0],0] ORTE_ERROR_LOG: Out of resource in file util/show_help.c at line 507
--------------------------------------------------------------------------
No OpenFabrics connection schemes reported that they were able to be
used on a specific port.  As such, the openib BTL (OpenFabrics
support) will be disabled for this port.

  Local host:           d-17-6-1
  Local device:         mlx5_1
  Local port:           1
  CPCs attempted:       rdmacm, udcm
--------------------------------------------------------------------------

*************** JDFTx 1.6.0 (git hash 42ebbcc2) ***************

Start date and time: Sun Jan 30 23:09:17 2022
Executable jdftx with command-line: -i BN22BC.in
Running on hosts (process indices):  d-17-6-1 (0-37)
Divided in process groups (process indices):  0 (0)  1 (1)  2 (2)  3 (3)  4 (4)  5 (5)  6 (6)  7 (7)  8 (8)  9 (9)  10 (10)  11 (11)  12 (12)  13 (13)  14 (14)  15 (15)  16 (16)  17 (17)  18 (18)  19 (19)  20 (20)  21 (21)  22 (22)  23 (23)  24 (24)  25 (25)  26 (26)  27 (27)  28 (28)  29 (29)  30 (30)  31 (31)  32 (32)  33 (33)  34 (34)  35 (35)  36 (36)  37 (37)
Resource initialization completed at t[s]:      0.00
Run totals: 38 processes, 48 threads, 0 GPUs


Input parsed successfully to the following command list (including defaults):

basis kpoint-dependent
coords-type Lattice
core-overlap-check vector
coulomb-interaction Slab 001
davidson-band-ratio 1.1
dump End State ElecDensity BandEigs
dump-name BN22BC-0.3.$VAR
elec-cutoff 20
elec-eigen-algo Davidson
elec-ex-corr gga-PBE
elec-initial-magnetization 0.300000 yes
elec-smearing Fermi 1e-05
electronic-minimize  \
	dirUpdateScheme      FletcherReeves \
	linminMethod         DirUpdateRecommended \
	nIterations          100 \
	history              15 \
	knormThreshold       0 \
	energyDiffThreshold  1e-08 \
	nEnergyDiff          2 \
	alphaTstart          1 \
	alphaTmin            1e-10 \
	updateTestStepSize   yes \
	alphaTreduceFactor   0.1 \
	alphaTincreaseFactor 3 \
	nAlphaAdjustMax      3 \
	wolfeEnergy          0.0001 \
	wolfeGradient        0.9 \
	fdTest               no
electronic-scf  \
	nIterations	1000 \
	energyDiffThreshold	1e-08 \
	residualThreshold	1e-07 \
	mixFraction	0.5 \
	qMetric	0.8 \
	history	10 \
	nEigSteps	2 \
	eigDiffThreshold	1e-08 \
	mixedVariable	Density \
	qKerker	0.8 \
	qKappa	-1 \
	verbose	no \
	mixFractionMag	1.5
exchange-regularization WignerSeitzTruncated
fluid None
fluid-ex-corr (null) lda-PZ
fluid-gummel-loop 10 1.000000e-05
fluid-minimize  \
	dirUpdateScheme      PolakRibiere \
	linminMethod         DirUpdateRecommended \
	nIterations          100 \
	history              15 \
	knormThreshold       0 \
	energyDiffThreshold  0 \
	nEnergyDiff          2 \
	alphaTstart          1 \
	alphaTmin            1e-10 \
	updateTestStepSize   yes \
	alphaTreduceFactor   0.1 \
	alphaTincreaseFactor 3 \
	nAlphaAdjustMax      3 \
	wolfeEnergy          0.0001 \
	wolfeGradient        0.9 \
	fdTest               no
fluid-solvent H2O 55.338 ScalarEOS \
	epsBulk 78.4 \
	pMol 0.92466 \
	epsInf 1.77 \
	Pvap 1.06736e-10 \
	sigmaBulk 4.62e-05 \
	Rvdw 2.61727 \
	Res 1.42 \
	tauNuc 343133 \
	poleEl 15 7 1
forces-output-coords Positions
ion C   0.000000000000000  -0.000000000000000   0.000000000000000 1
ion N   0.164313074529992   0.328626149059985   0.000000000000000 1
ion N   0.164313074529992   0.835686925470008   0.000000000000000 1
ion N   0.666666666666667   0.333333333333333   0.000000000000000 1
ion N   0.671373850940015   0.835686925470008   0.000000000000000 1
ion B  -0.001576660817548   0.499211669591226   0.000000000000000 1
ion B   0.500788330408774   0.001576660817548   0.000000000000000 1
ion B   0.500788330408774   0.499211669591226   0.000000000000000 1
ion-species SG15/$ID_ONCV_PBE.upf
ion-width 0
ionic-minimize  \
	dirUpdateScheme      L-BFGS \
	linminMethod         DirUpdateRecommended \
	nIterations          0 \
	history              15 \
	knormThreshold       0.0001 \
	energyDiffThreshold  1e-06 \
	nEnergyDiff          2 \
	alphaTstart          1 \
	alphaTmin            1e-10 \
	updateTestStepSize   yes \
	alphaTreduceFactor   0.1 \
	alphaTincreaseFactor 3 \
	nAlphaAdjustMax      3 \
	wolfeEnergy          0.0001 \
	wolfeGradient        0.9 \
	fdTest               no
kpoint   0.000000000000   0.000000000000   0.000000000000  1.00000000000000
kpoint-folding 12 12 1 
latt-move-scale 1 1 1
latt-scale 1 1 1 
lattice  \
	   9.356640512437433   -4.678320256218713    0.000000000000000  \
	  -0.000000000000000    8.103088377849462    0.000000000000000  \
	   0.000000000000000    0.000000000000000   40.000000000000000 
lattice-minimize  \
	dirUpdateScheme      L-BFGS \
	linminMethod         DirUpdateRecommended \
	nIterations          0 \
	history              15 \
	knormThreshold       0 \
	energyDiffThreshold  1e-06 \
	nEnergyDiff          2 \
	alphaTstart          1 \
	alphaTmin            1e-10 \
	updateTestStepSize   yes \
	alphaTreduceFactor   0.1 \
	alphaTincreaseFactor 3 \
	nAlphaAdjustMax      3 \
	wolfeEnergy          0.0001 \
	wolfeGradient        0.9 \
	fdTest               no
lcao-params -1 1e-06 1e-05
pcm-variant GLSSA13
spintype z-spin
subspace-rotation-factor 1 yes
symmetries automatic
symmetry-threshold 0.0001



---------- Setting up symmetries ----------

Found 24 point-group symmetries of the bravais lattice
Found 12 space-group symmetries with basis
Applied RMS atom displacement 3.80214e-15 bohrs to make symmetries exact.

---------- Initializing the Grid ----------
R = 
[      9.35664     -4.67832            0  ]
[            0      8.10309            0  ]
[            0            0           40  ]
unit cell volume = 3032.71
G =
[   0.671522   0.387703         -0  ]
[          0   0.775406         -0  ]
[         -0         -0    0.15708  ]
Minimum fftbox size, Smin = [  40  40  164  ]
Chosen fftbox size, S = [  40  40  168  ]

---------- Exchange Correlation functional ----------
Initalized PBE GGA exchange.
Initalized PBE GGA correlation.

---------- Setting up pseudopotentials ----------
Width of ionic core gaussian charges (only for fluid interactions / plotting) set to 0

Reading pseudopotential file '/home/gridsan/aligho/DFT/build-Nov24/pseudopotentials/SG15/C_ONCV_PBE.upf':
  'C' pseudopotential, 'PBE' functional
  Generated using ONCVPSP code by D. R. Hamann
  Author: Martin Schlipf and Francois Gygi  Date: 150915.
  4 valence electrons, 2 orbitals, 4 projectors, 1248 radial grid points, with lMax = 1
  Transforming local potential to a uniform radial grid of dG=0.02 with 1502 points.
  Transforming nonlocal projectors to a uniform radial grid of dG=0.02 with 432 points.
    2S    l: 0   occupation:  2.0   eigenvalue: -0.505335
    2P    l: 1   occupation:  2.0   eigenvalue: -0.194238
  Transforming atomic orbitals to a uniform radial grid of dG=0.02 with 432 points.
  Core radius for overlap checks: 1.23 bohrs.
  Reading pulay file /home/gridsan/aligho/DFT/build-Nov24/pseudopotentials/SG15/C_ONCV_PBE.pulay ... using dE_dnG = -9.239532e-03 computed for Ecut = 20.

Reading pseudopotential file '/home/gridsan/aligho/DFT/build-Nov24/pseudopotentials/SG15/N_ONCV_PBE.upf':
  'N' pseudopotential, 'PBE' functional
  Generated using ONCVPSP code by D. R. Hamann
  Author: Martin Schlipf and Francois Gygi  Date: 150915.
  5 valence electrons, 2 orbitals, 4 projectors, 1058 radial grid points, with lMax = 1
  Transforming local potential to a uniform radial grid of dG=0.02 with 1502 points.
  Transforming nonlocal projectors to a uniform radial grid of dG=0.02 with 432 points.
    2S    l: 0   occupation:  2.0   eigenvalue: -0.682907
    2P    l: 1   occupation:  3.0   eigenvalue: -0.260548
  Transforming atomic orbitals to a uniform radial grid of dG=0.02 with 432 points.
  Core radius for overlap checks: 1.35 bohrs.
  Reading pulay file /home/gridsan/aligho/DFT/build-Nov24/pseudopotentials/SG15/N_ONCV_PBE.pulay ... using dE_dnG = -2.956256e-02 computed for Ecut = 20.

Reading pseudopotential file '/home/gridsan/aligho/DFT/build-Nov24/pseudopotentials/SG15/B_ONCV_PBE.upf':
  'B' pseudopotential, 'PBE' functional
  Generated using ONCVPSP code by D. R. Hamann
  Author: Martin Schlipf and Francois Gygi  Date: 150915.
  3 valence electrons, 2 orbitals, 4 projectors, 1534 radial grid points, with lMax = 1
  Transforming local potential to a uniform radial grid of dG=0.02 with 1502 points.
  Transforming nonlocal projectors to a uniform radial grid of dG=0.02 with 432 points.
    2S    l: 0   occupation:  2.0   eigenvalue: -0.347027
    2P    l: 1   occupation:  1.0   eigenvalue: -0.132548
  Transforming atomic orbitals to a uniform radial grid of dG=0.02 with 432 points.
  Core radius for overlap checks: 1.60 bohrs.
  Reading pulay file /home/gridsan/aligho/DFT/build-Nov24/pseudopotentials/SG15/B_ONCV_PBE.pulay ... using dE_dnG = -3.748568e-04 computed for Ecut = 20.

Initialized 3 species with 8 total atoms.

Folded 1 k-points by 12x12x1 to 144 k-points.

---------- Setting up k-points, bands, fillings ----------
Adding inversion symmetry to k-mesh for non-inversion-symmetric unit cell.
Reduced to 19 k-points under symmetry. 
Computing the number of bands and number of electrons
Calculating initial fillings.
nElectrons:  33.000000   nBands: 32   nStates: 38

----- Setting up reduced wavefunction bases (one per k-point) -----
average nbasis = 12955.938 , ideal nbasis = 12955.957

---------- Setting up coulomb interaction ----------
Initialized slab truncation along lattice direction 001

---------- Setting up 2D ewald sum ----------
Optimum gaussian width for ewald sums = 5.194429 bohr.
Real space sums over 289 unit cells with max indices [  8  8  0  ]
Reciprocal space sums over 81 terms with max indices [  4  4  0  ]

---------- Allocating electronic variables ----------
Initializing wave functions:  linear combination of atomic orbitals
C pseudo-atom occupations:   s ( 2 )  p ( 2 )
N pseudo-atom occupations:   s ( 2 )  p ( 3 )
B pseudo-atom occupations:   s ( 2 )  p ( 1 )
	FillingsUpdate:  mu: -0.182171584  nElectrons: 33.000000  magneticMoment: [ Abs: 0.30761  Tot: +0.30000 ]
LCAOMinimize: Iter:   0  F: -53.3364992754161165  |grad|_K:  5.514e-03  alpha:  1.000e+00
[d-17-6-1:52564] 36 more processes have sent help message help-mpi-common-cuda.txt / dlopen failed
[d-17-6-1:52564] Set MCA parameter "orte_base_help_aggregate" to 0 to see all help / error messages
[d-17-6-1:52564] 37 more processes have sent help message help-mpi-btl-openib-cpc-base.txt / no cpcs for port
	FillingsUpdate:  mu: -0.186474771  nElectrons: 33.000000  magneticMoment: [ Abs: 0.30854  Tot: +0.30000 ]
LCAOMinimize: Iter:   1  F: -53.5598497833206153  |grad|_K:  1.009e-03  alpha:  4.240e-01  linmin:  3.508e-01  cgtest: -8.193e-01  t[s]:      6.74
	FillingsUpdate:  mu: -0.181260554  nElectrons: 33.000000  magneticMoment: [ Abs: 0.30910  Tot: +0.30000 ]
LCAOMinimize: Iter:   2  F: -53.5613896571010173  |grad|_K:  8.600e-04  alpha:  2.228e-01  linmin: -6.181e-03  cgtest:  9.000e-01  t[s]:      8.74
LCAOMinimize: Encountered beta<0, resetting CG.
	FillingsUpdate:  mu: -0.180357719  nElectrons: 33.000000  magneticMoment: [ Abs: 0.30992  Tot: +0.30000 ]
LCAOMinimize: Iter:   3  F: -53.5670754683235586  |grad|_K:  1.011e-04  alpha:  3.770e-01  linmin:  1.013e-01  cgtest: -2.659e-01  t[s]:     10.71
	FillingsUpdate:  mu: -0.181403255  nElectrons: 33.000000  magneticMoment: [ Abs: 0.31068  Tot: +0.30000 ]
LCAOMinimize: Iter:   4  F: -53.5671457573561440  |grad|_K:  3.091e-05  alpha:  3.717e-01  linmin:  1.862e-03  cgtest:  3.627e-01  t[s]:     12.66
LCAOMinimize: Encountered beta<0, resetting CG.
	FillingsUpdate:  mu: -0.181513291  nElectrons: 33.000000  magneticMoment: [ Abs: 0.31121  Tot: +0.30000 ]
LCAOMinimize: Iter:   5  F: -53.5671533140359202  |grad|_K:  7.534e-06  alpha:  3.823e-01  linmin: -3.222e-04  cgtest:  1.490e-04  t[s]:     14.63
	FillingsUpdate:  mu: -0.181420961  nElectrons: 33.000000  magneticMoment: [ Abs: 0.31215  Tot: +0.30000 ]
LCAOMinimize: Iter:   6  F: -53.5671542881089238  |grad|_K:  4.572e-06  alpha:  8.289e-01  linmin: -2.998e-04  cgtest:  1.467e-03  t[s]:     16.58
	FillingsUpdate:  mu: -0.181449018  nElectrons: 33.000000  magneticMoment: [ Abs: 0.31264  Tot: +0.30000 ]
LCAOMinimize: Iter:   7  F: -53.5671545422605817  |grad|_K:  1.140e-06  alpha:  5.873e-01  linmin: -4.669e-05  cgtest: -3.379e-03  t[s]:     18.55
LCAOMinimize: Converged (|Delta F|<1.000000e-06 for 2 iters).


---- Citations for features of the code used in this run ----

   Software package:
      R. Sundararaman, K. Letchworth-Weaver, K.A. Schwarz, D. Gunceler, Y. Ozhabes and T.A. Arias, 'JDFTx: software for joint density-functional theory', SoftwareX 6, 278 (2017)

   gga-PBE exchange-correlation functional:
      J.P. Perdew, K. Burke and M. Ernzerhof, Phys. Rev. Lett. 77, 3865 (1996)

   Pseudopotentials:
      M Schlipf and F Gygi, Comput. Phys. Commun. 196, 36 (2015)

   Truncated Coulomb potentials:
      R. Sundararaman and T.A. Arias, Phys. Rev. B 87, 165122 (2013)

This list may not be complete. Please suggest additional citations or
report any other bugs at https://github.com/shankar1729/jdftx/issues

Initialization completed successfully at t[s]:     18.74


-------- Electronic minimization -----------
Will mix electronic density at each iteration.
	FillingsUpdate:  mu: -0.181449018  nElectrons: 33.000000  magneticMoment: [ Abs: 0.31264  Tot: +0.30000 ]
	FillingsUpdate:  mu: -0.198441971  nElectrons: 33.000000  magneticMoment: [ Abs: 0.31264  Tot: +0.30000 ]
SCF: Cycle:  0   F: -53.997567804569030   dF: -4.304e-01   |Residual|: 2.312e-01   |deigs|: 1.091e-01  t[s]:     23.28
	FillingsUpdate:  mu: -0.176313687  nElectrons: 33.000000  magneticMoment: [ Abs: 0.32400  Tot: +0.30000 ]
SCF: Cycle:  1   F: -54.017769782719135   dF: -2.020e-02   |Residual|: 1.290e-01   |deigs|: 2.700e-02  t[s]:     26.63
	FillingsUpdate:  mu: -0.145574483  nElectrons: 33.000000  magneticMoment: [ Abs: 0.33934  Tot: +0.30000 ]
SCF: Cycle:  2   F: -54.030477265648415   dF: -1.271e-02   |Residual|: 2.824e-02   |deigs|: 3.115e-02  t[s]:     30.00
	FillingsUpdate:  mu: -0.142150308  nElectrons: 33.000000  magneticMoment: [ Abs: 0.33628  Tot: +0.30000 ]
SCF: Cycle:  3   F: -54.030856210715044   dF: -3.789e-04   |Residual|: 1.629e-02   |deigs|: 8.522e-03  t[s]:     33.44
	FillingsUpdate:  mu: -0.130158968  nElectrons: 33.000000  magneticMoment: [ Abs: 0.32671  Tot: +0.30000 ]
SCF: Cycle:  4   F: -54.031496797501127   dF: -6.406e-04   |Residual|: 8.747e-03   |deigs|: 1.111e-02  t[s]:     36.88
	FillingsUpdate:  mu: -0.125867856  nElectrons: 33.000000  magneticMoment: [ Abs: 0.32821  Tot: +0.30000 ]
SCF: Cycle:  5   F: -54.031658835171527   dF: -1.620e-04   |Residual|: 6.346e-03   |deigs|: 4.350e-03  t[s]:     40.35
	FillingsUpdate:  mu: -0.118853320  nElectrons: 33.000000  magneticMoment: [ Abs: 0.33049  Tot: +0.30000 ]
SCF: Cycle:  6   F: -54.031721214629719   dF: -6.238e-05   |Residual|: 3.981e-03   |deigs|: 6.581e-03  t[s]:     43.84
	FillingsUpdate:  mu: -0.114870122  nElectrons: 33.000000  magneticMoment: [ Abs: 0.32983  Tot: +0.30000 ]
SCF: Cycle:  7   F: -54.031713583314634   dF: +7.631e-06   |Residual|: 3.313e-03   |deigs|: 4.876e-03  t[s]:     47.36
	FillingsUpdate:  mu: -0.110319304  nElectrons: 33.000000  magneticMoment: [ Abs: 0.32944  Tot: +0.30000 ]
SCF: Cycle:  8   F: -54.031737379587099   dF: -2.380e-05   |Residual|: 2.695e-03   |deigs|: 4.757e-03  t[s]:     50.92
	FillingsUpdate:  mu: -0.107470082  nElectrons: 33.000000  magneticMoment: [ Abs: 0.32787  Tot: +0.30000 ]
SCF: Cycle:  9   F: -54.031756994660576   dF: -1.962e-05   |Residual|: 2.042e-03   |deigs|: 3.098e-03  t[s]:     54.50
	FillingsUpdate:  mu: -0.104978776  nElectrons: 33.000000  magneticMoment: [ Abs: 0.32876  Tot: +0.30000 ]
SCF: Cycle: 10   F: -54.031770492280486   dF: -1.350e-05   |Residual|: 1.797e-03   |deigs|: 2.553e-03  t[s]:     58.08
	FillingsUpdate:  mu: -0.101760258  nElectrons: 33.000000  magneticMoment: [ Abs: 0.32906  Tot: +0.30000 ]
SCF: Cycle: 11   F: -54.031780874410167   dF: -1.038e-05   |Residual|: 1.477e-03   |deigs|: 3.089e-03  t[s]:     61.69
	FillingsUpdate:  mu: -0.099529436  nElectrons: 33.000000  magneticMoment: [ Abs: 0.32864  Tot: +0.30000 ]
SCF: Cycle: 12   F: -54.031784462134311   dF: -3.588e-06   |Residual|: 1.336e-03   |deigs|: 2.059e-03  t[s]:     65.26
	FillingsUpdate:  mu: -0.095367970  nElectrons: 33.000000  magneticMoment: [ Abs: 0.33128  Tot: +0.30000 ]
SCF: Cycle: 13   F: -54.031786791932049   dF: -2.330e-06   |Residual|: 1.201e-03   |deigs|: 3.914e-03  t[s]:     68.85
	FillingsUpdate:  mu: -0.092724038  nElectrons: 33.000000  magneticMoment: [ Abs: 0.33080  Tot: +0.30000 ]
SCF: Cycle: 14   F: -54.031787154191839   dF: -3.623e-07   |Residual|: 1.145e-03   |deigs|: 2.356e-03  t[s]:     72.43
	FillingsUpdate:  mu: -0.089002336  nElectrons: 33.000000  magneticMoment: [ Abs: 0.32964  Tot: +0.30000 ]
SCF: Cycle: 15   F: -54.031787055523147   dF: +9.867e-08   |Residual|: 1.012e-03   |deigs|: 3.352e-03  t[s]:     76.03
	FillingsUpdate:  mu: -0.085172305  nElectrons: 33.000000  magneticMoment: [ Abs: 0.32876  Tot: +0.30000 ]
SCF: Cycle: 16   F: -54.031787444288838   dF: -3.888e-07   |Residual|: 8.081e-04   |deigs|: 3.567e-03  t[s]:     79.61
	FillingsUpdate:  mu: -0.082837501  nElectrons: 33.000000  magneticMoment: [ Abs: 0.32888  Tot: +0.30000 ]
SCF: Cycle: 17   F: -54.031789346780180   dF: -1.902e-06   |Residual|: 6.837e-04   |deigs|: 2.142e-03  t[s]:     83.20
	FillingsUpdate:  mu: -0.081023604  nElectrons: 33.000000  magneticMoment: [ Abs: 0.32906  Tot: +0.30000 ]
SCF: Cycle: 18   F: -54.031791556415612   dF: -2.210e-06   |Residual|: 4.325e-04   |deigs|: 1.760e-03  t[s]:     86.80
	FillingsUpdate:  mu: -0.080277230  nElectrons: 33.000000  magneticMoment: [ Abs: 0.32943  Tot: +0.30000 ]
SCF: Cycle: 19   F: -54.031792406165529   dF: -8.497e-07   |Residual|: 2.424e-04   |deigs|: 7.947e-04  t[s]:     90.37
	FillingsUpdate:  mu: -0.080031641  nElectrons: 33.000000  magneticMoment: [ Abs: 0.32898  Tot: +0.30000 ]
SCF: Cycle: 20   F: -54.031792574825147   dF: -1.687e-07   |Residual|: 1.329e-04   |deigs|: 5.517e-04  t[s]:     93.96
	FillingsUpdate:  mu: -0.079979848  nElectrons: 33.000000  magneticMoment: [ Abs: 0.32876  Tot: +0.30000 ]
SCF: Cycle: 21   F: -54.031792596711675   dF: -2.189e-08   |Residual|: 7.854e-05   |deigs|: 1.326e-04  t[s]:     97.55
	FillingsUpdate:  mu: -0.079883844  nElectrons: 33.000000  magneticMoment: [ Abs: 0.32878  Tot: +0.30000 ]
SCF: Cycle: 22   F: -54.031792610724111   dF: -1.401e-08   |Residual|: 3.264e-05   |deigs|: 4.366e-04  t[s]:    101.13
	FillingsUpdate:  mu: -0.079857843  nElectrons: 33.000000  magneticMoment: [ Abs: 0.32878  Tot: +0.30000 ]
SCF: Cycle: 23   F: -54.031792618070469   dF: -7.346e-09   |Residual|: 1.950e-05   |deigs|: 2.990e-04  t[s]:    104.71
	FillingsUpdate:  mu: -0.079829518  nElectrons: 33.000000  magneticMoment: [ Abs: 0.32877  Tot: +0.30000 ]
SCF: Cycle: 24   F: -54.031792620775477   dF: -2.705e-09   |Residual|: 1.240e-05   |deigs|: 2.463e-04  t[s]:    108.28
SCF: Converged (|Delta E|<1.000000e-08 for 2 iters).


# Ionic positions in lattice coordinates:
ion C  -0.000000000000000   0.000000000000000   0.000000000000000 1
ion N   0.164313074529992   0.328626149059985   0.000000000000000 1
ion N   0.164313074529992   0.835686925470008   0.000000000000000 1
ion N   0.666666666666667   0.333333333333333   0.000000000000000 1
ion N   0.671373850940015   0.835686925470008   0.000000000000000 1
ion B  -0.001576660817548   0.499211669591226   0.000000000000000 1
ion B   0.500788330408774   0.001576660817548   0.000000000000000 1
ion B   0.500788330408774   0.499211669591226   0.000000000000000 1

# Forces in Lattice coordinates:
force C  -0.000000000000000  -0.000000000000000   0.000000000000000 1
force N   0.000000000000000  -0.037987961911539  -0.000000000000000 1
force N  -0.037987961911541   0.037987961911539   0.000000000000000 1
force N  -0.000000000000000  -0.000000000000000   0.000000000000000 1
force N   0.037987961911541  -0.000000000000000   0.000000000000000 1
force B   0.008084494376960   0.000000000000000   0.000000000000000 1
force B  -0.000000000000000  -0.008084494376960  -0.000000000000000 1
force B  -0.008084494376960   0.008084494376960   0.000000000000000 1

# Energy components:
   Eewald =      -85.5148968124686775
       EH =      -43.5315774993764109
     Eloc =       54.1379448163875310
      Enl =       -2.2700738369079669
   Epulay =       -0.0000008322926719
      Exc =      -15.3359679350534925
       KE =       38.4827802046990541
-------------------------------------
     Etot =      -54.0317918950126312
       TS =        0.0000007257628459
-------------------------------------
        F =      -54.0317926207754766

IonicMinimize: Iter:   0  F: -54.031792620775477  |grad|_K:  1.695e-03  t[s]:    108.60
IonicMinimize: None of the convergence criteria satisfied after 0 iterations.

#--- Lowdin population analysis ---
# oxidation-state C +0.257
# magnetic-moments C +0.164
# oxidation-state N -0.255 -0.255 -0.381 -0.255
# magnetic-moments N +0.000 +0.000 +0.007 +0.000
# oxidation-state B +0.403 +0.403 +0.403
# magnetic-moments B +0.040 +0.040 +0.040


Dumping 'BN22BC-0.3.fillings' ... done
Dumping 'BN22BC-0.3.wfns' ... done
Dumping 'BN22BC-0.3.n_up' ... done
Dumping 'BN22BC-0.3.n_dn' ... done
Dumping 'BN22BC-0.3.eigenvals' ... done
End date and time: Sun Jan 30 23:11:07 2022  (Duration: 0-0:01:50.43)
Done!
