magnetization is -0.52
--------------------------------------------------------------------------
The library attempted to open the following supporting CUDA libraries,
but each of them failed.  CUDA-aware support is disabled.
libcuda.so.1: cannot open shared object file: No such file or directory
libcuda.dylib: cannot open shared object file: No such file or directory
/usr/lib64/libcuda.so.1: cannot open shared object file: No such file or directory
/usr/lib64/libcuda.dylib: cannot open shared object file: No such file or directory
If you are not interested in CUDA-aware support, then run with
--mca opal_warn_on_missing_libcuda 0 to suppress this message.  If you are interested
in CUDA-aware support, then try setting LD_LIBRARY_PATH to the location
of libcuda.so.1 to get passed this issue.
--------------------------------------------------------------------------
--------------------------------------------------------------------------
No OpenFabrics connection schemes reported that they were able to be
used on a specific port.  As such, the openib BTL (OpenFabrics
support) will be disabled for this port.

  Local host:           d-4-15-4
  Local device:         mlx5_1
  Local port:           1
  CPCs attempted:       rdmacm, udcm
--------------------------------------------------------------------------

*************** JDFTx 1.6.0 (git hash 42ebbcc2) ***************

Start date and time: Sun Jan 30 23:07:14 2022
Executable jdftx with command-line: -i BN22BC.in
Running on hosts (process indices):  d-4-15-4 (0-37)
Divided in process groups (process indices):  0 (0)  1 (1)  2 (2)  3 (3)  4 (4)  5 (5)  6 (6)  7 (7)  8 (8)  9 (9)  10 (10)  11 (11)  12 (12)  13 (13)  14 (14)  15 (15)  16 (16)  17 (17)  18 (18)  19 (19)  20 (20)  21 (21)  22 (22)  23 (23)  24 (24)  25 (25)  26 (26)  27 (27)  28 (28)  29 (29)  30 (30)  31 (31)  32 (32)  33 (33)  34 (34)  35 (35)  36 (36)  37 (37)
Resource initialization completed at t[s]:      0.00
Run totals: 38 processes, 48 threads, 0 GPUs


Input parsed successfully to the following command list (including defaults):

basis kpoint-dependent
coords-type Lattice
core-overlap-check vector
coulomb-interaction Slab 001
davidson-band-ratio 1.1
dump End State ElecDensity BandEigs
dump-name BN22BC--0.52.$VAR
elec-cutoff 20
elec-eigen-algo Davidson
elec-ex-corr gga-PBE
elec-initial-magnetization -0.520000 yes
elec-smearing Fermi 1e-05
electronic-minimize  \
	dirUpdateScheme      FletcherReeves \
	linminMethod         DirUpdateRecommended \
	nIterations          100 \
	history              15 \
	knormThreshold       0 \
	energyDiffThreshold  1e-08 \
	nEnergyDiff          2 \
	alphaTstart          1 \
	alphaTmin            1e-10 \
	updateTestStepSize   yes \
	alphaTreduceFactor   0.1 \
	alphaTincreaseFactor 3 \
	nAlphaAdjustMax      3 \
	wolfeEnergy          0.0001 \
	wolfeGradient        0.9 \
	fdTest               no
electronic-scf  \
	nIterations	1000 \
	energyDiffThreshold	1e-08 \
	residualThreshold	1e-07 \
	mixFraction	0.5 \
	qMetric	0.8 \
	history	10 \
	nEigSteps	2 \
	eigDiffThreshold	1e-08 \
	mixedVariable	Density \
	qKerker	0.8 \
	qKappa	-1 \
	verbose	no \
	mixFractionMag	1.5
exchange-regularization WignerSeitzTruncated
fluid None
fluid-ex-corr (null) lda-PZ
fluid-gummel-loop 10 1.000000e-05
fluid-minimize  \
	dirUpdateScheme      PolakRibiere \
	linminMethod         DirUpdateRecommended \
	nIterations          100 \
	history              15 \
	knormThreshold       0 \
	energyDiffThreshold  0 \
	nEnergyDiff          2 \
	alphaTstart          1 \
	alphaTmin            1e-10 \
	updateTestStepSize   yes \
	alphaTreduceFactor   0.1 \
	alphaTincreaseFactor 3 \
	nAlphaAdjustMax      3 \
	wolfeEnergy          0.0001 \
	wolfeGradient        0.9 \
	fdTest               no
fluid-solvent H2O 55.338 ScalarEOS \
	epsBulk 78.4 \
	pMol 0.92466 \
	epsInf 1.77 \
	Pvap 1.06736e-10 \
	sigmaBulk 4.62e-05 \
	Rvdw 2.61727 \
	Res 1.42 \
	tauNuc 343133 \
	poleEl 15 7 1
forces-output-coords Positions
ion C   0.000000000000000  -0.000000000000000   0.000000000000000 1
ion N   0.164313074529992   0.328626149059985   0.000000000000000 1
ion N   0.164313074529992   0.835686925470008   0.000000000000000 1
ion N   0.666666666666667   0.333333333333333   0.000000000000000 1
ion N   0.671373850940015   0.835686925470008   0.000000000000000 1
ion B  -0.001576660817548   0.499211669591226   0.000000000000000 1
ion B   0.500788330408774   0.001576660817548   0.000000000000000 1
ion B   0.500788330408774   0.499211669591226   0.000000000000000 1
ion-species SG15/$ID_ONCV_PBE.upf
ion-width 0
ionic-minimize  \
	dirUpdateScheme      L-BFGS \
	linminMethod         DirUpdateRecommended \
	nIterations          0 \
	history              15 \
	knormThreshold       0.0001 \
	energyDiffThreshold  1e-06 \
	nEnergyDiff          2 \
	alphaTstart          1 \
	alphaTmin            1e-10 \
	updateTestStepSize   yes \
	alphaTreduceFactor   0.1 \
	alphaTincreaseFactor 3 \
	nAlphaAdjustMax      3 \
	wolfeEnergy          0.0001 \
	wolfeGradient        0.9 \
	fdTest               no
kpoint   0.000000000000   0.000000000000   0.000000000000  1.00000000000000
kpoint-folding 12 12 1 
latt-move-scale 1 1 1
latt-scale 1 1 1 
lattice  \
	   9.356640512437433   -4.678320256218713    0.000000000000000  \
	  -0.000000000000000    8.103088377849462    0.000000000000000  \
	   0.000000000000000    0.000000000000000   40.000000000000000 
lattice-minimize  \
	dirUpdateScheme      L-BFGS \
	linminMethod         DirUpdateRecommended \
	nIterations          0 \
	history              15 \
	knormThreshold       0 \
	energyDiffThreshold  1e-06 \
	nEnergyDiff          2 \
	alphaTstart          1 \
	alphaTmin            1e-10 \
	updateTestStepSize   yes \
	alphaTreduceFactor   0.1 \
	alphaTincreaseFactor 3 \
	nAlphaAdjustMax      3 \
	wolfeEnergy          0.0001 \
	wolfeGradient        0.9 \
	fdTest               no
lcao-params -1 1e-06 1e-05
pcm-variant GLSSA13
spintype z-spin
subspace-rotation-factor 1 yes
symmetries automatic
symmetry-threshold 0.0001



---------- Setting up symmetries ----------

Found 24 point-group symmetries of the bravais lattice
Found 12 space-group symmetries with basis
Applied RMS atom displacement 3.80214e-15 bohrs to make symmetries exact.

---------- Initializing the Grid ----------
R = 
[      9.35664     -4.67832            0  ]
[            0      8.10309            0  ]
[            0            0           40  ]
unit cell volume = 3032.71
G =
[   0.671522   0.387703         -0  ]
[          0   0.775406         -0  ]
[         -0         -0    0.15708  ]
Minimum fftbox size, Smin = [  40  40  164  ]
Chosen fftbox size, S = [  40  40  168  ]

---------- Exchange Correlation functional ----------
Initalized PBE GGA exchange.
Initalized PBE GGA correlation.

---------- Setting up pseudopotentials ----------
Width of ionic core gaussian charges (only for fluid interactions / plotting) set to 0

Reading pseudopotential file '/home/gridsan/aligho/DFT/build-Nov24/pseudopotentials/SG15/C_ONCV_PBE.upf':
  'C' pseudopotential, 'PBE' functional
  Generated using ONCVPSP code by D. R. Hamann
  Author: Martin Schlipf and Francois Gygi  Date: 150915.
  4 valence electrons, 2 orbitals, 4 projectors, 1248 radial grid points, with lMax = 1
  Transforming local potential to a uniform radial grid of dG=0.02 with 1502 points.
  Transforming nonlocal projectors to a uniform radial grid of dG=0.02 with 432 points.
    2S    l: 0   occupation:  2.0   eigenvalue: -0.505335
    2P    l: 1   occupation:  2.0   eigenvalue: -0.194238
  Transforming atomic orbitals to a uniform radial grid of dG=0.02 with 432 points.
  Core radius for overlap checks: 1.23 bohrs.
  Reading pulay file /home/gridsan/aligho/DFT/build-Nov24/pseudopotentials/SG15/C_ONCV_PBE.pulay ... using dE_dnG = -9.239532e-03 computed for Ecut = 20.

Reading pseudopotential file '/home/gridsan/aligho/DFT/build-Nov24/pseudopotentials/SG15/N_ONCV_PBE.upf':
  'N' pseudopotential, 'PBE' functional
  Generated using ONCVPSP code by D. R. Hamann
  Author: Martin Schlipf and Francois Gygi  Date: 150915.
  5 valence electrons, 2 orbitals, 4 projectors, 1058 radial grid points, with lMax = 1
  Transforming local potential to a uniform radial grid of dG=0.02 with 1502 points.
  Transforming nonlocal projectors to a uniform radial grid of dG=0.02 with 432 points.
    2S    l: 0   occupation:  2.0   eigenvalue: -0.682907
    2P    l: 1   occupation:  3.0   eigenvalue: -0.260548
  Transforming atomic orbitals to a uniform radial grid of dG=0.02 with 432 points.
  Core radius for overlap checks: 1.35 bohrs.
  Reading pulay file /home/gridsan/aligho/DFT/build-Nov24/pseudopotentials/SG15/N_ONCV_PBE.pulay ... using dE_dnG = -2.956256e-02 computed for Ecut = 20.

Reading pseudopotential file '/home/gridsan/aligho/DFT/build-Nov24/pseudopotentials/SG15/B_ONCV_PBE.upf':
  'B' pseudopotential, 'PBE' functional
  Generated using ONCVPSP code by D. R. Hamann
  Author: Martin Schlipf and Francois Gygi  Date: 150915.
  3 valence electrons, 2 orbitals, 4 projectors, 1534 radial grid points, with lMax = 1
  Transforming local potential to a uniform radial grid of dG=0.02 with 1502 points.
  Transforming nonlocal projectors to a uniform radial grid of dG=0.02 with 432 points.
    2S    l: 0   occupation:  2.0   eigenvalue: -0.347027
    2P    l: 1   occupation:  1.0   eigenvalue: -0.132548
  Transforming atomic orbitals to a uniform radial grid of dG=0.02 with 432 points.
  Core radius for overlap checks: 1.60 bohrs.
  Reading pulay file /home/gridsan/aligho/DFT/build-Nov24/pseudopotentials/SG15/B_ONCV_PBE.pulay ... using dE_dnG = -3.748568e-04 computed for Ecut = 20.

Initialized 3 species with 8 total atoms.

Folded 1 k-points by 12x12x1 to 144 k-points.

---------- Setting up k-points, bands, fillings ----------
Adding inversion symmetry to k-mesh for non-inversion-symmetric unit cell.
Reduced to 19 k-points under symmetry. 
Computing the number of bands and number of electrons
Calculating initial fillings.
nElectrons:  33.000000   nBands: 32   nStates: 38

----- Setting up reduced wavefunction bases (one per k-point) -----
average nbasis = 12955.938 , ideal nbasis = 12955.957

---------- Setting up coulomb interaction ----------
Initialized slab truncation along lattice direction 001

---------- Setting up 2D ewald sum ----------
Optimum gaussian width for ewald sums = 5.194429 bohr.
Real space sums over 289 unit cells with max indices [  8  8  0  ]
Reciprocal space sums over 81 terms with max indices [  4  4  0  ]

---------- Allocating electronic variables ----------
Initializing wave functions:  linear combination of atomic orbitals
C pseudo-atom occupations:   s ( 2 )  p ( 2 )
N pseudo-atom occupations:   s ( 2 )  p ( 3 )
B pseudo-atom occupations:   s ( 2 )  p ( 1 )
	FillingsUpdate:  mu: -0.181508155  nElectrons: 33.000000  magneticMoment: [ Abs: 0.53363  Tot: -0.52000 ]
LCAOMinimize: Iter:   0  F: -53.3440050198077529  |grad|_K:  5.440e-03  alpha:  1.000e+00
[d-4-15-4:74124] 37 more processes have sent help message help-mpi-common-cuda.txt / dlopen failed
[d-4-15-4:74124] Set MCA parameter "orte_base_help_aggregate" to 0 to see all help / error messages
[d-4-15-4:74124] 37 more processes have sent help message help-mpi-btl-openib-cpc-base.txt / no cpcs for port
	FillingsUpdate:  mu: -0.183811026  nElectrons: 33.000000  magneticMoment: [ Abs: 0.53565  Tot: -0.52000 ]
LCAOMinimize: Iter:   1  F: -53.5615440355539363  |grad|_K:  9.623e-04  alpha:  4.250e-01  linmin:  3.446e-01  cgtest: -8.145e-01  t[s]:      6.67
	FillingsUpdate:  mu: -0.178386799  nElectrons: 33.000000  magneticMoment: [ Abs: 0.53679  Tot: -0.52000 ]
LCAOMinimize: Iter:   2  F: -53.5629954113276838  |grad|_K:  8.094e-04  alpha:  2.333e-01  linmin:  1.059e-03  cgtest:  8.863e-01  t[s]:      8.62
LCAOMinimize: Encountered beta<0, resetting CG.
	FillingsUpdate:  mu: -0.178584288  nElectrons: 33.000000  magneticMoment: [ Abs: 0.53832  Tot: -0.52000 ]
LCAOMinimize: Iter:   3  F: -53.5681286960787233  |grad|_K:  1.043e-04  alpha:  3.907e-01  linmin:  1.959e-01  cgtest: -4.512e-01  t[s]:     10.58
	FillingsUpdate:  mu: -0.178999978  nElectrons: 33.000000  magneticMoment: [ Abs: 0.53960  Tot: -0.52000 ]
LCAOMinimize: Iter:   4  F: -53.5681873433380602  |grad|_K:  5.480e-05  alpha:  3.612e-01  linmin:  5.493e-04  cgtest:  5.606e-01  t[s]:     12.51
LCAOMinimize: Encountered beta<0, resetting CG.
	FillingsUpdate:  mu: -0.179064485  nElectrons: 33.000000  magneticMoment: [ Abs: 0.54047  Tot: -0.52000 ]
LCAOMinimize: Iter:   5  F: -53.5682112597030482  |grad|_K:  1.347e-05  alpha:  3.848e-01  linmin: -1.249e-03  cgtest:  3.441e-03  t[s]:     14.44
	FillingsUpdate:  mu: -0.178897858  nElectrons: 33.000000  magneticMoment: [ Abs: 0.54197  Tot: -0.52000 ]
LCAOMinimize: Iter:   6  F: -53.5682144587027480  |grad|_K:  8.921e-06  alpha:  8.503e-01  linmin: -1.113e-03  cgtest:  2.182e-03  t[s]:     16.37
	FillingsUpdate:  mu: -0.178966751  nElectrons: 33.000000  magneticMoment: [ Abs: 0.54279  Tot: -0.52000 ]
LCAOMinimize: Iter:   7  F: -53.5682154455964366  |grad|_K:  1.394e-06  alpha:  5.984e-01  linmin: -2.375e-05  cgtest: -1.940e-02  t[s]:     18.32
	FillingsUpdate:  mu: -0.178983423  nElectrons: 33.000000  magneticMoment: [ Abs: 0.54281  Tot: -0.52000 ]
LCAOMinimize: Iter:   8  F: -53.5682154798054881  |grad|_K:  4.583e-07  alpha:  8.514e-01  linmin:  1.318e-03  cgtest: -3.849e-03  t[s]:     20.25
LCAOMinimize: Converged (|Delta F|<1.000000e-06 for 2 iters).


---- Citations for features of the code used in this run ----

   Software package:
      R. Sundararaman, K. Letchworth-Weaver, K.A. Schwarz, D. Gunceler, Y. Ozhabes and T.A. Arias, 'JDFTx: software for joint density-functional theory', SoftwareX 6, 278 (2017)

   gga-PBE exchange-correlation functional:
      J.P. Perdew, K. Burke and M. Ernzerhof, Phys. Rev. Lett. 77, 3865 (1996)

   Pseudopotentials:
      M Schlipf and F Gygi, Comput. Phys. Commun. 196, 36 (2015)

   Truncated Coulomb potentials:
      R. Sundararaman and T.A. Arias, Phys. Rev. B 87, 165122 (2013)

This list may not be complete. Please suggest additional citations or
report any other bugs at https://github.com/shankar1729/jdftx/issues

Initialization completed successfully at t[s]:     20.44


-------- Electronic minimization -----------
Will mix electronic density at each iteration.
	FillingsUpdate:  mu: -0.178983423  nElectrons: 33.000000  magneticMoment: [ Abs: 0.54281  Tot: -0.52000 ]
	FillingsUpdate:  mu: -0.195081086  nElectrons: 33.000000  magneticMoment: [ Abs: 0.54281  Tot: -0.52000 ]
SCF: Cycle:  0   F: -53.998632793270353   dF: -4.304e-01   |Residual|: 2.316e-01   |deigs|: 1.092e-01  t[s]:     24.89
	FillingsUpdate:  mu: -0.172931203  nElectrons: 33.000000  magneticMoment: [ Abs: 0.56178  Tot: -0.52000 ]
SCF: Cycle:  1   F: -54.018711925986125   dF: -2.008e-02   |Residual|: 1.292e-01   |deigs|: 2.696e-02  t[s]:     28.17
	FillingsUpdate:  mu: -0.142160090  nElectrons: 33.000000  magneticMoment: [ Abs: 0.57773  Tot: -0.52000 ]
SCF: Cycle:  2   F: -54.031508381512566   dF: -1.280e-02   |Residual|: 2.829e-02   |deigs|: 3.120e-02  t[s]:     31.47
	FillingsUpdate:  mu: -0.138737313  nElectrons: 33.000000  magneticMoment: [ Abs: 0.58150  Tot: -0.52000 ]
SCF: Cycle:  3   F: -54.031882790017590   dF: -3.744e-04   |Residual|: 1.627e-02   |deigs|: 8.544e-03  t[s]:     34.82
	FillingsUpdate:  mu: -0.126924525  nElectrons: 33.000000  magneticMoment: [ Abs: 0.58069  Tot: -0.52000 ]
SCF: Cycle:  4   F: -54.032518568533078   dF: -6.358e-04   |Residual|: 8.733e-03   |deigs|: 1.088e-02  t[s]:     38.17
	FillingsUpdate:  mu: -0.122711533  nElectrons: 33.000000  magneticMoment: [ Abs: 0.58286  Tot: -0.52000 ]
SCF: Cycle:  5   F: -54.032677062808816   dF: -1.585e-04   |Residual|: 6.547e-03   |deigs|: 4.301e-03  t[s]:     41.55
	FillingsUpdate:  mu: -0.115461872  nElectrons: 33.000000  magneticMoment: [ Abs: 0.57767  Tot: -0.52000 ]
SCF: Cycle:  6   F: -54.032750202734576   dF: -7.314e-05   |Residual|: 3.938e-03   |deigs|: 6.772e-03  t[s]:     44.95
	FillingsUpdate:  mu: -0.111461481  nElectrons: 33.000000  magneticMoment: [ Abs: 0.57657  Tot: -0.52000 ]
SCF: Cycle:  7   F: -54.032739883271702   dF: +1.032e-05   |Residual|: 3.327e-03   |deigs|: 4.966e-03  t[s]:     48.41
	FillingsUpdate:  mu: -0.106622634  nElectrons: 33.000000  magneticMoment: [ Abs: 0.57919  Tot: -0.52000 ]
SCF: Cycle:  8   F: -54.032765200188663   dF: -2.532e-05   |Residual|: 2.547e-03   |deigs|: 5.015e-03  t[s]:     51.87
	FillingsUpdate:  mu: -0.104036321  nElectrons: 33.000000  magneticMoment: [ Abs: 0.57843  Tot: -0.52000 ]
SCF: Cycle:  9   F: -54.032784337205818   dF: -1.914e-05   |Residual|: 2.017e-03   |deigs|: 2.847e-03  t[s]:     55.35
	FillingsUpdate:  mu: -0.101584843  nElectrons: 33.000000  magneticMoment: [ Abs: 0.57751  Tot: -0.52000 ]
SCF: Cycle: 10   F: -54.032797325714910   dF: -1.299e-05   |Residual|: 1.777e-03   |deigs|: 2.494e-03  t[s]:     58.85
	FillingsUpdate:  mu: -0.098342207  nElectrons: 33.000000  magneticMoment: [ Abs: 0.57642  Tot: -0.52000 ]
SCF: Cycle: 11   F: -54.032807241898453   dF: -9.916e-06   |Residual|: 1.436e-03   |deigs|: 3.130e-03  t[s]:     62.37
	FillingsUpdate:  mu: -0.095813489  nElectrons: 33.000000  magneticMoment: [ Abs: 0.57681  Tot: -0.52000 ]
SCF: Cycle: 12   F: -54.032811294561370   dF: -4.053e-06   |Residual|: 1.297e-03   |deigs|: 2.339e-03  t[s]:     65.89
	FillingsUpdate:  mu: -0.092440129  nElectrons: 33.000000  magneticMoment: [ Abs: 0.57827  Tot: -0.52000 ]
SCF: Cycle: 13   F: -54.032812681076393   dF: -1.387e-06   |Residual|: 1.133e-03   |deigs|: 3.204e-03  t[s]:     69.40
	FillingsUpdate:  mu: -0.089058457  nElectrons: 33.000000  magneticMoment: [ Abs: 0.57749  Tot: -0.52000 ]
SCF: Cycle: 14   F: -54.032812049195940   dF: +6.319e-07   |Residual|: 1.100e-03   |deigs|: 3.030e-03  t[s]:     72.91
	FillingsUpdate:  mu: -0.085044028  nElectrons: 33.000000  magneticMoment: [ Abs: 0.57749  Tot: -0.52000 ]
SCF: Cycle: 15   F: -54.032813013031898   dF: -9.638e-07   |Residual|: 9.987e-04   |deigs|: 3.654e-03  t[s]:     76.43
	FillingsUpdate:  mu: -0.081110983  nElectrons: 33.000000  magneticMoment: [ Abs: 0.57636  Tot: -0.52000 ]
SCF: Cycle: 16   F: -54.032814103998561   dF: -1.091e-06   |Residual|: 8.174e-04   |deigs|: 3.746e-03  t[s]:     79.94
	FillingsUpdate:  mu: -0.078874909  nElectrons: 33.000000  magneticMoment: [ Abs: 0.57644  Tot: -0.52000 ]
SCF: Cycle: 17   F: -54.032816450469952   dF: -2.346e-06   |Residual|: 6.159e-04   |deigs|: 1.978e-03  t[s]:     83.45
	FillingsUpdate:  mu: -0.077755363  nElectrons: 33.000000  magneticMoment: [ Abs: 0.57668  Tot: -0.52000 ]
SCF: Cycle: 18   F: -54.032817956323747   dF: -1.506e-06   |Residual|: 4.163e-04   |deigs|: 1.066e-03  t[s]:     86.97
	FillingsUpdate:  mu: -0.077220120  nElectrons: 33.000000  magneticMoment: [ Abs: 0.57645  Tot: -0.52000 ]
SCF: Cycle: 19   F: -54.032818420796062   dF: -4.645e-07   |Residual|: 2.649e-04   |deigs|: 6.769e-04  t[s]:     90.47
	FillingsUpdate:  mu: -0.076894245  nElectrons: 33.000000  magneticMoment: [ Abs: 0.57639  Tot: -0.52000 ]
SCF: Cycle: 20   F: -54.032818585190569   dF: -1.644e-07   |Residual|: 1.663e-04   |deigs|: 4.914e-04  t[s]:     93.98
	FillingsUpdate:  mu: -0.076617312  nElectrons: 33.000000  magneticMoment: [ Abs: 0.57636  Tot: -0.52000 ]
SCF: Cycle: 21   F: -54.032818685571087   dF: -1.004e-07   |Residual|: 9.883e-05   |deigs|: 6.411e-04  t[s]:     97.49
	FillingsUpdate:  mu: -0.076455556  nElectrons: 33.000000  magneticMoment: [ Abs: 0.57634  Tot: -0.52000 ]
SCF: Cycle: 22   F: -54.032818730551384   dF: -4.498e-08   |Residual|: 5.174e-05   |deigs|: 6.175e-04  t[s]:    100.99
	FillingsUpdate:  mu: -0.076377936  nElectrons: 33.000000  magneticMoment: [ Abs: 0.57636  Tot: -0.52000 ]
SCF: Cycle: 23   F: -54.032818745524750   dF: -1.497e-08   |Residual|: 3.096e-05   |deigs|: 2.170e-04  t[s]:    104.50
	FillingsUpdate:  mu: -0.076346661  nElectrons: 33.000000  magneticMoment: [ Abs: 0.57634  Tot: -0.52000 ]
SCF: Cycle: 24   F: -54.032818752880580   dF: -7.356e-09   |Residual|: 1.896e-05   |deigs|: 1.278e-04  t[s]:    108.01
	FillingsUpdate:  mu: -0.076330682  nElectrons: 33.000000  magneticMoment: [ Abs: 0.57633  Tot: -0.52000 ]
SCF: Cycle: 25   F: -54.032818756403323   dF: -3.523e-09   |Residual|: 1.077e-05   |deigs|: 3.731e-04  t[s]:    111.52
SCF: Converged (|Delta E|<1.000000e-08 for 2 iters).


# Ionic positions in lattice coordinates:
ion C  -0.000000000000000   0.000000000000000   0.000000000000000 1
ion N   0.164313074529992   0.328626149059985   0.000000000000000 1
ion N   0.164313074529992   0.835686925470008   0.000000000000000 1
ion N   0.666666666666667   0.333333333333333   0.000000000000000 1
ion N   0.671373850940015   0.835686925470008   0.000000000000000 1
ion B  -0.001576660817548   0.499211669591226   0.000000000000000 1
ion B   0.500788330408774   0.001576660817548   0.000000000000000 1
ion B   0.500788330408774   0.499211669591226   0.000000000000000 1

# Forces in Lattice coordinates:
force C   0.000000000000000   0.000000000000000   0.000000000000000 1
force N   0.000000000000000  -0.031368676835596  -0.000000000000000 1
force N  -0.031368676835595   0.031368676835593   0.000000000000000 1
force N  -0.000000000000000  -0.000000000000000   0.000000000000000 1
force N   0.031368676835597   0.000000000000000   0.000000000000000 1
force B   0.009731565541409  -0.000000000000000   0.000000000000000 1
force B   0.000000000000000  -0.009731565541409  -0.000000000000000 1
force B  -0.009731565541409   0.009731565541409   0.000000000000000 1

# Energy components:
   Eewald =      -85.5148968124686775
       EH =      -43.5203815104400036
     Eloc =       54.1228698008512623
      Enl =       -2.2727578942226647
   Epulay =       -0.0000008322926719
      Exc =      -15.3399711608394931
       KE =       38.4923205241275852
-------------------------------------
     Etot =      -54.0328178852846648
       TS =        0.0000008711186558
-------------------------------------
        F =      -54.0328187564033229

IonicMinimize: Iter:   0  F: -54.032818756403323  |grad|_K:  1.433e-03  t[s]:    111.83
IonicMinimize: None of the convergence criteria satisfied after 0 iterations.

#--- Lowdin population analysis ---
# oxidation-state C +0.260
# magnetic-moments C -0.275
# oxidation-state N -0.257 -0.257 -0.383 -0.257
# magnetic-moments N +0.004 +0.004 -0.005 +0.004
# oxidation-state B +0.405 +0.405 +0.405
# magnetic-moments B -0.080 -0.080 -0.080


Dumping 'BN22BC--0.52.fillings' ... done
Dumping 'BN22BC--0.52.wfns' ... done
Dumping 'BN22BC--0.52.n_up' ... done
Dumping 'BN22BC--0.52.n_dn' ... done
Dumping 'BN22BC--0.52.eigenvals' ... done
End date and time: Sun Jan 30 23:09:14 2022  (Duration: 0-0:01:59.73)
Done!
