magnetization is 0.24
--------------------------------------------------------------------------
The library attempted to open the following supporting CUDA libraries,
but each of them failed.  CUDA-aware support is disabled.
libcuda.so.1: cannot open shared object file: No such file or directory
libcuda.dylib: cannot open shared object file: No such file or directory
/usr/lib64/libcuda.so.1: cannot open shared object file: No such file or directory
/usr/lib64/libcuda.dylib: cannot open shared object file: No such file or directory
If you are not interested in CUDA-aware support, then run with
--mca opal_warn_on_missing_libcuda 0 to suppress this message.  If you are interested
in CUDA-aware support, then try setting LD_LIBRARY_PATH to the location
of libcuda.so.1 to get passed this issue.
--------------------------------------------------------------------------
--------------------------------------------------------------------------
No OpenFabrics connection schemes reported that they were able to be
used on a specific port.  As such, the openib BTL (OpenFabrics
support) will be disabled for this port.

  Local host:           d-16-11-1
  Local device:         mlx5_1
  Local port:           1
  CPCs attempted:       rdmacm, udcm
--------------------------------------------------------------------------

*************** JDFTx 1.6.0 (git hash 42ebbcc2) ***************

Start date and time: Sun Jan 30 23:09:17 2022
Executable jdftx with command-line: -i BN22BC.in
Running on hosts (process indices):  d-16-11-1 (0-37)
Divided in process groups (process indices):  0 (0)  1 (1)  2 (2)  3 (3)  4 (4)  5 (5)  6 (6)  7 (7)  8 (8)  9 (9)  10 (10)  11 (11)  12 (12)  13 (13)  14 (14)  15 (15)  16 (16)  17 (17)  18 (18)  19 (19)  20 (20)  21 (21)  22 (22)  23 (23)  24 (24)  25 (25)  26 (26)  27 (27)  28 (28)  29 (29)  30 (30)  31 (31)  32 (32)  33 (33)  34 (34)  35 (35)  36 (36)  37 (37)
Resource initialization completed at t[s]:      0.00
Run totals: 38 processes, 48 threads, 0 GPUs


Input parsed successfully to the following command list (including defaults):

basis kpoint-dependent
coords-type Lattice
core-overlap-check vector
coulomb-interaction Slab 001
davidson-band-ratio 1.1
dump End State ElecDensity BandEigs
dump-name BN22BC-0.24.$VAR
elec-cutoff 20
elec-eigen-algo Davidson
elec-ex-corr gga-PBE
elec-initial-magnetization 0.240000 yes
elec-smearing Fermi 1e-05
electronic-minimize  \
	dirUpdateScheme      FletcherReeves \
	linminMethod         DirUpdateRecommended \
	nIterations          100 \
	history              15 \
	knormThreshold       0 \
	energyDiffThreshold  1e-08 \
	nEnergyDiff          2 \
	alphaTstart          1 \
	alphaTmin            1e-10 \
	updateTestStepSize   yes \
	alphaTreduceFactor   0.1 \
	alphaTincreaseFactor 3 \
	nAlphaAdjustMax      3 \
	wolfeEnergy          0.0001 \
	wolfeGradient        0.9 \
	fdTest               no
electronic-scf  \
	nIterations	1000 \
	energyDiffThreshold	1e-08 \
	residualThreshold	1e-07 \
	mixFraction	0.5 \
	qMetric	0.8 \
	history	10 \
	nEigSteps	2 \
	eigDiffThreshold	1e-08 \
	mixedVariable	Density \
	qKerker	0.8 \
	qKappa	-1 \
	verbose	no \
	mixFractionMag	1.5
exchange-regularization WignerSeitzTruncated
fluid None
fluid-ex-corr (null) lda-PZ
fluid-gummel-loop 10 1.000000e-05
fluid-minimize  \
	dirUpdateScheme      PolakRibiere \
	linminMethod         DirUpdateRecommended \
	nIterations          100 \
	history              15 \
	knormThreshold       0 \
	energyDiffThreshold  0 \
	nEnergyDiff          2 \
	alphaTstart          1 \
	alphaTmin            1e-10 \
	updateTestStepSize   yes \
	alphaTreduceFactor   0.1 \
	alphaTincreaseFactor 3 \
	nAlphaAdjustMax      3 \
	wolfeEnergy          0.0001 \
	wolfeGradient        0.9 \
	fdTest               no
fluid-solvent H2O 55.338 ScalarEOS \
	epsBulk 78.4 \
	pMol 0.92466 \
	epsInf 1.77 \
	Pvap 1.06736e-10 \
	sigmaBulk 4.62e-05 \
	Rvdw 2.61727 \
	Res 1.42 \
	tauNuc 343133 \
	poleEl 15 7 1
forces-output-coords Positions
ion C   0.000000000000000  -0.000000000000000   0.000000000000000 1
ion N   0.164313074529992   0.328626149059985   0.000000000000000 1
ion N   0.164313074529992   0.835686925470008   0.000000000000000 1
ion N   0.666666666666667   0.333333333333333   0.000000000000000 1
ion N   0.671373850940015   0.835686925470008   0.000000000000000 1
ion B  -0.001576660817548   0.499211669591226   0.000000000000000 1
ion B   0.500788330408774   0.001576660817548   0.000000000000000 1
ion B   0.500788330408774   0.499211669591226   0.000000000000000 1
ion-species SG15/$ID_ONCV_PBE.upf
ion-width 0
ionic-minimize  \
	dirUpdateScheme      L-BFGS \
	linminMethod         DirUpdateRecommended \
	nIterations          0 \
	history              15 \
	knormThreshold       0.0001 \
	energyDiffThreshold  1e-06 \
	nEnergyDiff          2 \
	alphaTstart          1 \
	alphaTmin            1e-10 \
	updateTestStepSize   yes \
	alphaTreduceFactor   0.1 \
	alphaTincreaseFactor 3 \
	nAlphaAdjustMax      3 \
	wolfeEnergy          0.0001 \
	wolfeGradient        0.9 \
	fdTest               no
kpoint   0.000000000000   0.000000000000   0.000000000000  1.00000000000000
kpoint-folding 12 12 1 
latt-move-scale 1 1 1
latt-scale 1 1 1 
lattice  \
	   9.356640512437433   -4.678320256218713    0.000000000000000  \
	  -0.000000000000000    8.103088377849462    0.000000000000000  \
	   0.000000000000000    0.000000000000000   40.000000000000000 
lattice-minimize  \
	dirUpdateScheme      L-BFGS \
	linminMethod         DirUpdateRecommended \
	nIterations          0 \
	history              15 \
	knormThreshold       0 \
	energyDiffThreshold  1e-06 \
	nEnergyDiff          2 \
	alphaTstart          1 \
	alphaTmin            1e-10 \
	updateTestStepSize   yes \
	alphaTreduceFactor   0.1 \
	alphaTincreaseFactor 3 \
	nAlphaAdjustMax      3 \
	wolfeEnergy          0.0001 \
	wolfeGradient        0.9 \
	fdTest               no
lcao-params -1 1e-06 1e-05
pcm-variant GLSSA13
spintype z-spin
subspace-rotation-factor 1 yes
symmetries automatic
symmetry-threshold 0.0001



---------- Setting up symmetries ----------

Found 24 point-group symmetries of the bravais lattice
Found 12 space-group symmetries with basis
Applied RMS atom displacement 3.80214e-15 bohrs to make symmetries exact.

---------- Initializing the Grid ----------
R = 
[      9.35664     -4.67832            0  ]
[            0      8.10309            0  ]
[            0            0           40  ]
unit cell volume = 3032.71
G =
[   0.671522   0.387703         -0  ]
[          0   0.775406         -0  ]
[         -0         -0    0.15708  ]
Minimum fftbox size, Smin = [  40  40  164  ]
Chosen fftbox size, S = [  40  40  168  ]

---------- Exchange Correlation functional ----------
Initalized PBE GGA exchange.
Initalized PBE GGA correlation.

---------- Setting up pseudopotentials ----------
Width of ionic core gaussian charges (only for fluid interactions / plotting) set to 0

Reading pseudopotential file '/home/gridsan/aligho/DFT/build-Nov24/pseudopotentials/SG15/C_ONCV_PBE.upf':
  'C' pseudopotential, 'PBE' functional
  Generated using ONCVPSP code by D. R. Hamann
  Author: Martin Schlipf and Francois Gygi  Date: 150915.
  4 valence electrons, 2 orbitals, 4 projectors, 1248 radial grid points, with lMax = 1
  Transforming local potential to a uniform radial grid of dG=0.02 with 1502 points.
  Transforming nonlocal projectors to a uniform radial grid of dG=0.02 with 432 points.
    2S    l: 0   occupation:  2.0   eigenvalue: -0.505335
    2P    l: 1   occupation:  2.0   eigenvalue: -0.194238
  Transforming atomic orbitals to a uniform radial grid of dG=0.02 with 432 points.
  Core radius for overlap checks: 1.23 bohrs.
  Reading pulay file /home/gridsan/aligho/DFT/build-Nov24/pseudopotentials/SG15/C_ONCV_PBE.pulay ... using dE_dnG = -9.239532e-03 computed for Ecut = 20.

Reading pseudopotential file '/home/gridsan/aligho/DFT/build-Nov24/pseudopotentials/SG15/N_ONCV_PBE.upf':
  'N' pseudopotential, 'PBE' functional
  Generated using ONCVPSP code by D. R. Hamann
  Author: Martin Schlipf and Francois Gygi  Date: 150915.
  5 valence electrons, 2 orbitals, 4 projectors, 1058 radial grid points, with lMax = 1
  Transforming local potential to a uniform radial grid of dG=0.02 with 1502 points.
  Transforming nonlocal projectors to a uniform radial grid of dG=0.02 with 432 points.
    2S    l: 0   occupation:  2.0   eigenvalue: -0.682907
    2P    l: 1   occupation:  3.0   eigenvalue: -0.260548
  Transforming atomic orbitals to a uniform radial grid of dG=0.02 with 432 points.
  Core radius for overlap checks: 1.35 bohrs.
  Reading pulay file /home/gridsan/aligho/DFT/build-Nov24/pseudopotentials/SG15/N_ONCV_PBE.pulay ... using dE_dnG = -2.956256e-02 computed for Ecut = 20.

Reading pseudopotential file '/home/gridsan/aligho/DFT/build-Nov24/pseudopotentials/SG15/B_ONCV_PBE.upf':
  'B' pseudopotential, 'PBE' functional
  Generated using ONCVPSP code by D. R. Hamann
  Author: Martin Schlipf and Francois Gygi  Date: 150915.
  3 valence electrons, 2 orbitals, 4 projectors, 1534 radial grid points, with lMax = 1
  Transforming local potential to a uniform radial grid of dG=0.02 with 1502 points.
  Transforming nonlocal projectors to a uniform radial grid of dG=0.02 with 432 points.
    2S    l: 0   occupation:  2.0   eigenvalue: -0.347027
    2P    l: 1   occupation:  1.0   eigenvalue: -0.132548
  Transforming atomic orbitals to a uniform radial grid of dG=0.02 with 432 points.
  Core radius for overlap checks: 1.60 bohrs.
  Reading pulay file /home/gridsan/aligho/DFT/build-Nov24/pseudopotentials/SG15/B_ONCV_PBE.pulay ... using dE_dnG = -3.748568e-04 computed for Ecut = 20.

Initialized 3 species with 8 total atoms.

Folded 1 k-points by 12x12x1 to 144 k-points.

---------- Setting up k-points, bands, fillings ----------
Adding inversion symmetry to k-mesh for non-inversion-symmetric unit cell.
Reduced to 19 k-points under symmetry. 
Computing the number of bands and number of electrons
Calculating initial fillings.
nElectrons:  33.000000   nBands: 32   nStates: 38

----- Setting up reduced wavefunction bases (one per k-point) -----
average nbasis = 12955.938 , ideal nbasis = 12955.957

---------- Setting up coulomb interaction ----------
Initialized slab truncation along lattice direction 001

---------- Setting up 2D ewald sum ----------
Optimum gaussian width for ewald sums = 5.194429 bohr.
Real space sums over 289 unit cells with max indices [  8  8  0  ]
Reciprocal space sums over 81 terms with max indices [  4  4  0  ]

---------- Allocating electronic variables ----------
Initializing wave functions:  linear combination of atomic orbitals
C pseudo-atom occupations:   s ( 2 )  p ( 2 )
N pseudo-atom occupations:   s ( 2 )  p ( 3 )
B pseudo-atom occupations:   s ( 2 )  p ( 1 )
	FillingsUpdate:  mu: -0.182138449  nElectrons: 33.000000  magneticMoment: [ Abs: 0.24602  Tot: +0.24000 ]
LCAOMinimize: Iter:   0  F: -53.3342563924115112  |grad|_K:  5.625e-03  alpha:  1.000e+00
[d-16-11-1:32506] 37 more processes have sent help message help-mpi-common-cuda.txt / dlopen failed
[d-16-11-1:32506] Set MCA parameter "orte_base_help_aggregate" to 0 to see all help / error messages
[d-16-11-1:32506] 37 more processes have sent help message help-mpi-btl-openib-cpc-base.txt / no cpcs for port
	FillingsUpdate:  mu: -0.186812861  nElectrons: 33.000000  magneticMoment: [ Abs: 0.24680  Tot: +0.24000 ]
LCAOMinimize: Iter:   1  F: -53.5590732738521353  |grad|_K:  1.049e-03  alpha:  4.257e-01  linmin:  3.627e-01  cgtest: -8.682e-01  t[s]:      6.69
	FillingsUpdate:  mu: -0.181289267  nElectrons: 33.000000  magneticMoment: [ Abs: 0.24724  Tot: +0.24000 ]
LCAOMinimize: Iter:   2  F: -53.5604226627412885  |grad|_K:  9.178e-04  alpha:  2.058e-01  linmin: -4.004e-05  cgtest:  9.162e-01  t[s]:      8.67
LCAOMinimize: Encountered beta<0, resetting CG.
	FillingsUpdate:  mu: -0.180112451  nElectrons: 33.000000  magneticMoment: [ Abs: 0.24790  Tot: +0.24000 ]
LCAOMinimize: Iter:   3  F: -53.5669026910756969  |grad|_K:  1.125e-04  alpha:  3.777e-01  linmin:  5.612e-03  cgtest: -3.075e-01  t[s]:     10.64
	FillingsUpdate:  mu: -0.180915870  nElectrons: 33.000000  magneticMoment: [ Abs: 0.24840  Tot: +0.24000 ]
LCAOMinimize: Iter:   4  F: -53.5669723441419521  |grad|_K:  4.342e-05  alpha:  3.161e-01  linmin: -1.409e-01  cgtest:  7.252e-01  t[s]:     12.60
LCAOMinimize: Encountered beta<0, resetting CG.
	FillingsUpdate:  mu: -0.181130909  nElectrons: 33.000000  magneticMoment: [ Abs: 0.24879  Tot: +0.24000 ]
LCAOMinimize: Iter:   5  F: -53.5669860663729196  |grad|_K:  8.363e-06  alpha:  3.517e-01  linmin: -7.081e-04  cgtest:  1.281e-03  t[s]:     14.59
	FillingsUpdate:  mu: -0.181037375  nElectrons: 33.000000  magneticMoment: [ Abs: 0.24962  Tot: +0.24000 ]
LCAOMinimize: Iter:   6  F: -53.5669874861230468  |grad|_K:  4.452e-06  alpha:  9.805e-01  linmin: -3.085e-04  cgtest:  1.307e-03  t[s]:     16.54
	FillingsUpdate:  mu: -0.181070993  nElectrons: 33.000000  magneticMoment: [ Abs: 0.24989  Tot: +0.24000 ]
LCAOMinimize: Iter:   7  F: -53.5669877242209367  |grad|_K:  1.429e-06  alpha:  5.804e-01  linmin: -2.341e-05  cgtest: -1.916e-03  t[s]:     18.49
	FillingsUpdate:  mu: -0.181081133  nElectrons: 33.000000  magneticMoment: [ Abs: 0.24994  Tot: +0.24000 ]
LCAOMinimize: Iter:   8  F: -53.5669877598200230  |grad|_K:  2.800e-07  alpha:  8.445e-01  linmin:  3.222e-03  cgtest: -1.010e-02  t[s]:     20.44
LCAOMinimize: Converged (|Delta F|<1.000000e-06 for 2 iters).


---- Citations for features of the code used in this run ----

   Software package:
      R. Sundararaman, K. Letchworth-Weaver, K.A. Schwarz, D. Gunceler, Y. Ozhabes and T.A. Arias, 'JDFTx: software for joint density-functional theory', SoftwareX 6, 278 (2017)

   gga-PBE exchange-correlation functional:
      J.P. Perdew, K. Burke and M. Ernzerhof, Phys. Rev. Lett. 77, 3865 (1996)

   Pseudopotentials:
      M Schlipf and F Gygi, Comput. Phys. Commun. 196, 36 (2015)

   Truncated Coulomb potentials:
      R. Sundararaman and T.A. Arias, Phys. Rev. B 87, 165122 (2013)

This list may not be complete. Please suggest additional citations or
report any other bugs at https://github.com/shankar1729/jdftx/issues

Initialization completed successfully at t[s]:     20.63


-------- Electronic minimization -----------
Will mix electronic density at each iteration.
	FillingsUpdate:  mu: -0.181081133  nElectrons: 33.000000  magneticMoment: [ Abs: 0.24994  Tot: +0.24000 ]
	FillingsUpdate:  mu: -0.198144091  nElectrons: 33.000000  magneticMoment: [ Abs: 0.24994  Tot: +0.24000 ]
SCF: Cycle:  0   F: -53.997284129029168   dF: -4.303e-01   |Residual|: 2.310e-01   |deigs|: 1.091e-01  t[s]:     25.15
	FillingsUpdate:  mu: -0.175948240  nElectrons: 33.000000  magneticMoment: [ Abs: 0.25885  Tot: +0.24000 ]
SCF: Cycle:  1   F: -54.017601925801813   dF: -2.032e-02   |Residual|: 1.290e-01   |deigs|: 2.702e-02  t[s]:     28.44
	FillingsUpdate:  mu: -0.145682908  nElectrons: 33.000000  magneticMoment: [ Abs: 0.27197  Tot: +0.24000 ]
SCF: Cycle:  2   F: -54.030277529509618   dF: -1.268e-02   |Residual|: 2.814e-02   |deigs|: 3.109e-02  t[s]:     31.78
	FillingsUpdate:  mu: -0.142204621  nElectrons: 33.000000  magneticMoment: [ Abs: 0.26857  Tot: +0.24000 ]
SCF: Cycle:  3   F: -54.030661561667117   dF: -3.840e-04   |Residual|: 1.618e-02   |deigs|: 8.544e-03  t[s]:     35.14
	FillingsUpdate:  mu: -0.130074397  nElectrons: 33.000000  magneticMoment: [ Abs: 0.25966  Tot: +0.24000 ]
SCF: Cycle:  4   F: -54.031313904201646   dF: -6.523e-04   |Residual|: 8.487e-03   |deigs|: 1.120e-02  t[s]:     38.54
	FillingsUpdate:  mu: -0.125550258  nElectrons: 33.000000  magneticMoment: [ Abs: 0.26267  Tot: +0.24000 ]
SCF: Cycle:  5   F: -54.031473523210103   dF: -1.596e-04   |Residual|: 6.138e-03   |deigs|: 4.530e-03  t[s]:     41.98
	FillingsUpdate:  mu: -0.118768612  nElectrons: 33.000000  magneticMoment: [ Abs: 0.26416  Tot: +0.24000 ]
SCF: Cycle:  6   F: -54.031528747820239   dF: -5.522e-05   |Residual|: 3.976e-03   |deigs|: 6.461e-03  t[s]:     45.42
	FillingsUpdate:  mu: -0.114770152  nElectrons: 33.000000  magneticMoment: [ Abs: 0.26312  Tot: +0.24000 ]
SCF: Cycle:  7   F: -54.031521313072354   dF: +7.435e-06   |Residual|: 3.281e-03   |deigs|: 4.855e-03  t[s]:     48.91
	FillingsUpdate:  mu: -0.110327241  nElectrons: 33.000000  magneticMoment: [ Abs: 0.26199  Tot: +0.24000 ]
SCF: Cycle:  8   F: -54.031545423576432   dF: -2.411e-05   |Residual|: 2.705e-03   |deigs|: 4.633e-03  t[s]:     52.42
	FillingsUpdate:  mu: -0.107488661  nElectrons: 33.000000  magneticMoment: [ Abs: 0.26030  Tot: +0.24000 ]
SCF: Cycle:  9   F: -54.031565246466123   dF: -1.982e-05   |Residual|: 2.006e-03   |deigs|: 3.129e-03  t[s]:     55.93
	FillingsUpdate:  mu: -0.104810553  nElectrons: 33.000000  magneticMoment: [ Abs: 0.26213  Tot: +0.24000 ]
SCF: Cycle: 10   F: -54.031579248251610   dF: -1.400e-05   |Residual|: 1.831e-03   |deigs|: 2.722e-03  t[s]:     59.47
	FillingsUpdate:  mu: -0.101896716  nElectrons: 33.000000  magneticMoment: [ Abs: 0.26261  Tot: +0.24000 ]
SCF: Cycle: 11   F: -54.031587984586807   dF: -8.736e-06   |Residual|: 1.399e-03   |deigs|: 2.794e-03  t[s]:     63.02
	FillingsUpdate:  mu: -0.099351480  nElectrons: 33.000000  magneticMoment: [ Abs: 0.26205  Tot: +0.24000 ]
SCF: Cycle: 12   F: -54.031591540395276   dF: -3.556e-06   |Residual|: 1.287e-03   |deigs|: 2.353e-03  t[s]:     66.56
	FillingsUpdate:  mu: -0.095782372  nElectrons: 33.000000  magneticMoment: [ Abs: 0.26144  Tot: +0.24000 ]
SCF: Cycle: 13   F: -54.031592959864994   dF: -1.419e-06   |Residual|: 1.126e-03   |deigs|: 3.392e-03  t[s]:     70.10
	FillingsUpdate:  mu: -0.092368050  nElectrons: 33.000000  magneticMoment: [ Abs: 0.26070  Tot: +0.24000 ]
SCF: Cycle: 14   F: -54.031593205034476   dF: -2.452e-07   |Residual|: 1.084e-03   |deigs|: 3.054e-03  t[s]:     73.65
	FillingsUpdate:  mu: -0.088146022  nElectrons: 33.000000  magneticMoment: [ Abs: 0.26202  Tot: +0.24000 ]
SCF: Cycle: 15   F: -54.031593441176177   dF: -2.361e-07   |Residual|: 9.859e-04   |deigs|: 3.903e-03  t[s]:     77.19
	FillingsUpdate:  mu: -0.084321992  nElectrons: 33.000000  magneticMoment: [ Abs: 0.26213  Tot: +0.24000 ]
SCF: Cycle: 16   F: -54.031594740340850   dF: -1.299e-06   |Residual|: 7.890e-04   |deigs|: 3.604e-03  t[s]:     80.75
	FillingsUpdate:  mu: -0.081995011  nElectrons: 33.000000  magneticMoment: [ Abs: 0.26182  Tot: +0.24000 ]
SCF: Cycle: 17   F: -54.031596873944814   dF: -2.134e-06   |Residual|: 5.699e-04   |deigs|: 2.086e-03  t[s]:     84.28
	FillingsUpdate:  mu: -0.080487704  nElectrons: 33.000000  magneticMoment: [ Abs: 0.26135  Tot: +0.24000 ]
SCF: Cycle: 18   F: -54.031598686276112   dF: -1.812e-06   |Residual|: 3.081e-04   |deigs|: 1.463e-03  t[s]:     87.84
	FillingsUpdate:  mu: -0.080148635  nElectrons: 33.000000  magneticMoment: [ Abs: 0.26093  Tot: +0.24000 ]
SCF: Cycle: 19   F: -54.031598958156685   dF: -2.719e-07   |Residual|: 2.057e-04   |deigs|: 4.514e-04  t[s]:     91.37
	FillingsUpdate:  mu: -0.079942443  nElectrons: 33.000000  magneticMoment: [ Abs: 0.26084  Tot: +0.24000 ]
SCF: Cycle: 20   F: -54.031599138802747   dF: -1.806e-07   |Residual|: 1.152e-04   |deigs|: 4.620e-04  t[s]:     94.94
	FillingsUpdate:  mu: -0.079839246  nElectrons: 33.000000  magneticMoment: [ Abs: 0.26094  Tot: +0.24000 ]
SCF: Cycle: 21   F: -54.031599197570074   dF: -5.877e-08   |Residual|: 5.921e-05   |deigs|: 4.031e-04  t[s]:     98.49
	FillingsUpdate:  mu: -0.079815099  nElectrons: 33.000000  magneticMoment: [ Abs: 0.26100  Tot: +0.24000 ]
SCF: Cycle: 22   F: -54.031599226728147   dF: -2.916e-08   |Residual|: 3.237e-05   |deigs|: 3.986e-04  t[s]:    102.04
	FillingsUpdate:  mu: -0.079809848  nElectrons: 33.000000  magneticMoment: [ Abs: 0.26103  Tot: +0.24000 ]
SCF: Cycle: 23   F: -54.031599240010564   dF: -1.328e-08   |Residual|: 2.101e-05   |deigs|: 2.785e-04  t[s]:    105.59
	FillingsUpdate:  mu: -0.079815001  nElectrons: 33.000000  magneticMoment: [ Abs: 0.26105  Tot: +0.24000 ]
SCF: Cycle: 24   F: -54.031599253225835   dF: -1.322e-08   |Residual|: 1.286e-05   |deigs|: 4.744e-04  t[s]:    109.12
	FillingsUpdate:  mu: -0.079826247  nElectrons: 33.000000  magneticMoment: [ Abs: 0.26105  Tot: +0.24000 ]
SCF: Cycle: 25   F: -54.031599261557076   dF: -8.331e-09   |Residual|: 1.003e-05   |deigs|: 2.991e-04  t[s]:    112.66
	FillingsUpdate:  mu: -0.079851909  nElectrons: 33.000000  magneticMoment: [ Abs: 0.26107  Tot: +0.24000 ]
SCF: Cycle: 26   F: -54.031599264478736   dF: -2.922e-09   |Residual|: 8.365e-06   |deigs|: 4.058e-04  t[s]:    116.19
SCF: Converged (|Delta E|<1.000000e-08 for 2 iters).


# Ionic positions in lattice coordinates:
ion C  -0.000000000000000   0.000000000000000   0.000000000000000 1
ion N   0.164313074529992   0.328626149059985   0.000000000000000 1
ion N   0.164313074529992   0.835686925470008   0.000000000000000 1
ion N   0.666666666666667   0.333333333333333   0.000000000000000 1
ion N   0.671373850940015   0.835686925470008   0.000000000000000 1
ion B  -0.001576660817548   0.499211669591226   0.000000000000000 1
ion B   0.500788330408774   0.001576660817548   0.000000000000000 1
ion B   0.500788330408774   0.499211669591226   0.000000000000000 1

# Forces in Lattice coordinates:
force C   0.000000000000000   0.000000000000000   0.000000000000000 1
force N   0.000000000000000  -0.039299493058036   0.000000000000000 1
force N  -0.039299493058036   0.039299493058034   0.000000000000000 1
force N   0.000000000000000   0.000000000000000   0.000000000000000 1
force N   0.039299493058038   0.000000000000000   0.000000000000000 1
force B   0.007606188522706  -0.000000000000000   0.000000000000000 1
force B   0.000000000000000  -0.007606188522706  -0.000000000000000 1
force B  -0.007606188522706   0.007606188522706   0.000000000000000 1

# Energy components:
   Eewald =      -85.5148968124686775
       EH =      -43.5336140312232729
     Eloc =       54.1406881596211775
      Enl =       -2.2695800352202928
   Epulay =       -0.0000008322926719
      Exc =      -15.3352386733727535
       KE =       38.4810437512896399
-------------------------------------
     Etot =      -54.0315984736668540
       TS =        0.0000007908118824
-------------------------------------
        F =      -54.0315992644787357

IonicMinimize: Iter:   0  F: -54.031599264478736  |grad|_K:  1.747e-03  t[s]:    116.52
IonicMinimize: None of the convergence criteria satisfied after 0 iterations.

#--- Lowdin population analysis ---
# oxidation-state C +0.256
# magnetic-moments C +0.135
# oxidation-state N -0.254 -0.254 -0.381 -0.254
# magnetic-moments N +0.002 +0.002 +0.009 +0.002
# oxidation-state B +0.403 +0.403 +0.403
# magnetic-moments B +0.029 +0.029 +0.029


Dumping 'BN22BC-0.24.fillings' ... done
Dumping 'BN22BC-0.24.wfns' ... done
Dumping 'BN22BC-0.24.n_up' ... done
Dumping 'BN22BC-0.24.n_dn' ... done
Dumping 'BN22BC-0.24.eigenvals' ... done
End date and time: Sun Jan 30 23:11:14 2022  (Duration: 0-0:01:57.53)
Done!
