magnetization is -0.1
--------------------------------------------------------------------------
The library attempted to open the following supporting CUDA libraries,
but each of them failed.  CUDA-aware support is disabled.
libcuda.so.1: cannot open shared object file: No such file or directory
libcuda.dylib: cannot open shared object file: No such file or directory
/usr/lib64/libcuda.so.1: cannot open shared object file: No such file or directory
/usr/lib64/libcuda.dylib: cannot open shared object file: No such file or directory
If you are not interested in CUDA-aware support, then run with
--mca opal_warn_on_missing_libcuda 0 to suppress this message.  If you are interested
in CUDA-aware support, then try setting LD_LIBRARY_PATH to the location
of libcuda.so.1 to get passed this issue.
--------------------------------------------------------------------------
--------------------------------------------------------------------------
No OpenFabrics connection schemes reported that they were able to be
used on a specific port.  As such, the openib BTL (OpenFabrics
support) will be disabled for this port.

  Local host:           d-17-11-3
  Local device:         mlx5_1
  Local port:           1
  CPCs attempted:       rdmacm, udcm
--------------------------------------------------------------------------

*************** JDFTx 1.6.0 (git hash 42ebbcc2) ***************

Start date and time: Sun Jan 30 23:07:14 2022
Executable jdftx with command-line: -i BN22BC.in
Running on hosts (process indices):  d-17-11-3 (0-37)
Divided in process groups (process indices):  0 (0)  1 (1)  2 (2)  3 (3)  4 (4)  5 (5)  6 (6)  7 (7)  8 (8)  9 (9)  10 (10)  11 (11)  12 (12)  13 (13)  14 (14)  15 (15)  16 (16)  17 (17)  18 (18)  19 (19)  20 (20)  21 (21)  22 (22)  23 (23)  24 (24)  25 (25)  26 (26)  27 (27)  28 (28)  29 (29)  30 (30)  31 (31)  32 (32)  33 (33)  34 (34)  35 (35)  36 (36)  37 (37)
Resource initialization completed at t[s]:      0.00
Run totals: 38 processes, 48 threads, 0 GPUs


Input parsed successfully to the following command list (including defaults):

basis kpoint-dependent
coords-type Lattice
core-overlap-check vector
coulomb-interaction Slab 001
davidson-band-ratio 1.1
dump End State ElecDensity BandEigs
dump-name BN22BC--0.1.$VAR
elec-cutoff 20
elec-eigen-algo Davidson
elec-ex-corr gga-PBE
elec-initial-magnetization -0.100000 yes
elec-smearing Fermi 1e-05
electronic-minimize  \
	dirUpdateScheme      FletcherReeves \
	linminMethod         DirUpdateRecommended \
	nIterations          100 \
	history              15 \
	knormThreshold       0 \
	energyDiffThreshold  1e-08 \
	nEnergyDiff          2 \
	alphaTstart          1 \
	alphaTmin            1e-10 \
	updateTestStepSize   yes \
	alphaTreduceFactor   0.1 \
	alphaTincreaseFactor 3 \
	nAlphaAdjustMax      3 \
	wolfeEnergy          0.0001 \
	wolfeGradient        0.9 \
	fdTest               no
electronic-scf  \
	nIterations	1000 \
	energyDiffThreshold	1e-08 \
	residualThreshold	1e-07 \
	mixFraction	0.5 \
	qMetric	0.8 \
	history	10 \
	nEigSteps	2 \
	eigDiffThreshold	1e-08 \
	mixedVariable	Density \
	qKerker	0.8 \
	qKappa	-1 \
	verbose	no \
	mixFractionMag	1.5
exchange-regularization WignerSeitzTruncated
fluid None
fluid-ex-corr (null) lda-PZ
fluid-gummel-loop 10 1.000000e-05
fluid-minimize  \
	dirUpdateScheme      PolakRibiere \
	linminMethod         DirUpdateRecommended \
	nIterations          100 \
	history              15 \
	knormThreshold       0 \
	energyDiffThreshold  0 \
	nEnergyDiff          2 \
	alphaTstart          1 \
	alphaTmin            1e-10 \
	updateTestStepSize   yes \
	alphaTreduceFactor   0.1 \
	alphaTincreaseFactor 3 \
	nAlphaAdjustMax      3 \
	wolfeEnergy          0.0001 \
	wolfeGradient        0.9 \
	fdTest               no
fluid-solvent H2O 55.338 ScalarEOS \
	epsBulk 78.4 \
	pMol 0.92466 \
	epsInf 1.77 \
	Pvap 1.06736e-10 \
	sigmaBulk 4.62e-05 \
	Rvdw 2.61727 \
	Res 1.42 \
	tauNuc 343133 \
	poleEl 15 7 1
forces-output-coords Positions
ion C   0.000000000000000  -0.000000000000000   0.000000000000000 1
ion N   0.164313074529992   0.328626149059985   0.000000000000000 1
ion N   0.164313074529992   0.835686925470008   0.000000000000000 1
ion N   0.666666666666667   0.333333333333333   0.000000000000000 1
ion N   0.671373850940015   0.835686925470008   0.000000000000000 1
ion B  -0.001576660817548   0.499211669591226   0.000000000000000 1
ion B   0.500788330408774   0.001576660817548   0.000000000000000 1
ion B   0.500788330408774   0.499211669591226   0.000000000000000 1
ion-species SG15/$ID_ONCV_PBE.upf
ion-width 0
ionic-minimize  \
	dirUpdateScheme      L-BFGS \
	linminMethod         DirUpdateRecommended \
	nIterations          0 \
	history              15 \
	knormThreshold       0.0001 \
	energyDiffThreshold  1e-06 \
	nEnergyDiff          2 \
	alphaTstart          1 \
	alphaTmin            1e-10 \
	updateTestStepSize   yes \
	alphaTreduceFactor   0.1 \
	alphaTincreaseFactor 3 \
	nAlphaAdjustMax      3 \
	wolfeEnergy          0.0001 \
	wolfeGradient        0.9 \
	fdTest               no
kpoint   0.000000000000   0.000000000000   0.000000000000  1.00000000000000
kpoint-folding 12 12 1 
latt-move-scale 1 1 1
latt-scale 1 1 1 
lattice  \
	   9.356640512437433   -4.678320256218713    0.000000000000000  \
	  -0.000000000000000    8.103088377849462    0.000000000000000  \
	   0.000000000000000    0.000000000000000   40.000000000000000 
lattice-minimize  \
	dirUpdateScheme      L-BFGS \
	linminMethod         DirUpdateRecommended \
	nIterations          0 \
	history              15 \
	knormThreshold       0 \
	energyDiffThreshold  1e-06 \
	nEnergyDiff          2 \
	alphaTstart          1 \
	alphaTmin            1e-10 \
	updateTestStepSize   yes \
	alphaTreduceFactor   0.1 \
	alphaTincreaseFactor 3 \
	nAlphaAdjustMax      3 \
	wolfeEnergy          0.0001 \
	wolfeGradient        0.9 \
	fdTest               no
lcao-params -1 1e-06 1e-05
pcm-variant GLSSA13
spintype z-spin
subspace-rotation-factor 1 yes
symmetries automatic
symmetry-threshold 0.0001



---------- Setting up symmetries ----------

Found 24 point-group symmetries of the bravais lattice
Found 12 space-group symmetries with basis
Applied RMS atom displacement 3.80214e-15 bohrs to make symmetries exact.

---------- Initializing the Grid ----------
R = 
[      9.35664     -4.67832            0  ]
[            0      8.10309            0  ]
[            0            0           40  ]
unit cell volume = 3032.71
G =
[   0.671522   0.387703         -0  ]
[          0   0.775406         -0  ]
[         -0         -0    0.15708  ]
Minimum fftbox size, Smin = [  40  40  164  ]
Chosen fftbox size, S = [  40  40  168  ]

---------- Exchange Correlation functional ----------
Initalized PBE GGA exchange.
Initalized PBE GGA correlation.

---------- Setting up pseudopotentials ----------
Width of ionic core gaussian charges (only for fluid interactions / plotting) set to 0

Reading pseudopotential file '/home/gridsan/aligho/DFT/build-Nov24/pseudopotentials/SG15/C_ONCV_PBE.upf':
  'C' pseudopotential, 'PBE' functional
  Generated using ONCVPSP code by D. R. Hamann
  Author: Martin Schlipf and Francois Gygi  Date: 150915.
  4 valence electrons, 2 orbitals, 4 projectors, 1248 radial grid points, with lMax = 1
  Transforming local potential to a uniform radial grid of dG=0.02 with 1502 points.
  Transforming nonlocal projectors to a uniform radial grid of dG=0.02 with 432 points.
    2S    l: 0   occupation:  2.0   eigenvalue: -0.505335
    2P    l: 1   occupation:  2.0   eigenvalue: -0.194238
  Transforming atomic orbitals to a uniform radial grid of dG=0.02 with 432 points.
  Core radius for overlap checks: 1.23 bohrs.
  Reading pulay file /home/gridsan/aligho/DFT/build-Nov24/pseudopotentials/SG15/C_ONCV_PBE.pulay ... using dE_dnG = -9.239532e-03 computed for Ecut = 20.

Reading pseudopotential file '/home/gridsan/aligho/DFT/build-Nov24/pseudopotentials/SG15/N_ONCV_PBE.upf':
  'N' pseudopotential, 'PBE' functional
  Generated using ONCVPSP code by D. R. Hamann
  Author: Martin Schlipf and Francois Gygi  Date: 150915.
  5 valence electrons, 2 orbitals, 4 projectors, 1058 radial grid points, with lMax = 1
  Transforming local potential to a uniform radial grid of dG=0.02 with 1502 points.
  Transforming nonlocal projectors to a uniform radial grid of dG=0.02 with 432 points.
    2S    l: 0   occupation:  2.0   eigenvalue: -0.682907
    2P    l: 1   occupation:  3.0   eigenvalue: -0.260548
  Transforming atomic orbitals to a uniform radial grid of dG=0.02 with 432 points.
  Core radius for overlap checks: 1.35 bohrs.
  Reading pulay file /home/gridsan/aligho/DFT/build-Nov24/pseudopotentials/SG15/N_ONCV_PBE.pulay ... using dE_dnG = -2.956256e-02 computed for Ecut = 20.

Reading pseudopotential file '/home/gridsan/aligho/DFT/build-Nov24/pseudopotentials/SG15/B_ONCV_PBE.upf':
  'B' pseudopotential, 'PBE' functional
  Generated using ONCVPSP code by D. R. Hamann
  Author: Martin Schlipf and Francois Gygi  Date: 150915.
  3 valence electrons, 2 orbitals, 4 projectors, 1534 radial grid points, with lMax = 1
  Transforming local potential to a uniform radial grid of dG=0.02 with 1502 points.
  Transforming nonlocal projectors to a uniform radial grid of dG=0.02 with 432 points.
    2S    l: 0   occupation:  2.0   eigenvalue: -0.347027
    2P    l: 1   occupation:  1.0   eigenvalue: -0.132548
  Transforming atomic orbitals to a uniform radial grid of dG=0.02 with 432 points.
  Core radius for overlap checks: 1.60 bohrs.
  Reading pulay file /home/gridsan/aligho/DFT/build-Nov24/pseudopotentials/SG15/B_ONCV_PBE.pulay ... using dE_dnG = -3.748568e-04 computed for Ecut = 20.

Initialized 3 species with 8 total atoms.

Folded 1 k-points by 12x12x1 to 144 k-points.

---------- Setting up k-points, bands, fillings ----------
Adding inversion symmetry to k-mesh for non-inversion-symmetric unit cell.
Reduced to 19 k-points under symmetry. 
Computing the number of bands and number of electrons
Calculating initial fillings.
nElectrons:  33.000000   nBands: 32   nStates: 38

----- Setting up reduced wavefunction bases (one per k-point) -----
average nbasis = 12955.938 , ideal nbasis = 12955.957

---------- Setting up coulomb interaction ----------
Initialized slab truncation along lattice direction 001

---------- Setting up 2D ewald sum ----------
Optimum gaussian width for ewald sums = 5.194429 bohr.
Real space sums over 289 unit cells with max indices [  8  8  0  ]
Reciprocal space sums over 81 terms with max indices [  4  4  0  ]

---------- Allocating electronic variables ----------
Initializing wave functions:  linear combination of atomic orbitals
C pseudo-atom occupations:   s ( 2 )  p ( 2 )
N pseudo-atom occupations:   s ( 2 )  p ( 3 )
B pseudo-atom occupations:   s ( 2 )  p ( 1 )
[d-17-11-3:77259] 37 more processes have sent help message help-mpi-common-cuda.txt / dlopen failed
[d-17-11-3:77259] Set MCA parameter "orte_base_help_aggregate" to 0 to see all help / error messages
[d-17-11-3:77259] 37 more processes have sent help message help-mpi-btl-openib-cpc-base.txt / no cpcs for port
	FillingsUpdate:  mu: -0.182222173  nElectrons: 33.000000  magneticMoment: [ Abs: 0.10266  Tot: -0.10000 ]
LCAOMinimize: Iter:   0  F: -53.3328591609272067  |grad|_K:  5.545e-03  alpha:  1.000e+00
	FillingsUpdate:  mu: -0.188523267  nElectrons: 33.000000  magneticMoment: [ Abs: 0.10298  Tot: -0.10000 ]
LCAOMinimize: Iter:   1  F: -53.5590178650805697  |grad|_K:  1.033e-03  alpha:  4.233e-01  linmin:  3.597e-01  cgtest: -8.173e-01  t[s]:      7.11
	FillingsUpdate:  mu: -0.182767599  nElectrons: 33.000000  magneticMoment: [ Abs: 0.10319  Tot: -0.10000 ]
LCAOMinimize: Iter:   2  F: -53.5606251244934555  |grad|_K:  8.802e-04  alpha:  2.273e-01  linmin: -9.702e-04  cgtest:  8.948e-01  t[s]:      9.17
LCAOMinimize: Encountered beta<0, resetting CG.
	FillingsUpdate:  mu: -0.182023070  nElectrons: 33.000000  magneticMoment: [ Abs: 0.10350  Tot: -0.10000 ]
LCAOMinimize: Iter:   3  F: -53.5665781631647562  |grad|_K:  1.030e-04  alpha:  3.769e-01  linmin:  1.030e-01  cgtest: -2.728e-01  t[s]:     11.24
	FillingsUpdate:  mu: -0.183178825  nElectrons: 33.000000  magneticMoment: [ Abs: 0.10380  Tot: -0.10000 ]
LCAOMinimize: Iter:   4  F: -53.5666499508757141  |grad|_K:  3.125e-05  alpha:  3.678e-01  linmin:  1.819e-03  cgtest:  3.817e-01  t[s]:     13.28
LCAOMinimize: Encountered beta<0, resetting CG.
	FillingsUpdate:  mu: -0.183303348  nElectrons: 33.000000  magneticMoment: [ Abs: 0.10401  Tot: -0.10000 ]
LCAOMinimize: Iter:   5  F: -53.5666572741006206  |grad|_K:  4.822e-06  alpha:  3.624e-01  linmin: -4.703e-04  cgtest:  5.614e-07  t[s]:     15.37
	FillingsUpdate:  mu: -0.183239442  nElectrons: 33.000000  magneticMoment: [ Abs: 0.10427  Tot: -0.10000 ]
LCAOMinimize: Iter:   6  F: -53.5666575461225563  |grad|_K:  2.070e-06  alpha:  5.652e-01  linmin: -3.098e-04  cgtest:  9.918e-04  t[s]:     17.42
	FillingsUpdate:  mu: -0.183240490  nElectrons: 33.000000  magneticMoment: [ Abs: 0.10451  Tot: -0.10000 ]
LCAOMinimize: Iter:   7  F: -53.5666576032007100  |grad|_K:  5.133e-07  alpha:  6.435e-01  linmin:  2.815e-04  cgtest: -2.547e-03  t[s]:     19.48
LCAOMinimize: Converged (|Delta F|<1.000000e-06 for 2 iters).


---- Citations for features of the code used in this run ----

   Software package:
      R. Sundararaman, K. Letchworth-Weaver, K.A. Schwarz, D. Gunceler, Y. Ozhabes and T.A. Arias, 'JDFTx: software for joint density-functional theory', SoftwareX 6, 278 (2017)

   gga-PBE exchange-correlation functional:
      J.P. Perdew, K. Burke and M. Ernzerhof, Phys. Rev. Lett. 77, 3865 (1996)

   Pseudopotentials:
      M Schlipf and F Gygi, Comput. Phys. Commun. 196, 36 (2015)

   Truncated Coulomb potentials:
      R. Sundararaman and T.A. Arias, Phys. Rev. B 87, 165122 (2013)

This list may not be complete. Please suggest additional citations or
report any other bugs at https://github.com/shankar1729/jdftx/issues

Initialization completed successfully at t[s]:     19.70


-------- Electronic minimization -----------
Will mix electronic density at each iteration.
	FillingsUpdate:  mu: -0.183240490  nElectrons: 33.000000  magneticMoment: [ Abs: 0.10451  Tot: -0.10000 ]
	FillingsUpdate:  mu: -0.197903337  nElectrons: 33.000000  magneticMoment: [ Abs: 0.10451  Tot: -0.10000 ]
SCF: Cycle:  0   F: -53.996904607626654   dF: -4.302e-01   |Residual|: 2.308e-01   |deigs|: 1.091e-01  t[s]:     24.49
	FillingsUpdate:  mu: -0.175437341  nElectrons: 33.000000  magneticMoment: [ Abs: 0.10863  Tot: -0.10000 ]
SCF: Cycle:  1   F: -54.017312640610939   dF: -2.041e-02   |Residual|: 1.288e-01   |deigs|: 2.707e-02  t[s]:     27.99
	FillingsUpdate:  mu: -0.144637026  nElectrons: 33.000000  magneticMoment: [ Abs: 0.10990  Tot: -0.10000 ]
SCF: Cycle:  2   F: -54.029986861703932   dF: -1.267e-02   |Residual|: 2.795e-02   |deigs|: 3.107e-02  t[s]:     31.53
	FillingsUpdate:  mu: -0.141077157  nElectrons: 33.000000  magneticMoment: [ Abs: 0.11123  Tot: -0.10000 ]
SCF: Cycle:  3   F: -54.030361243700426   dF: -3.744e-04   |Residual|: 1.597e-02   |deigs|: 8.443e-03  t[s]:     35.15
	FillingsUpdate:  mu: -0.128521001  nElectrons: 33.000000  magneticMoment: [ Abs: 0.11015  Tot: -0.10000 ]
SCF: Cycle:  4   F: -54.031039110741119   dF: -6.779e-04   |Residual|: 8.302e-03   |deigs|: 1.162e-02  t[s]:     38.82
	FillingsUpdate:  mu: -0.123434734  nElectrons: 33.000000  magneticMoment: [ Abs: 0.11316  Tot: -0.10000 ]
SCF: Cycle:  5   F: -54.031193022278636   dF: -1.539e-04   |Residual|: 5.611e-03   |deigs|: 4.945e-03  t[s]:     42.44
	FillingsUpdate:  mu: -0.116709366  nElectrons: 33.000000  magneticMoment: [ Abs: 0.10932  Tot: -0.10000 ]
SCF: Cycle:  6   F: -54.031220148553487   dF: -2.713e-05   |Residual|: 3.862e-03   |deigs|: 6.940e-03  t[s]:     46.08
	FillingsUpdate:  mu: -0.112327103  nElectrons: 33.000000  magneticMoment: [ Abs: 0.11156  Tot: -0.10000 ]
SCF: Cycle:  7   F: -54.031227495063000   dF: -7.347e-06   |Residual|: 3.111e-03   |deigs|: 4.898e-03  t[s]:     49.75
	FillingsUpdate:  mu: -0.108220589  nElectrons: 33.000000  magneticMoment: [ Abs: 0.11024  Tot: -0.10000 ]
SCF: Cycle:  8   F: -54.031254395538440   dF: -2.690e-05   |Residual|: 2.567e-03   |deigs|: 4.259e-03  t[s]:     53.44
	FillingsUpdate:  mu: -0.106053711  nElectrons: 33.000000  magneticMoment: [ Abs: 0.11003  Tot: -0.10000 ]
SCF: Cycle:  9   F: -54.031270186376048   dF: -1.579e-05   |Residual|: 2.003e-03   |deigs|: 2.408e-03  t[s]:     57.16
	FillingsUpdate:  mu: -0.102447667  nElectrons: 33.000000  magneticMoment: [ Abs: 0.11127  Tot: -0.10000 ]
SCF: Cycle: 10   F: -54.031286048720872   dF: -1.586e-05   |Residual|: 1.752e-03   |deigs|: 3.531e-03  t[s]:     60.92
	FillingsUpdate:  mu: -0.099999661  nElectrons: 33.000000  magneticMoment: [ Abs: 0.10958  Tot: -0.10000 ]
SCF: Cycle: 11   F: -54.031291855629959   dF: -5.807e-06   |Residual|: 1.404e-03   |deigs|: 2.270e-03  t[s]:     64.68
	FillingsUpdate:  mu: -0.097598275  nElectrons: 33.000000  magneticMoment: [ Abs: 0.11056  Tot: -0.10000 ]
SCF: Cycle: 12   F: -54.031293738558155   dF: -1.883e-06   |Residual|: 1.253e-03   |deigs|: 2.281e-03  t[s]:     68.42
	FillingsUpdate:  mu: -0.093492890  nElectrons: 33.000000  magneticMoment: [ Abs: 0.11043  Tot: -0.10000 ]
SCF: Cycle: 13   F: -54.031294654235587   dF: -9.157e-07   |Residual|: 1.130e-03   |deigs|: 3.875e-03  t[s]:     72.19
	FillingsUpdate:  mu: -0.090008250  nElectrons: 33.000000  magneticMoment: [ Abs: 0.11027  Tot: -0.10000 ]
SCF: Cycle: 14   F: -54.031295229363280   dF: -5.751e-07   |Residual|: 1.067e-03   |deigs|: 3.110e-03  t[s]:     75.96
	FillingsUpdate:  mu: -0.086008318  nElectrons: 33.000000  magneticMoment: [ Abs: 0.11067  Tot: -0.10000 ]
SCF: Cycle: 15   F: -54.031295553225881   dF: -3.239e-07   |Residual|: 9.473e-04   |deigs|: 3.795e-03  t[s]:     79.69
	FillingsUpdate:  mu: -0.082397707  nElectrons: 33.000000  magneticMoment: [ Abs: 0.10975  Tot: -0.10000 ]
SCF: Cycle: 16   F: -54.031297001922184   dF: -1.449e-06   |Residual|: 7.017e-04   |deigs|: 3.372e-03  t[s]:     83.45
	FillingsUpdate:  mu: -0.080372311  nElectrons: 33.000000  magneticMoment: [ Abs: 0.11003  Tot: -0.10000 ]
SCF: Cycle: 17   F: -54.031299275058387   dF: -2.273e-06   |Residual|: 4.941e-04   |deigs|: 1.779e-03  t[s]:     87.17
	FillingsUpdate:  mu: -0.079373789  nElectrons: 33.000000  magneticMoment: [ Abs: 0.10991  Tot: -0.10000 ]
SCF: Cycle: 18   F: -54.031300665252225   dF: -1.390e-06   |Residual|: 2.612e-04   |deigs|: 1.069e-03  t[s]:     90.89
	FillingsUpdate:  mu: -0.079103772  nElectrons: 33.000000  magneticMoment: [ Abs: 0.10973  Tot: -0.10000 ]
SCF: Cycle: 19   F: -54.031300959609119   dF: -2.944e-07   |Residual|: 1.586e-04   |deigs|: 3.975e-04  t[s]:     94.63
	FillingsUpdate:  mu: -0.078970646  nElectrons: 33.000000  magneticMoment: [ Abs: 0.10972  Tot: -0.10000 ]
SCF: Cycle: 20   F: -54.031301033995170   dF: -7.439e-08   |Residual|: 8.649e-05   |deigs|: 3.497e-04  t[s]:     98.36
	FillingsUpdate:  mu: -0.078910878  nElectrons: 33.000000  magneticMoment: [ Abs: 0.10964  Tot: -0.10000 ]
SCF: Cycle: 21   F: -54.031301058811088   dF: -2.482e-08   |Residual|: 3.916e-05   |deigs|: 3.560e-04  t[s]:    102.10
	FillingsUpdate:  mu: -0.078889264  nElectrons: 33.000000  magneticMoment: [ Abs: 0.10962  Tot: -0.10000 ]
SCF: Cycle: 22   F: -54.031301066275006   dF: -7.464e-09   |Residual|: 1.886e-05   |deigs|: 2.571e-04  t[s]:    105.83
	FillingsUpdate:  mu: -0.078880738  nElectrons: 33.000000  magneticMoment: [ Abs: 0.10963  Tot: -0.10000 ]
SCF: Cycle: 23   F: -54.031301068773267   dF: -2.498e-09   |Residual|: 1.082e-05   |deigs|: 3.030e-04  t[s]:    109.57
SCF: Converged (|Delta E|<1.000000e-08 for 2 iters).


# Ionic positions in lattice coordinates:
ion C  -0.000000000000000   0.000000000000000   0.000000000000000 1
ion N   0.164313074529992   0.328626149059985   0.000000000000000 1
ion N   0.164313074529992   0.835686925470008   0.000000000000000 1
ion N   0.666666666666667   0.333333333333333   0.000000000000000 1
ion N   0.671373850940015   0.835686925470008   0.000000000000000 1
ion B  -0.001576660817548   0.499211669591226   0.000000000000000 1
ion B   0.500788330408774   0.001576660817548   0.000000000000000 1
ion B   0.500788330408774   0.499211669591226   0.000000000000000 1

# Forces in Lattice coordinates:
force C  -0.000000000000000   0.000000000000000   0.000000000000000 1
force N   0.000000000000000  -0.040833774495228   0.000000000000000 1
force N  -0.040833774495229   0.040833774495226   0.000000000000000 1
force N   0.000000000000000   0.000000000000000   0.000000000000000 1
force N   0.040833774495229  -0.000000000000000   0.000000000000000 1
force B   0.008392738779860   0.000000000000000  -0.000000000000000 1
force B  -0.000000000000000  -0.008392738779860  -0.000000000000000 1
force B  -0.008392738779860   0.008392738779860   0.000000000000000 1

# Energy components:
   Eewald =      -85.5148968124686775
       EH =      -43.5363539954840704
     Eloc =       54.1444156451018088
      Enl =       -2.2689846180630333
   Epulay =       -0.0000008322926719
      Exc =      -15.3342748905356476
       KE =       38.4787953267654643
-------------------------------------
     Etot =      -54.0313001769768277
       TS =        0.0000008917964397
-------------------------------------
        F =      -54.0313010687732671

IonicMinimize: Iter:   0  F: -54.031301068773267  |grad|_K:  1.819e-03  t[s]:    109.91
IonicMinimize: None of the convergence criteria satisfied after 0 iterations.

#--- Lowdin population analysis ---
# oxidation-state C +0.255
# magnetic-moments C -0.054
# oxidation-state N -0.254 -0.254 -0.381 -0.254
# magnetic-moments N +0.000 +0.000 -0.002 +0.000
# oxidation-state B +0.403 +0.403 +0.403
# magnetic-moments B -0.014 -0.014 -0.014


Dumping 'BN22BC--0.1.fillings' ... done
Dumping 'BN22BC--0.1.wfns' ... done
Dumping 'BN22BC--0.1.n_up' ... done
Dumping 'BN22BC--0.1.n_dn' ... done
Dumping 'BN22BC--0.1.eigenvals' ... done
End date and time: Sun Jan 30 23:09:14 2022  (Duration: 0-0:01:59.75)
Done!
