CRYSTAL
PRIMVEC
  5.003355   0.000000   0.000000
 -2.501680   4.333035   0.000000
  0.000000   0.000000  21.167088
PRIMCOORD
8 1
 6   0.000000   0.000000   0.000000
 7  -0.000001   1.423949   0.000000
 7  -1.268505   3.621061   0.000000
 7   2.501676   1.444345   0.000000
 7   1.268500   3.621061   0.000000
 5  -1.256756   2.163102   0.000000
 5   2.501677   0.006832   0.000000
 5   1.256754   2.163102   0.000000
