magnetization is -0.94
--------------------------------------------------------------------------
The library attempted to open the following supporting CUDA libraries,
but each of them failed.  CUDA-aware support is disabled.
libcuda.so.1: cannot open shared object file: No such file or directory
libcuda.dylib: cannot open shared object file: No such file or directory
/usr/lib64/libcuda.so.1: cannot open shared object file: No such file or directory
/usr/lib64/libcuda.dylib: cannot open shared object file: No such file or directory
If you are not interested in CUDA-aware support, then run with
--mca opal_warn_on_missing_libcuda 0 to suppress this message.  If you are interested
in CUDA-aware support, then try setting LD_LIBRARY_PATH to the location
of libcuda.so.1 to get passed this issue.
--------------------------------------------------------------------------
--------------------------------------------------------------------------
No OpenFabrics connection schemes reported that they were able to be
used on a specific port.  As such, the openib BTL (OpenFabrics
support) will be disabled for this port.

  Local host:           d-16-13-2
  Local device:         mlx5_1
  Local port:           1
  CPCs attempted:       rdmacm, udcm
--------------------------------------------------------------------------

*************** JDFTx 1.6.0 (git hash 42ebbcc2) ***************

Start date and time: Sun Feb  6 19:15:29 2022
Executable jdftx with command-line: -i BN33BC.in
Running on hosts (process indices):  d-16-13-2 (0-37)
Divided in process groups (process indices):  0 (0)  1 (1)  2 (2)  3 (3)  4 (4)  5 (5)  6 (6)  7 (7)  8 (8)  9 (9)  10 (10)  11 (11)  12 (12)  13 (13)  14 (14)  15 (15)  16 (16)  17 (17)  18 (18)  19 (19)  20 (20)  21 (21)  22 (22)  23 (23)  24 (24)  25 (25)  26 (26)  27 (27)  28 (28)  29 (29)  30 (30)  31 (31)  32 (32)  33 (33)  34 (34)  35 (35)  36 (36)  37 (37)
Resource initialization completed at t[s]:      0.00
Run totals: 38 processes, 48 threads, 0 GPUs


Input parsed successfully to the following command list (including defaults):

basis kpoint-dependent
coords-type Lattice
core-overlap-check vector
coulomb-interaction Slab 001
davidson-band-ratio 1.1
dump End None
dump-name $INPUT.$VAR
elec-cutoff 20
elec-eigen-algo Davidson
elec-ex-corr gga-PBE
elec-initial-magnetization -0.940000 yes
elec-smearing Fermi 1e-05
electronic-minimize  \
	dirUpdateScheme      FletcherReeves \
	linminMethod         DirUpdateRecommended \
	nIterations          100 \
	history              15 \
	knormThreshold       0 \
	energyDiffThreshold  1e-08 \
	nEnergyDiff          2 \
	alphaTstart          1 \
	alphaTmin            1e-10 \
	updateTestStepSize   yes \
	alphaTreduceFactor   0.1 \
	alphaTincreaseFactor 3 \
	nAlphaAdjustMax      3 \
	wolfeEnergy          0.0001 \
	wolfeGradient        0.9 \
	fdTest               no
electronic-scf  \
	nIterations	1000 \
	energyDiffThreshold	1e-08 \
	residualThreshold	1e-07 \
	mixFraction	0.5 \
	qMetric	0.8 \
	history	10 \
	nEigSteps	2 \
	eigDiffThreshold	1e-08 \
	mixedVariable	Density \
	qKerker	0.8 \
	qKappa	-1 \
	verbose	no \
	mixFractionMag	1.5
exchange-regularization WignerSeitzTruncated
fluid None
fluid-ex-corr (null) lda-PZ
fluid-gummel-loop 10 1.000000e-05
fluid-minimize  \
	dirUpdateScheme      PolakRibiere \
	linminMethod         DirUpdateRecommended \
	nIterations          100 \
	history              15 \
	knormThreshold       0 \
	energyDiffThreshold  0 \
	nEnergyDiff          2 \
	alphaTstart          1 \
	alphaTmin            1e-10 \
	updateTestStepSize   yes \
	alphaTreduceFactor   0.1 \
	alphaTincreaseFactor 3 \
	nAlphaAdjustMax      3 \
	wolfeEnergy          0.0001 \
	wolfeGradient        0.9 \
	fdTest               no
fluid-solvent H2O 55.338 ScalarEOS \
	epsBulk 78.4 \
	pMol 0.92466 \
	epsInf 1.77 \
	Pvap 1.06736e-10 \
	sigmaBulk 4.62e-05 \
	Rvdw 2.61727 \
	Res 1.42 \
	tauNuc 343133 \
	poleEl 15 7 1
forces-output-coords Positions
ion C   0.000000000000000  -0.000000000000000   0.000000000000000 1
ion N   0.108900118656067   0.217800237312134   0.000000000000000 1
ion N   0.111440932313158   0.555720466156579   0.000000000000000 1
ion N   0.108900118656067   0.891099881343933   0.000000000000000 1
ion N   0.444600551142632   0.222300275571316   0.000000000000000 1
ion N   0.444279533843421   0.555720466156579   0.000000000000000 1
ion N   0.444279533843421   0.888559067686842   0.000000000000000 1
ion N   0.777699724428684   0.222300275571316   0.000000000000000 1
ion N   0.777699724428684   0.555399448857368   0.000000000000000 1
ion N   0.782199762687866   0.891099881343933   0.000000000000000 1
ion B  -0.000409163333578   0.332352225367090  -0.000000000000000 1
ion B  -0.000409163333578   0.667238611299332  -0.000000000000000 1
ion B   0.332761388700668   0.000409163333578   0.000000000000000 1
ion B   0.332761388700668   0.332352225367090  -0.000000000000000 1
ion B   0.333333333333333   0.666666666666667   0.000000000000000 1
ion B   0.667647774632910   0.000409163333578   0.000000000000000 1
ion B   0.666666666666667   0.333333333333333   0.000000000000000 1
ion B   0.667647774632910   0.667238611299332   0.000000000000000 1
ion-species SG15/$ID_ONCV_PBE.upf
ion-width 0
ionic-minimize  \
	dirUpdateScheme      L-BFGS \
	linminMethod         DirUpdateRecommended \
	nIterations          0 \
	history              15 \
	knormThreshold       0.0001 \
	energyDiffThreshold  1e-06 \
	nEnergyDiff          2 \
	alphaTstart          1 \
	alphaTmin            1e-10 \
	updateTestStepSize   yes \
	alphaTreduceFactor   0.1 \
	alphaTincreaseFactor 3 \
	nAlphaAdjustMax      3 \
	wolfeEnergy          0.0001 \
	wolfeGradient        0.9 \
	fdTest               no
kpoint   0.000000000000   0.000000000000   0.000000000000  1.00000000000000
kpoint-folding 12 12 1 
latt-move-scale 1 1 1
latt-scale 1 1 1 
lattice  \
	  14.116397090998559   -7.058198545499275    0.000000000000000  \
	  -0.000000000000000   12.225158490713497    0.000000000000000  \
	   0.000000000000000    0.000000000000000   40.000000000000000 
lattice-minimize  \
	dirUpdateScheme      L-BFGS \
	linminMethod         DirUpdateRecommended \
	nIterations          0 \
	history              15 \
	knormThreshold       0 \
	energyDiffThreshold  1e-06 \
	nEnergyDiff          2 \
	alphaTstart          1 \
	alphaTmin            1e-10 \
	updateTestStepSize   yes \
	alphaTreduceFactor   0.1 \
	alphaTincreaseFactor 3 \
	nAlphaAdjustMax      3 \
	wolfeEnergy          0.0001 \
	wolfeGradient        0.9 \
	fdTest               no
lcao-params -1 1e-06 1e-05
pcm-variant GLSSA13
spintype z-spin
subspace-rotation-factor 1 yes
symmetries automatic
symmetry-threshold 0.0001



---------- Setting up symmetries ----------

Found 24 point-group symmetries of the bravais lattice
Found 12 space-group symmetries with basis
Applied RMS atom displacement 2.54347e-15 bohrs to make symmetries exact.

---------- Initializing the Grid ----------
R = 
[      14.1164      -7.0582            0  ]
[            0      12.2252            0  ]
[            0            0           40  ]
unit cell volume = 6903.01
G =
[   0.445098   0.256978         -0  ]
[          0   0.513955         -0  ]
[         -0         -0    0.15708  ]
Minimum fftbox size, Smin = [  60  60  164  ]
Chosen fftbox size, S = [  60  60  168  ]

---------- Exchange Correlation functional ----------
Initalized PBE GGA exchange.
Initalized PBE GGA correlation.

---------- Setting up pseudopotentials ----------
Width of ionic core gaussian charges (only for fluid interactions / plotting) set to 0

Reading pseudopotential file '/home/gridsan/aligho/DFT/build-Nov24/pseudopotentials/SG15/C_ONCV_PBE.upf':
  'C' pseudopotential, 'PBE' functional
  Generated using ONCVPSP code by D. R. Hamann
  Author: Martin Schlipf and Francois Gygi  Date: 150915.
  4 valence electrons, 2 orbitals, 4 projectors, 1248 radial grid points, with lMax = 1
  Transforming local potential to a uniform radial grid of dG=0.02 with 1495 points.
  Transforming nonlocal projectors to a uniform radial grid of dG=0.02 with 432 points.
    2S    l: 0   occupation:  2.0   eigenvalue: -0.505335
    2P    l: 1   occupation:  2.0   eigenvalue: -0.194238
  Transforming atomic orbitals to a uniform radial grid of dG=0.02 with 432 points.
  Core radius for overlap checks: 1.23 bohrs.
  Reading pulay file /home/gridsan/aligho/DFT/build-Nov24/pseudopotentials/SG15/C_ONCV_PBE.pulay ... using dE_dnG = -9.239532e-03 computed for Ecut = 20.

Reading pseudopotential file '/home/gridsan/aligho/DFT/build-Nov24/pseudopotentials/SG15/N_ONCV_PBE.upf':
  'N' pseudopotential, 'PBE' functional
  Generated using ONCVPSP code by D. R. Hamann
  Author: Martin Schlipf and Francois Gygi  Date: 150915.
  5 valence electrons, 2 orbitals, 4 projectors, 1058 radial grid points, with lMax = 1
  Transforming local potential to a uniform radial grid of dG=0.02 with 1495 points.
  Transforming nonlocal projectors to a uniform radial grid of dG=0.02 with 432 points.
    2S    l: 0   occupation:  2.0   eigenvalue: -0.682907
    2P    l: 1   occupation:  3.0   eigenvalue: -0.260548
  Transforming atomic orbitals to a uniform radial grid of dG=0.02 with 432 points.
  Core radius for overlap checks: 1.35 bohrs.
  Reading pulay file /home/gridsan/aligho/DFT/build-Nov24/pseudopotentials/SG15/N_ONCV_PBE.pulay ... using dE_dnG = -2.956256e-02 computed for Ecut = 20.

Reading pseudopotential file '/home/gridsan/aligho/DFT/build-Nov24/pseudopotentials/SG15/B_ONCV_PBE.upf':
  'B' pseudopotential, 'PBE' functional
  Generated using ONCVPSP code by D. R. Hamann
  Author: Martin Schlipf and Francois Gygi  Date: 150915.
  3 valence electrons, 2 orbitals, 4 projectors, 1534 radial grid points, with lMax = 1
  Transforming local potential to a uniform radial grid of dG=0.02 with 1495 points.
  Transforming nonlocal projectors to a uniform radial grid of dG=0.02 with 432 points.
    2S    l: 0   occupation:  2.0   eigenvalue: -0.347027
    2P    l: 1   occupation:  1.0   eigenvalue: -0.132548
  Transforming atomic orbitals to a uniform radial grid of dG=0.02 with 432 points.
  Core radius for overlap checks: 1.60 bohrs.
  Reading pulay file /home/gridsan/aligho/DFT/build-Nov24/pseudopotentials/SG15/B_ONCV_PBE.pulay ... using dE_dnG = -3.748568e-04 computed for Ecut = 20.

Initialized 3 species with 18 total atoms.

Folded 1 k-points by 12x12x1 to 144 k-points.

---------- Setting up k-points, bands, fillings ----------
Adding inversion symmetry to k-mesh for non-inversion-symmetric unit cell.
Reduced to 19 k-points under symmetry. 
Computing the number of bands and number of electrons
Calculating initial fillings.
nElectrons:  73.000000   nBands: 72   nStates: 38

----- Setting up reduced wavefunction bases (one per k-point) -----
average nbasis = 29490.146 , ideal nbasis = 29490.175

---------- Setting up coulomb interaction ----------
Initialized slab truncation along lattice direction 001

---------- Setting up 2D ewald sum ----------
Optimum gaussian width for ewald sums = 7.836854 bohr.
Real space sums over 289 unit cells with max indices [  8  8  0  ]
Reciprocal space sums over 81 terms with max indices [  4  4  0  ]

---------- Allocating electronic variables ----------
Initializing wave functions:  linear combination of atomic orbitals
C pseudo-atom occupations:   s ( 2 )  p ( 2 )
N pseudo-atom occupations:   s ( 2 )  p ( 3 )
B pseudo-atom occupations:   s ( 2 )  p ( 1 )
[d-16-13-2:86287] 37 more processes have sent help message help-mpi-common-cuda.txt / dlopen failed
[d-16-13-2:86287] Set MCA parameter "orte_base_help_aggregate" to 0 to see all help / error messages
[d-16-13-2:86287] 37 more processes have sent help message help-mpi-btl-openib-cpc-base.txt / no cpcs for port
	FillingsUpdate:  mu: -0.191622999  nElectrons: 73.000000  magneticMoment: [ Abs: 0.97848  Tot: -0.94000 ]
LCAOMinimize: Iter:   0  F: -116.5377350074620750  |grad|_K:  4.431e-03  alpha:  1.000e+00
	FillingsUpdate:  mu: -0.213266084  nElectrons: 73.000000  magneticMoment: [ Abs: 0.99019  Tot: -0.94000 ]
LCAOMinimize: Iter:   1  F: -117.1953194832577765  |grad|_K:  9.327e-04  alpha:  4.011e-01  linmin:  1.649e-01  cgtest: -5.962e-01  t[s]:     25.46
	FillingsUpdate:  mu: -0.184114099  nElectrons: 73.000000  magneticMoment: [ Abs: 0.99428  Tot: -0.94000 ]
LCAOMinimize: Iter:   2  F: -117.2089391740193065  |grad|_K:  5.588e-04  alpha:  2.617e-01  linmin:  7.957e-04  cgtest:  7.381e-01  t[s]:     33.25
LCAOMinimize: Encountered beta<0, resetting CG.
	FillingsUpdate:  mu: -0.173818010  nElectrons: 73.000000  magneticMoment: [ Abs: 0.99839  Tot: -0.94000 ]
LCAOMinimize: Iter:   3  F: -117.2200853440772619  |grad|_K:  9.569e-05  alpha:  3.538e-01  linmin:  1.626e-02  cgtest: -6.845e-02  t[s]:     40.99
	FillingsUpdate:  mu: -0.176926607  nElectrons: 73.000000  magneticMoment: [ Abs: 1.00123  Tot: -0.94000 ]
LCAOMinimize: Iter:   4  F: -117.2204119246270437  |grad|_K:  1.311e-05  alpha:  3.572e-01  linmin:  1.136e-02  cgtest:  1.105e-01  t[s]:     48.77
	FillingsUpdate:  mu: -0.177166943  nElectrons: 73.000000  magneticMoment: [ Abs: 1.00477  Tot: -0.94000 ]
LCAOMinimize: Iter:   5  F: -117.2204234502002151  |grad|_K:  8.960e-06  alpha:  6.626e-01  linmin: -4.349e-04  cgtest:  5.213e-03  t[s]:     56.54
	FillingsUpdate:  mu: -0.176896318  nElectrons: 73.000000  magneticMoment: [ Abs: 1.00807  Tot: -0.94000 ]
LCAOMinimize: Iter:   6  F: -117.2204283997259608  |grad|_K:  3.387e-06  alpha:  6.084e-01  linmin: -1.160e-03  cgtest: -6.062e-03  t[s]:     64.30
	FillingsUpdate:  mu: -0.176983518  nElectrons: 73.000000  magneticMoment: [ Abs: 1.00863  Tot: -0.94000 ]
LCAOMinimize: Iter:   7  F: -117.2204289174871832  |grad|_K:  7.418e-07  alpha:  4.449e-01  linmin:  1.765e-04  cgtest: -1.099e-02  t[s]:     72.09
	FillingsUpdate:  mu: -0.176983333  nElectrons: 73.000000  magneticMoment: [ Abs: 1.00872  Tot: -0.94000 ]
LCAOMinimize: Iter:   8  F: -117.2204289661815153  |grad|_K:  2.419e-07  alpha:  8.738e-01  linmin:  4.594e-04  cgtest: -5.023e-04  t[s]:     79.80
LCAOMinimize: Converged (|Delta F|<1.000000e-06 for 2 iters).


---- Citations for features of the code used in this run ----

   Software package:
      R. Sundararaman, K. Letchworth-Weaver, K.A. Schwarz, D. Gunceler, Y. Ozhabes and T.A. Arias, 'JDFTx: software for joint density-functional theory', SoftwareX 6, 278 (2017)

   gga-PBE exchange-correlation functional:
      J.P. Perdew, K. Burke and M. Ernzerhof, Phys. Rev. Lett. 77, 3865 (1996)

   Pseudopotentials:
      M Schlipf and F Gygi, Comput. Phys. Commun. 196, 36 (2015)

   Truncated Coulomb potentials:
      R. Sundararaman and T.A. Arias, Phys. Rev. B 87, 165122 (2013)

This list may not be complete. Please suggest additional citations or
report any other bugs at https://github.com/shankar1729/jdftx/issues

Initialization completed successfully at t[s]:     80.57


-------- Electronic minimization -----------
Will mix electronic density at each iteration.
	FillingsUpdate:  mu: -0.176983333  nElectrons: 73.000000  magneticMoment: [ Abs: 1.00872  Tot: -0.94000 ]
	FillingsUpdate:  mu: -0.191137499  nElectrons: 73.000000  magneticMoment: [ Abs: 1.00872  Tot: -0.94000 ]
SCF: Cycle:  0   F: -118.148302142456316   dF: -9.279e-01   |Residual|: 3.373e-01   |deigs|: 1.139e-01  t[s]:    101.83
	FillingsUpdate:  mu: -0.169988473  nElectrons: 73.000000  magneticMoment: [ Abs: 1.05517  Tot: -0.94000 ]
SCF: Cycle:  1   F: -118.187129330108988   dF: -3.883e-02   |Residual|: 1.880e-01   |deigs|: 2.528e-02  t[s]:    117.62
	FillingsUpdate:  mu: -0.140481284  nElectrons: 73.000000  magneticMoment: [ Abs: 1.07114  Tot: -0.94000 ]
SCF: Cycle:  2   F: -118.212777153287007   dF: -2.565e-02   |Residual|: 4.105e-02   |deigs|: 2.993e-02  t[s]:    133.52
	FillingsUpdate:  mu: -0.137347614  nElectrons: 73.000000  magneticMoment: [ Abs: 1.07352  Tot: -0.94000 ]
SCF: Cycle:  3   F: -118.213588085390214   dF: -8.109e-04   |Residual|: 2.309e-02   |deigs|: 7.784e-03  t[s]:    149.51
	FillingsUpdate:  mu: -0.126533331  nElectrons: 73.000000  magneticMoment: [ Abs: 1.05502  Tot: -0.94000 ]
SCF: Cycle:  4   F: -118.214931913426639   dF: -1.344e-03   |Residual|: 1.253e-02   |deigs|: 9.754e-03  t[s]:    165.54
	FillingsUpdate:  mu: -0.121292417  nElectrons: 73.000000  magneticMoment: [ Abs: 1.06054  Tot: -0.94000 ]
SCF: Cycle:  5   F: -118.215311837882197   dF: -3.799e-04   |Residual|: 9.663e-03   |deigs|: 4.511e-03  t[s]:    181.58
	FillingsUpdate:  mu: -0.115289733  nElectrons: 73.000000  magneticMoment: [ Abs: 1.05853  Tot: -0.94000 ]
SCF: Cycle:  6   F: -118.215434336126265   dF: -1.225e-04   |Residual|: 6.128e-03   |deigs|: 5.289e-03  t[s]:    197.69
	FillingsUpdate:  mu: -0.110446894  nElectrons: 73.000000  magneticMoment: [ Abs: 1.05626  Tot: -0.94000 ]
SCF: Cycle:  7   F: -118.215412407695240   dF: +2.193e-05   |Residual|: 4.888e-03   |deigs|: 6.057e-03  t[s]:    213.95
	FillingsUpdate:  mu: -0.106489047  nElectrons: 73.000000  magneticMoment: [ Abs: 1.05804  Tot: -0.94000 ]
SCF: Cycle:  8   F: -118.215467891016985   dF: -5.548e-05   |Residual|: 4.047e-03   |deigs|: 4.020e-03  t[s]:    230.25
	FillingsUpdate:  mu: -0.103122067  nElectrons: 73.000000  magneticMoment: [ Abs: 1.05487  Tot: -0.94000 ]
SCF: Cycle:  9   F: -118.215520383851228   dF: -5.249e-05   |Residual|: 3.066e-03   |deigs|: 3.532e-03  t[s]:    246.60
	FillingsUpdate:  mu: -0.101043078  nElectrons: 73.000000  magneticMoment: [ Abs: 1.05500  Tot: -0.94000 ]
SCF: Cycle: 10   F: -118.215544245102137   dF: -2.386e-05   |Residual|: 2.647e-03   |deigs|: 2.126e-03  t[s]:    262.93
	FillingsUpdate:  mu: -0.098100525  nElectrons: 73.000000  magneticMoment: [ Abs: 1.05649  Tot: -0.94000 ]
SCF: Cycle: 11   F: -118.215562774027077   dF: -1.853e-05   |Residual|: 2.114e-03   |deigs|: 2.880e-03  t[s]:    279.35
	FillingsUpdate:  mu: -0.095537352  nElectrons: 73.000000  magneticMoment: [ Abs: 1.05552  Tot: -0.94000 ]
SCF: Cycle: 12   F: -118.215571017025297   dF: -8.243e-06   |Residual|: 1.974e-03   |deigs|: 2.364e-03  t[s]:    295.64
	FillingsUpdate:  mu: -0.092402850  nElectrons: 73.000000  magneticMoment: [ Abs: 1.05564  Tot: -0.94000 ]
SCF: Cycle: 13   F: -118.215574398384703   dF: -3.381e-06   |Residual|: 1.707e-03   |deigs|: 2.943e-03  t[s]:    312.18
	FillingsUpdate:  mu: -0.088405183  nElectrons: 73.000000  magneticMoment: [ Abs: 1.05472  Tot: -0.94000 ]
SCF: Cycle: 14   F: -118.215573811602496   dF: +5.868e-07   |Residual|: 1.649e-03   |deigs|: 3.565e-03  t[s]:    328.62
	FillingsUpdate:  mu: -0.084999561  nElectrons: 73.000000  magneticMoment: [ Abs: 1.05541  Tot: -0.94000 ]
SCF: Cycle: 15   F: -118.215574635764938   dF: -8.242e-07   |Residual|: 1.517e-03   |deigs|: 3.026e-03  t[s]:    345.04
	FillingsUpdate:  mu: -0.080869140  nElectrons: 73.000000  magneticMoment: [ Abs: 1.05645  Tot: -0.94000 ]
SCF: Cycle: 16   F: -118.215577010236686   dF: -2.374e-06   |Residual|: 1.220e-03   |deigs|: 3.887e-03  t[s]:    361.51
	FillingsUpdate:  mu: -0.078743781  nElectrons: 73.000000  magneticMoment: [ Abs: 1.05462  Tot: -0.94000 ]
SCF: Cycle: 17   F: -118.215581575866963   dF: -4.566e-06   |Residual|: 9.540e-04   |deigs|: 1.874e-03  t[s]:    377.81
	FillingsUpdate:  mu: -0.077345697  nElectrons: 73.000000  magneticMoment: [ Abs: 1.05403  Tot: -0.94000 ]
SCF: Cycle: 18   F: -118.215585132794530   dF: -3.557e-06   |Residual|: 5.824e-04   |deigs|: 1.300e-03  t[s]:    394.21
	FillingsUpdate:  mu: -0.076804684  nElectrons: 73.000000  magneticMoment: [ Abs: 1.05361  Tot: -0.94000 ]
SCF: Cycle: 19   F: -118.215586020465025   dF: -8.877e-07   |Residual|: 3.757e-04   |deigs|: 5.577e-04  t[s]:    410.61
	FillingsUpdate:  mu: -0.076422230  nElectrons: 73.000000  magneticMoment: [ Abs: 1.05361  Tot: -0.94000 ]
SCF: Cycle: 20   F: -118.215586453592650   dF: -4.331e-07   |Residual|: 2.205e-04   |deigs|: 6.781e-04  t[s]:    427.01
	FillingsUpdate:  mu: -0.076231069  nElectrons: 73.000000  magneticMoment: [ Abs: 1.05346  Tot: -0.94000 ]
SCF: Cycle: 21   F: -118.215586616555299   dF: -1.630e-07   |Residual|: 1.307e-04   |deigs|: 4.038e-04  t[s]:    443.38
	FillingsUpdate:  mu: -0.076092168  nElectrons: 73.000000  magneticMoment: [ Abs: 1.05322  Tot: -0.94000 ]
SCF: Cycle: 22   F: -118.215586690949223   dF: -7.439e-08   |Residual|: 6.654e-05   |deigs|: 6.536e-04  t[s]:    459.75
	FillingsUpdate:  mu: -0.076035753  nElectrons: 73.000000  magneticMoment: [ Abs: 1.05319  Tot: -0.94000 ]
SCF: Cycle: 23   F: -118.215586716377786   dF: -2.543e-08   |Residual|: 4.653e-05   |deigs|: 2.087e-04  t[s]:    476.17
	FillingsUpdate:  mu: -0.075992898  nElectrons: 73.000000  magneticMoment: [ Abs: 1.05311  Tot: -0.94000 ]
SCF: Cycle: 24   F: -118.215586729957522   dF: -1.358e-08   |Residual|: 2.860e-05   |deigs|: 1.806e-04  t[s]:    492.57
	FillingsUpdate:  mu: -0.075969125  nElectrons: 73.000000  magneticMoment: [ Abs: 1.05309  Tot: -0.94000 ]
SCF: Cycle: 25   F: -118.215586736091680   dF: -6.134e-09   |Residual|: 1.702e-05   |deigs|: 3.111e-04  t[s]:    508.91
	FillingsUpdate:  mu: -0.075958961  nElectrons: 73.000000  magneticMoment: [ Abs: 1.05306  Tot: -0.94000 ]
SCF: Cycle: 26   F: -118.215586738234322   dF: -2.143e-09   |Residual|: 1.004e-05   |deigs|: 1.559e-04  t[s]:    525.21
SCF: Converged (|Delta E|<1.000000e-08 for 2 iters).


# Ionic positions in lattice coordinates:
ion C  -0.000000000000000   0.000000000000000   0.000000000000000 1
ion N   0.108900118656067   0.217800237312134   0.000000000000000 1
ion N   0.111440932313158   0.555720466156579   0.000000000000000 1
ion N   0.108900118656067   0.891099881343933   0.000000000000000 1
ion N   0.444600551142632   0.222300275571316   0.000000000000000 1
ion N   0.444279533843421   0.555720466156579   0.000000000000000 1
ion N   0.444279533843421   0.888559067686842   0.000000000000000 1
ion N   0.777699724428684   0.222300275571316   0.000000000000000 1
ion N   0.777699724428684   0.555399448857368   0.000000000000000 1
ion N   0.782199762687866   0.891099881343933   0.000000000000000 1
ion B  -0.000409163333578   0.332352225367090   0.000000000000000 1
ion B  -0.000409163333578   0.667238611299332   0.000000000000000 1
ion B   0.332761388700668   0.000409163333578   0.000000000000000 1
ion B   0.332761388700668   0.332352225367090   0.000000000000000 1
ion B   0.333333333333333   0.666666666666667   0.000000000000000 1
ion B   0.667647774632910   0.000409163333578   0.000000000000000 1
ion B   0.666666666666667   0.333333333333333   0.000000000000000 1
ion B   0.667647774632910   0.667238611299332   0.000000000000000 1

# Forces in Lattice coordinates:
force C   0.000000000000000  -0.000000000000000   0.000000000000000 1
force N   0.000000000000000  -0.013482064844692   0.000000000000000 1
force N   0.001801525502827   0.000000000000000   0.000000000000000 1
force N  -0.013482064844692   0.013482064844692   0.000000000000000 1
force N  -0.001783095802698  -0.000000000000000  -0.000000000000000 1
force N  -0.001801525502827   0.001801525502827   0.000000000000000 1
force N   0.000000000000000  -0.001801525502827   0.000000000000000 1
force N   0.001783095802698  -0.001783095802698  -0.000000000000000 1
force N   0.000000000000000   0.001783095802698   0.000000000000000 1
force N   0.013482064844694   0.000000000000000  -0.000000000000000 1
force B  -0.005884096111792   0.003793256809395   0.000000000000000 1
force B  -0.002090839302398  -0.003793256809394   0.000000000000000 1
force B   0.003793256809394   0.002090839302398   0.000000000000000 1
force B   0.005884096111792  -0.002090839302398   0.000000000000000 1
force B  -0.000000000000000   0.000000000000000   0.000000000000000 1
force B  -0.003793256809394   0.005884096111792  -0.000000000000000 1
force B   0.000000000000000   0.000000000000000   0.000000000000000 1
force B   0.002090839302398  -0.005884096111792   0.000000000000000 1

# Energy components:
   Eewald =     -185.5884594997991428
       EH =      -93.0000745680895022
     Eloc =      115.4240478152980955
      Enl =       -5.2825929188083887
   Epulay =       -0.0000011688465181
      Exc =      -33.7616523594441986
       KE =       83.9931464956675597
-------------------------------------
     Etot =     -118.2155862040221166
       TS =        0.0000005342122076
-------------------------------------
        F =     -118.2155867382343217

IonicMinimize: Iter:   0  F: -118.215586738234322  |grad|_K:  2.997e-04  t[s]:    526.65
IonicMinimize: None of the convergence criteria satisfied after 0 iterations.

#--- Lowdin population analysis ---
# oxidation-state C +0.274
# magnetic-moments C -0.540
# oxidation-state N -0.269 -0.373 -0.269 -0.379 -0.373 -0.373 -0.379 -0.379 -0.269
# magnetic-moments N -0.003 +0.005 -0.003 -0.020 +0.005 +0.005 -0.020 -0.020 -0.003
# oxidation-state B +0.432 +0.432 +0.432 +0.432 +0.436 +0.432 +0.433 +0.432
# magnetic-moments B -0.044 -0.044 -0.044 -0.044 -0.024 -0.044 -0.031 -0.044

End date and time: Sun Feb  6 19:24:15 2022  (Duration: 0-0:08:46.98)
Done!
