magnetization is 0.68
--------------------------------------------------------------------------
The library attempted to open the following supporting CUDA libraries,
but each of them failed.  CUDA-aware support is disabled.
libcuda.so.1: cannot open shared object file: No such file or directory
libcuda.dylib: cannot open shared object file: No such file or directory
/usr/lib64/libcuda.so.1: cannot open shared object file: No such file or directory
/usr/lib64/libcuda.dylib: cannot open shared object file: No such file or directory
If you are not interested in CUDA-aware support, then run with
--mca opal_warn_on_missing_libcuda 0 to suppress this message.  If you are interested
in CUDA-aware support, then try setting LD_LIBRARY_PATH to the location
of libcuda.so.1 to get passed this issue.
--------------------------------------------------------------------------
--------------------------------------------------------------------------
No OpenFabrics connection schemes reported that they were able to be
used on a specific port.  As such, the openib BTL (OpenFabrics
support) will be disabled for this port.

  Local host:           d-16-11-1
  Local device:         mlx5_1
  Local port:           1
  CPCs attempted:       rdmacm, udcm
--------------------------------------------------------------------------

*************** JDFTx 1.6.0 (git hash 42ebbcc2) ***************

Start date and time: Sun Feb  6 19:41:35 2022
Executable jdftx with command-line: -i BN33BC.in
Running on hosts (process indices):  d-16-11-1 (0-37)
Divided in process groups (process indices):  0 (0)  1 (1)  2 (2)  3 (3)  4 (4)  5 (5)  6 (6)  7 (7)  8 (8)  9 (9)  10 (10)  11 (11)  12 (12)  13 (13)  14 (14)  15 (15)  16 (16)  17 (17)  18 (18)  19 (19)  20 (20)  21 (21)  22 (22)  23 (23)  24 (24)  25 (25)  26 (26)  27 (27)  28 (28)  29 (29)  30 (30)  31 (31)  32 (32)  33 (33)  34 (34)  35 (35)  36 (36)  37 (37)
Resource initialization completed at t[s]:      0.00
Run totals: 38 processes, 48 threads, 0 GPUs


Input parsed successfully to the following command list (including defaults):

basis kpoint-dependent
coords-type Lattice
core-overlap-check vector
coulomb-interaction Slab 001
davidson-band-ratio 1.1
dump End None
dump-name $INPUT.$VAR
elec-cutoff 20
elec-eigen-algo Davidson
elec-ex-corr gga-PBE
elec-initial-magnetization 0.680000 yes
elec-smearing Fermi 1e-05
electronic-minimize  \
	dirUpdateScheme      FletcherReeves \
	linminMethod         DirUpdateRecommended \
	nIterations          100 \
	history              15 \
	knormThreshold       0 \
	energyDiffThreshold  1e-08 \
	nEnergyDiff          2 \
	alphaTstart          1 \
	alphaTmin            1e-10 \
	updateTestStepSize   yes \
	alphaTreduceFactor   0.1 \
	alphaTincreaseFactor 3 \
	nAlphaAdjustMax      3 \
	wolfeEnergy          0.0001 \
	wolfeGradient        0.9 \
	fdTest               no
electronic-scf  \
	nIterations	1000 \
	energyDiffThreshold	1e-08 \
	residualThreshold	1e-07 \
	mixFraction	0.5 \
	qMetric	0.8 \
	history	10 \
	nEigSteps	2 \
	eigDiffThreshold	1e-08 \
	mixedVariable	Density \
	qKerker	0.8 \
	qKappa	-1 \
	verbose	no \
	mixFractionMag	1.5
exchange-regularization WignerSeitzTruncated
fluid None
fluid-ex-corr (null) lda-PZ
fluid-gummel-loop 10 1.000000e-05
fluid-minimize  \
	dirUpdateScheme      PolakRibiere \
	linminMethod         DirUpdateRecommended \
	nIterations          100 \
	history              15 \
	knormThreshold       0 \
	energyDiffThreshold  0 \
	nEnergyDiff          2 \
	alphaTstart          1 \
	alphaTmin            1e-10 \
	updateTestStepSize   yes \
	alphaTreduceFactor   0.1 \
	alphaTincreaseFactor 3 \
	nAlphaAdjustMax      3 \
	wolfeEnergy          0.0001 \
	wolfeGradient        0.9 \
	fdTest               no
fluid-solvent H2O 55.338 ScalarEOS \
	epsBulk 78.4 \
	pMol 0.92466 \
	epsInf 1.77 \
	Pvap 1.06736e-10 \
	sigmaBulk 4.62e-05 \
	Rvdw 2.61727 \
	Res 1.42 \
	tauNuc 343133 \
	poleEl 15 7 1
forces-output-coords Positions
ion C   0.000000000000000  -0.000000000000000   0.000000000000000 1
ion N   0.108900118656067   0.217800237312134   0.000000000000000 1
ion N   0.111440932313158   0.555720466156579   0.000000000000000 1
ion N   0.108900118656067   0.891099881343933   0.000000000000000 1
ion N   0.444600551142632   0.222300275571316   0.000000000000000 1
ion N   0.444279533843421   0.555720466156579   0.000000000000000 1
ion N   0.444279533843421   0.888559067686842   0.000000000000000 1
ion N   0.777699724428684   0.222300275571316   0.000000000000000 1
ion N   0.777699724428684   0.555399448857368   0.000000000000000 1
ion N   0.782199762687866   0.891099881343933   0.000000000000000 1
ion B  -0.000409163333578   0.332352225367090  -0.000000000000000 1
ion B  -0.000409163333578   0.667238611299332  -0.000000000000000 1
ion B   0.332761388700668   0.000409163333578   0.000000000000000 1
ion B   0.332761388700668   0.332352225367090  -0.000000000000000 1
ion B   0.333333333333333   0.666666666666667   0.000000000000000 1
ion B   0.667647774632910   0.000409163333578   0.000000000000000 1
ion B   0.666666666666667   0.333333333333333   0.000000000000000 1
ion B   0.667647774632910   0.667238611299332   0.000000000000000 1
ion-species SG15/$ID_ONCV_PBE.upf
ion-width 0
ionic-minimize  \
	dirUpdateScheme      L-BFGS \
	linminMethod         DirUpdateRecommended \
	nIterations          0 \
	history              15 \
	knormThreshold       0.0001 \
	energyDiffThreshold  1e-06 \
	nEnergyDiff          2 \
	alphaTstart          1 \
	alphaTmin            1e-10 \
	updateTestStepSize   yes \
	alphaTreduceFactor   0.1 \
	alphaTincreaseFactor 3 \
	nAlphaAdjustMax      3 \
	wolfeEnergy          0.0001 \
	wolfeGradient        0.9 \
	fdTest               no
kpoint   0.000000000000   0.000000000000   0.000000000000  1.00000000000000
kpoint-folding 12 12 1 
latt-move-scale 1 1 1
latt-scale 1 1 1 
lattice  \
	  14.116397090998559   -7.058198545499275    0.000000000000000  \
	  -0.000000000000000   12.225158490713497    0.000000000000000  \
	   0.000000000000000    0.000000000000000   40.000000000000000 
lattice-minimize  \
	dirUpdateScheme      L-BFGS \
	linminMethod         DirUpdateRecommended \
	nIterations          0 \
	history              15 \
	knormThreshold       0 \
	energyDiffThreshold  1e-06 \
	nEnergyDiff          2 \
	alphaTstart          1 \
	alphaTmin            1e-10 \
	updateTestStepSize   yes \
	alphaTreduceFactor   0.1 \
	alphaTincreaseFactor 3 \
	nAlphaAdjustMax      3 \
	wolfeEnergy          0.0001 \
	wolfeGradient        0.9 \
	fdTest               no
lcao-params -1 1e-06 1e-05
pcm-variant GLSSA13
spintype z-spin
subspace-rotation-factor 1 yes
symmetries automatic
symmetry-threshold 0.0001



---------- Setting up symmetries ----------

Found 24 point-group symmetries of the bravais lattice
Found 12 space-group symmetries with basis
Applied RMS atom displacement 2.54347e-15 bohrs to make symmetries exact.

---------- Initializing the Grid ----------
R = 
[      14.1164      -7.0582            0  ]
[            0      12.2252            0  ]
[            0            0           40  ]
unit cell volume = 6903.01
G =
[   0.445098   0.256978         -0  ]
[          0   0.513955         -0  ]
[         -0         -0    0.15708  ]
Minimum fftbox size, Smin = [  60  60  164  ]
Chosen fftbox size, S = [  60  60  168  ]

---------- Exchange Correlation functional ----------
Initalized PBE GGA exchange.
Initalized PBE GGA correlation.

---------- Setting up pseudopotentials ----------
Width of ionic core gaussian charges (only for fluid interactions / plotting) set to 0

Reading pseudopotential file '/home/gridsan/aligho/DFT/build-Nov24/pseudopotentials/SG15/C_ONCV_PBE.upf':
  'C' pseudopotential, 'PBE' functional
  Generated using ONCVPSP code by D. R. Hamann
  Author: Martin Schlipf and Francois Gygi  Date: 150915.
  4 valence electrons, 2 orbitals, 4 projectors, 1248 radial grid points, with lMax = 1
  Transforming local potential to a uniform radial grid of dG=0.02 with 1495 points.
  Transforming nonlocal projectors to a uniform radial grid of dG=0.02 with 432 points.
    2S    l: 0   occupation:  2.0   eigenvalue: -0.505335
    2P    l: 1   occupation:  2.0   eigenvalue: -0.194238
  Transforming atomic orbitals to a uniform radial grid of dG=0.02 with 432 points.
  Core radius for overlap checks: 1.23 bohrs.
  Reading pulay file /home/gridsan/aligho/DFT/build-Nov24/pseudopotentials/SG15/C_ONCV_PBE.pulay ... using dE_dnG = -9.239532e-03 computed for Ecut = 20.

Reading pseudopotential file '/home/gridsan/aligho/DFT/build-Nov24/pseudopotentials/SG15/N_ONCV_PBE.upf':
  'N' pseudopotential, 'PBE' functional
  Generated using ONCVPSP code by D. R. Hamann
  Author: Martin Schlipf and Francois Gygi  Date: 150915.
  5 valence electrons, 2 orbitals, 4 projectors, 1058 radial grid points, with lMax = 1
  Transforming local potential to a uniform radial grid of dG=0.02 with 1495 points.
  Transforming nonlocal projectors to a uniform radial grid of dG=0.02 with 432 points.
    2S    l: 0   occupation:  2.0   eigenvalue: -0.682907
    2P    l: 1   occupation:  3.0   eigenvalue: -0.260548
  Transforming atomic orbitals to a uniform radial grid of dG=0.02 with 432 points.
  Core radius for overlap checks: 1.35 bohrs.
  Reading pulay file /home/gridsan/aligho/DFT/build-Nov24/pseudopotentials/SG15/N_ONCV_PBE.pulay ... using dE_dnG = -2.956256e-02 computed for Ecut = 20.

Reading pseudopotential file '/home/gridsan/aligho/DFT/build-Nov24/pseudopotentials/SG15/B_ONCV_PBE.upf':
  'B' pseudopotential, 'PBE' functional
  Generated using ONCVPSP code by D. R. Hamann
  Author: Martin Schlipf and Francois Gygi  Date: 150915.
  3 valence electrons, 2 orbitals, 4 projectors, 1534 radial grid points, with lMax = 1
  Transforming local potential to a uniform radial grid of dG=0.02 with 1495 points.
  Transforming nonlocal projectors to a uniform radial grid of dG=0.02 with 432 points.
    2S    l: 0   occupation:  2.0   eigenvalue: -0.347027
    2P    l: 1   occupation:  1.0   eigenvalue: -0.132548
  Transforming atomic orbitals to a uniform radial grid of dG=0.02 with 432 points.
  Core radius for overlap checks: 1.60 bohrs.
  Reading pulay file /home/gridsan/aligho/DFT/build-Nov24/pseudopotentials/SG15/B_ONCV_PBE.pulay ... using dE_dnG = -3.748568e-04 computed for Ecut = 20.

Initialized 3 species with 18 total atoms.

Folded 1 k-points by 12x12x1 to 144 k-points.

---------- Setting up k-points, bands, fillings ----------
Adding inversion symmetry to k-mesh for non-inversion-symmetric unit cell.
Reduced to 19 k-points under symmetry. 
Computing the number of bands and number of electrons
Calculating initial fillings.
nElectrons:  73.000000   nBands: 72   nStates: 38

----- Setting up reduced wavefunction bases (one per k-point) -----
average nbasis = 29490.146 , ideal nbasis = 29490.175

---------- Setting up coulomb interaction ----------
Initialized slab truncation along lattice direction 001

---------- Setting up 2D ewald sum ----------
Optimum gaussian width for ewald sums = 7.836854 bohr.
Real space sums over 289 unit cells with max indices [  8  8  0  ]
Reciprocal space sums over 81 terms with max indices [  4  4  0  ]

---------- Allocating electronic variables ----------
Initializing wave functions:  linear combination of atomic orbitals
C pseudo-atom occupations:   s ( 2 )  p ( 2 )
N pseudo-atom occupations:   s ( 2 )  p ( 3 )
B pseudo-atom occupations:   s ( 2 )  p ( 1 )
[d-16-11-1:34732] 37 more processes have sent help message help-mpi-common-cuda.txt / dlopen failed
[d-16-11-1:34732] Set MCA parameter "orte_base_help_aggregate" to 0 to see all help / error messages
[d-16-11-1:34732] 37 more processes have sent help message help-mpi-btl-openib-cpc-base.txt / no cpcs for port
	FillingsUpdate:  mu: -0.191966387  nElectrons: 73.000000  magneticMoment: [ Abs: 0.70634  Tot: +0.68000 ]
LCAOMinimize: Iter:   0  F: -116.5234392023674701  |grad|_K:  4.467e-03  alpha:  1.000e+00
	FillingsUpdate:  mu: -0.218128583  nElectrons: 73.000000  magneticMoment: [ Abs: 0.71263  Tot: +0.68000 ]
LCAOMinimize: Iter:   1  F: -117.1899261937715124  |grad|_K:  9.972e-04  alpha:  4.005e-01  linmin:  1.733e-01  cgtest: -5.965e-01  t[s]:     25.47
	FillingsUpdate:  mu: -0.184008508  nElectrons: 73.000000  magneticMoment: [ Abs: 0.71521  Tot: +0.68000 ]
LCAOMinimize: Iter:   2  F: -117.2048352062019774  |grad|_K:  6.052e-04  alpha:  2.557e-01  linmin:  1.655e-03  cgtest:  7.497e-01  t[s]:     33.36
LCAOMinimize: Encountered beta<0, resetting CG.
	FillingsUpdate:  mu: -0.171242205  nElectrons: 73.000000  magneticMoment: [ Abs: 0.71708  Tot: +0.68000 ]
LCAOMinimize: Iter:   3  F: -117.2176919966321833  |grad|_K:  1.080e-04  alpha:  3.479e-01  linmin:  1.526e-02  cgtest: -7.122e-02  t[s]:     41.24
	FillingsUpdate:  mu: -0.175140426  nElectrons: 73.000000  magneticMoment: [ Abs: 0.71831  Tot: +0.68000 ]
LCAOMinimize: Iter:   4  F: -117.2181031881938651  |grad|_K:  1.377e-05  alpha:  3.532e-01  linmin:  1.133e-02  cgtest:  1.339e-01  t[s]:     49.09
LCAOMinimize: Encountered beta<0, resetting CG.
	FillingsUpdate:  mu: -0.175449891  nElectrons: 73.000000  magneticMoment: [ Abs: 0.71964  Tot: +0.68000 ]
LCAOMinimize: Iter:   5  F: -117.2181142368433626  |grad|_K:  8.992e-06  alpha:  5.754e-01  linmin:  1.236e-05  cgtest:  7.077e-04  t[s]:     56.87
	FillingsUpdate:  mu: -0.175147810  nElectrons: 73.000000  magneticMoment: [ Abs: 0.72127  Tot: +0.68000 ]
LCAOMinimize: Iter:   6  F: -117.2181199305105821  |grad|_K:  3.878e-06  alpha:  6.947e-01  linmin: -2.037e-03  cgtest:  8.894e-03  t[s]:     64.75
	FillingsUpdate:  mu: -0.175264251  nElectrons: 73.000000  magneticMoment: [ Abs: 0.72148  Tot: +0.68000 ]
LCAOMinimize: Iter:   7  F: -117.2181206213315932  |grad|_K:  8.815e-07  alpha:  4.518e-01  linmin:  1.893e-06  cgtest: -1.963e-02  t[s]:     72.55
	FillingsUpdate:  mu: -0.175256683  nElectrons: 73.000000  magneticMoment: [ Abs: 0.72129  Tot: +0.68000 ]
LCAOMinimize: Iter:   8  F: -117.2181206878654365  |grad|_K:  3.564e-07  alpha:  8.430e-01  linmin: -3.348e-03  cgtest:  1.101e-02  t[s]:     80.26
LCAOMinimize: Converged (|Delta F|<1.000000e-06 for 2 iters).


---- Citations for features of the code used in this run ----

   Software package:
      R. Sundararaman, K. Letchworth-Weaver, K.A. Schwarz, D. Gunceler, Y. Ozhabes and T.A. Arias, 'JDFTx: software for joint density-functional theory', SoftwareX 6, 278 (2017)

   gga-PBE exchange-correlation functional:
      J.P. Perdew, K. Burke and M. Ernzerhof, Phys. Rev. Lett. 77, 3865 (1996)

   Pseudopotentials:
      M Schlipf and F Gygi, Comput. Phys. Commun. 196, 36 (2015)

   Truncated Coulomb potentials:
      R. Sundararaman and T.A. Arias, Phys. Rev. B 87, 165122 (2013)

This list may not be complete. Please suggest additional citations or
report any other bugs at https://github.com/shankar1729/jdftx/issues

Initialization completed successfully at t[s]:     80.99


-------- Electronic minimization -----------
Will mix electronic density at each iteration.
	FillingsUpdate:  mu: -0.175256683  nElectrons: 73.000000  magneticMoment: [ Abs: 0.72129  Tot: +0.68000 ]
	FillingsUpdate:  mu: -0.190518482  nElectrons: 73.000000  magneticMoment: [ Abs: 0.72129  Tot: +0.68000 ]
SCF: Cycle:  0   F: -118.144696247705582   dF: -9.266e-01   |Residual|: 3.369e-01   |deigs|: 1.137e-01  t[s]:    102.29
	FillingsUpdate:  mu: -0.169173778  nElectrons: 73.000000  magneticMoment: [ Abs: 0.75560  Tot: +0.68000 ]
SCF: Cycle:  1   F: -118.183763132419202   dF: -3.907e-02   |Residual|: 1.878e-01   |deigs|: 2.531e-02  t[s]:    118.03
	FillingsUpdate:  mu: -0.140333234  nElectrons: 73.000000  magneticMoment: [ Abs: 0.77083  Tot: +0.68000 ]
SCF: Cycle:  2   F: -118.209459353639019   dF: -2.570e-02   |Residual|: 4.096e-02   |deigs|: 2.998e-02  t[s]:    134.13
	FillingsUpdate:  mu: -0.137016923  nElectrons: 73.000000  magneticMoment: [ Abs: 0.77258  Tot: +0.68000 ]
SCF: Cycle:  3   F: -118.210248588960056   dF: -7.892e-04   |Residual|: 2.284e-02   |deigs|: 7.876e-03  t[s]:    150.21
	FillingsUpdate:  mu: -0.125756560  nElectrons: 73.000000  magneticMoment: [ Abs: 0.76037  Tot: +0.68000 ]
SCF: Cycle:  4   F: -118.211653986803938   dF: -1.405e-03   |Residual|: 1.221e-02   |deigs|: 1.014e-02  t[s]:    166.19
	FillingsUpdate:  mu: -0.120780808  nElectrons: 73.000000  magneticMoment: [ Abs: 0.76680  Tot: +0.68000 ]
SCF: Cycle:  5   F: -118.211987024941024   dF: -3.330e-04   |Residual|: 9.351e-03   |deigs|: 4.328e-03  t[s]:    182.17
	FillingsUpdate:  mu: -0.114629639  nElectrons: 73.000000  magneticMoment: [ Abs: 0.76310  Tot: +0.68000 ]
SCF: Cycle:  6   F: -118.212100010715119   dF: -1.130e-04   |Residual|: 5.995e-03   |deigs|: 5.558e-03  t[s]:    198.25
	FillingsUpdate:  mu: -0.110057151  nElectrons: 73.000000  magneticMoment: [ Abs: 0.76113  Tot: +0.68000 ]
SCF: Cycle:  7   F: -118.212077089402001   dF: +2.292e-05   |Residual|: 4.843e-03   |deigs|: 5.773e-03  t[s]:    214.44
	FillingsUpdate:  mu: -0.105780078  nElectrons: 73.000000  magneticMoment: [ Abs: 0.76299  Tot: +0.68000 ]
SCF: Cycle:  8   F: -118.212141248533072   dF: -6.416e-05   |Residual|: 3.953e-03   |deigs|: 4.316e-03  t[s]:    230.71
	FillingsUpdate:  mu: -0.102821349  nElectrons: 73.000000  magneticMoment: [ Abs: 0.76026  Tot: +0.68000 ]
SCF: Cycle:  9   F: -118.212186821113477   dF: -4.557e-05   |Residual|: 3.045e-03   |deigs|: 3.117e-03  t[s]:    246.90
	FillingsUpdate:  mu: -0.100605590  nElectrons: 73.000000  magneticMoment: [ Abs: 0.76116  Tot: +0.68000 ]
SCF: Cycle: 10   F: -118.212212011864054   dF: -2.519e-05   |Residual|: 2.644e-03   |deigs|: 2.326e-03  t[s]:    263.22
	FillingsUpdate:  mu: -0.097541792  nElectrons: 73.000000  magneticMoment: [ Abs: 0.76144  Tot: +0.68000 ]
SCF: Cycle: 11   F: -118.212229302451888   dF: -1.729e-05   |Residual|: 2.147e-03   |deigs|: 2.897e-03  t[s]:    279.62
	FillingsUpdate:  mu: -0.095164078  nElectrons: 73.000000  magneticMoment: [ Abs: 0.76040  Tot: +0.68000 ]
SCF: Cycle: 12   F: -118.212235760951884   dF: -6.458e-06   |Residual|: 1.959e-03   |deigs|: 2.189e-03  t[s]:    296.11
	FillingsUpdate:  mu: -0.091598807  nElectrons: 73.000000  magneticMoment: [ Abs: 0.76163  Tot: +0.68000 ]
SCF: Cycle: 13   F: -118.212238885009867   dF: -3.124e-06   |Residual|: 1.678e-03   |deigs|: 3.412e-03  t[s]:    312.39
	FillingsUpdate:  mu: -0.088030589  nElectrons: 73.000000  magneticMoment: [ Abs: 0.75984  Tot: +0.68000 ]
SCF: Cycle: 14   F: -118.212238077528269   dF: +8.075e-07   |Residual|: 1.657e-03   |deigs|: 3.121e-03  t[s]:    328.57
	FillingsUpdate:  mu: -0.084158522  nElectrons: 73.000000  magneticMoment: [ Abs: 0.76126  Tot: +0.68000 ]
SCF: Cycle: 15   F: -118.212238776009656   dF: -6.985e-07   |Residual|: 1.468e-03   |deigs|: 3.517e-03  t[s]:    344.91
	FillingsUpdate:  mu: -0.080330370  nElectrons: 73.000000  magneticMoment: [ Abs: 0.76118  Tot: +0.68000 ]
SCF: Cycle: 16   F: -118.212241697756710   dF: -2.922e-06   |Residual|: 1.195e-03   |deigs|: 3.582e-03  t[s]:    361.23
	FillingsUpdate:  mu: -0.078346666  nElectrons: 73.000000  magneticMoment: [ Abs: 0.75973  Tot: +0.68000 ]
SCF: Cycle: 17   F: -118.212246792542075   dF: -5.095e-06   |Residual|: 9.139e-04   |deigs|: 1.731e-03  t[s]:    377.46
	FillingsUpdate:  mu: -0.077235905  nElectrons: 73.000000  magneticMoment: [ Abs: 0.75946  Tot: +0.68000 ]
SCF: Cycle: 18   F: -118.212249616637123   dF: -2.824e-06   |Residual|: 5.796e-04   |deigs|: 1.238e-03  t[s]:    393.75
	FillingsUpdate:  mu: -0.076752943  nElectrons: 73.000000  magneticMoment: [ Abs: 0.75928  Tot: +0.68000 ]
SCF: Cycle: 19   F: -118.212250362361999   dF: -7.457e-07   |Residual|: 3.652e-04   |deigs|: 4.907e-04  t[s]:    410.06
	FillingsUpdate:  mu: -0.076437656  nElectrons: 73.000000  magneticMoment: [ Abs: 0.75935  Tot: +0.68000 ]
SCF: Cycle: 20   F: -118.212250740370806   dF: -3.780e-07   |Residual|: 2.386e-04   |deigs|: 5.749e-04  t[s]:    426.52
	FillingsUpdate:  mu: -0.076222713  nElectrons: 73.000000  magneticMoment: [ Abs: 0.75918  Tot: +0.68000 ]
SCF: Cycle: 21   F: -118.212250950719692   dF: -2.103e-07   |Residual|: 1.551e-04   |deigs|: 4.268e-04  t[s]:    442.89
	FillingsUpdate:  mu: -0.076015460  nElectrons: 73.000000  magneticMoment: [ Abs: 0.75905  Tot: +0.68000 ]
SCF: Cycle: 22   F: -118.212251069724388   dF: -1.190e-07   |Residual|: 8.034e-05   |deigs|: 9.447e-04  t[s]:    459.21
	FillingsUpdate:  mu: -0.075942569  nElectrons: 73.000000  magneticMoment: [ Abs: 0.75898  Tot: +0.68000 ]
SCF: Cycle: 23   F: -118.212251099795225   dF: -3.007e-08   |Residual|: 5.708e-05   |deigs|: 1.710e-04  t[s]:    475.51
	FillingsUpdate:  mu: -0.075886207  nElectrons: 73.000000  magneticMoment: [ Abs: 0.75894  Tot: +0.68000 ]
SCF: Cycle: 24   F: -118.212251116106444   dF: -1.631e-08   |Residual|: 3.310e-05   |deigs|: 2.342e-04  t[s]:    491.98
	FillingsUpdate:  mu: -0.075860277  nElectrons: 73.000000  magneticMoment: [ Abs: 0.75892  Tot: +0.68000 ]
SCF: Cycle: 25   F: -118.212251121773591   dF: -5.667e-09   |Residual|: 1.964e-05   |deigs|: 2.950e-04  t[s]:    508.55
	FillingsUpdate:  mu: -0.075850638  nElectrons: 73.000000  magneticMoment: [ Abs: 0.75890  Tot: +0.68000 ]
SCF: Cycle: 26   F: -118.212251123941257   dF: -2.168e-09   |Residual|: 1.151e-05   |deigs|: 1.375e-04  t[s]:    524.90
SCF: Converged (|Delta E|<1.000000e-08 for 2 iters).


# Ionic positions in lattice coordinates:
ion C  -0.000000000000000   0.000000000000000   0.000000000000000 1
ion N   0.108900118656067   0.217800237312134   0.000000000000000 1
ion N   0.111440932313158   0.555720466156579   0.000000000000000 1
ion N   0.108900118656067   0.891099881343933   0.000000000000000 1
ion N   0.444600551142632   0.222300275571316   0.000000000000000 1
ion N   0.444279533843421   0.555720466156579   0.000000000000000 1
ion N   0.444279533843421   0.888559067686842   0.000000000000000 1
ion N   0.777699724428684   0.222300275571316   0.000000000000000 1
ion N   0.777699724428684   0.555399448857368   0.000000000000000 1
ion N   0.782199762687866   0.891099881343933   0.000000000000000 1
ion B  -0.000409163333578   0.332352225367090   0.000000000000000 1
ion B  -0.000409163333578   0.667238611299332   0.000000000000000 1
ion B   0.332761388700668   0.000409163333578   0.000000000000000 1
ion B   0.332761388700668   0.332352225367090   0.000000000000000 1
ion B   0.333333333333333   0.666666666666667   0.000000000000000 1
ion B   0.667647774632910   0.000409163333578   0.000000000000000 1
ion B   0.666666666666667   0.333333333333333   0.000000000000000 1
ion B   0.667647774632910   0.667238611299332   0.000000000000000 1

# Forces in Lattice coordinates:
force C  -0.000000000000000  -0.000000000000000   0.000000000000000 1
force N  -0.000000000000000  -0.059791320372919   0.000000000000000 1
force N   0.007345935605769  -0.000000000000000   0.000000000000000 1
force N  -0.059791320372922   0.059791320372922  -0.000000000000000 1
force N  -0.008305270829184   0.000000000000000   0.000000000000000 1
force N  -0.007345935605769   0.007345935605769   0.000000000000000 1
force N   0.000000000000000  -0.007345935605769  -0.000000000000000 1
force N   0.008305270829184  -0.008305270829184   0.000000000000000 1
force N   0.000000000000000   0.008305270829184   0.000000000000000 1
force N   0.059791320372918  -0.000000000000000  -0.000000000000000 1
force B  -0.022910718367334   0.016776627253651   0.000000000000000 1
force B  -0.006134091113684  -0.016776627253651   0.000000000000000 1
force B   0.016776627253651   0.006134091113683  -0.000000000000000 1
force B   0.022910718367334  -0.006134091113684  -0.000000000000000 1
force B   0.000000000000000   0.000000000000000   0.000000000000000 1
force B  -0.016776627253650   0.022910718367334   0.000000000000000 1
force B   0.000000000000000   0.000000000000000   0.000000000000000 1
force B   0.006134091113684  -0.022910718367334   0.000000000000000 1

# Energy components:
   Eewald =     -185.5884594997991428
       EH =      -93.0254867327519435
     Eloc =      115.4572402225718832
      Enl =       -5.2765531567966519
   Epulay =       -0.0000011688465181
      Exc =      -33.7524608455626094
       KE =       83.9734709659558121
-------------------------------------
     Etot =     -118.2122502152291474
       TS =        0.0000009087121054
-------------------------------------
        F =     -118.2122511239412574

IonicMinimize: Iter:   0  F: -118.212251123941257  |grad|_K:  1.299e-03  t[s]:    526.28
IonicMinimize: None of the convergence criteria satisfied after 0 iterations.

#--- Lowdin population analysis ---
# oxidation-state C +0.271
# magnetic-moments C +0.401
# oxidation-state N -0.265 -0.372 -0.265 -0.376 -0.372 -0.372 -0.376 -0.376 -0.265
# magnetic-moments N +0.004 -0.002 +0.004 +0.017 -0.002 -0.002 +0.017 +0.017 +0.004
# oxidation-state B +0.430 +0.430 +0.430 +0.430 +0.430 +0.430 +0.426 +0.430
# magnetic-moments B +0.031 +0.031 +0.031 +0.031 +0.008 +0.031 +0.011 +0.031

End date and time: Sun Feb  6 19:50:22 2022  (Duration: 0-0:08:46.62)
Done!
