magnetization is 0.3
--------------------------------------------------------------------------
The library attempted to open the following supporting CUDA libraries,
but each of them failed.  CUDA-aware support is disabled.
libcuda.so.1: cannot open shared object file: No such file or directory
libcuda.dylib: cannot open shared object file: No such file or directory
/usr/lib64/libcuda.so.1: cannot open shared object file: No such file or directory
/usr/lib64/libcuda.dylib: cannot open shared object file: No such file or directory
If you are not interested in CUDA-aware support, then run with
--mca opal_warn_on_missing_libcuda 0 to suppress this message.  If you are interested
in CUDA-aware support, then try setting LD_LIBRARY_PATH to the location
of libcuda.so.1 to get passed this issue.
--------------------------------------------------------------------------
--------------------------------------------------------------------------
No OpenFabrics connection schemes reported that they were able to be
used on a specific port.  As such, the openib BTL (OpenFabrics
support) will be disabled for this port.

  Local host:           d-3-1-2
  Local device:         mlx5_1
  Local port:           1
  CPCs attempted:       rdmacm, udcm
--------------------------------------------------------------------------

*************** JDFTx 1.6.0 (git hash 42ebbcc2) ***************

Start date and time: Sun Feb  6 19:33:22 2022
Executable jdftx with command-line: -i BN33BC.in
Running on hosts (process indices):  d-3-1-2 (0-37)
Divided in process groups (process indices):  0 (0)  1 (1)  2 (2)  3 (3)  4 (4)  5 (5)  6 (6)  7 (7)  8 (8)  9 (9)  10 (10)  11 (11)  12 (12)  13 (13)  14 (14)  15 (15)  16 (16)  17 (17)  18 (18)  19 (19)  20 (20)  21 (21)  22 (22)  23 (23)  24 (24)  25 (25)  26 (26)  27 (27)  28 (28)  29 (29)  30 (30)  31 (31)  32 (32)  33 (33)  34 (34)  35 (35)  36 (36)  37 (37)
Resource initialization completed at t[s]:      0.00
Run totals: 38 processes, 48 threads, 0 GPUs


Input parsed successfully to the following command list (including defaults):

basis kpoint-dependent
coords-type Lattice
core-overlap-check vector
coulomb-interaction Slab 001
davidson-band-ratio 1.1
dump End None
dump-name $INPUT.$VAR
elec-cutoff 20
elec-eigen-algo Davidson
elec-ex-corr gga-PBE
elec-initial-magnetization 0.300000 yes
elec-smearing Fermi 1e-05
electronic-minimize  \
	dirUpdateScheme      FletcherReeves \
	linminMethod         DirUpdateRecommended \
	nIterations          100 \
	history              15 \
	knormThreshold       0 \
	energyDiffThreshold  1e-08 \
	nEnergyDiff          2 \
	alphaTstart          1 \
	alphaTmin            1e-10 \
	updateTestStepSize   yes \
	alphaTreduceFactor   0.1 \
	alphaTincreaseFactor 3 \
	nAlphaAdjustMax      3 \
	wolfeEnergy          0.0001 \
	wolfeGradient        0.9 \
	fdTest               no
electronic-scf  \
	nIterations	1000 \
	energyDiffThreshold	1e-08 \
	residualThreshold	1e-07 \
	mixFraction	0.5 \
	qMetric	0.8 \
	history	10 \
	nEigSteps	2 \
	eigDiffThreshold	1e-08 \
	mixedVariable	Density \
	qKerker	0.8 \
	qKappa	-1 \
	verbose	no \
	mixFractionMag	1.5
exchange-regularization WignerSeitzTruncated
fluid None
fluid-ex-corr (null) lda-PZ
fluid-gummel-loop 10 1.000000e-05
fluid-minimize  \
	dirUpdateScheme      PolakRibiere \
	linminMethod         DirUpdateRecommended \
	nIterations          100 \
	history              15 \
	knormThreshold       0 \
	energyDiffThreshold  0 \
	nEnergyDiff          2 \
	alphaTstart          1 \
	alphaTmin            1e-10 \
	updateTestStepSize   yes \
	alphaTreduceFactor   0.1 \
	alphaTincreaseFactor 3 \
	nAlphaAdjustMax      3 \
	wolfeEnergy          0.0001 \
	wolfeGradient        0.9 \
	fdTest               no
fluid-solvent H2O 55.338 ScalarEOS \
	epsBulk 78.4 \
	pMol 0.92466 \
	epsInf 1.77 \
	Pvap 1.06736e-10 \
	sigmaBulk 4.62e-05 \
	Rvdw 2.61727 \
	Res 1.42 \
	tauNuc 343133 \
	poleEl 15 7 1
forces-output-coords Positions
ion C   0.000000000000000  -0.000000000000000   0.000000000000000 1
ion N   0.108900118656067   0.217800237312134   0.000000000000000 1
ion N   0.111440932313158   0.555720466156579   0.000000000000000 1
ion N   0.108900118656067   0.891099881343933   0.000000000000000 1
ion N   0.444600551142632   0.222300275571316   0.000000000000000 1
ion N   0.444279533843421   0.555720466156579   0.000000000000000 1
ion N   0.444279533843421   0.888559067686842   0.000000000000000 1
ion N   0.777699724428684   0.222300275571316   0.000000000000000 1
ion N   0.777699724428684   0.555399448857368   0.000000000000000 1
ion N   0.782199762687866   0.891099881343933   0.000000000000000 1
ion B  -0.000409163333578   0.332352225367090  -0.000000000000000 1
ion B  -0.000409163333578   0.667238611299332  -0.000000000000000 1
ion B   0.332761388700668   0.000409163333578   0.000000000000000 1
ion B   0.332761388700668   0.332352225367090  -0.000000000000000 1
ion B   0.333333333333333   0.666666666666667   0.000000000000000 1
ion B   0.667647774632910   0.000409163333578   0.000000000000000 1
ion B   0.666666666666667   0.333333333333333   0.000000000000000 1
ion B   0.667647774632910   0.667238611299332   0.000000000000000 1
ion-species SG15/$ID_ONCV_PBE.upf
ion-width 0
ionic-minimize  \
	dirUpdateScheme      L-BFGS \
	linminMethod         DirUpdateRecommended \
	nIterations          0 \
	history              15 \
	knormThreshold       0.0001 \
	energyDiffThreshold  1e-06 \
	nEnergyDiff          2 \
	alphaTstart          1 \
	alphaTmin            1e-10 \
	updateTestStepSize   yes \
	alphaTreduceFactor   0.1 \
	alphaTincreaseFactor 3 \
	nAlphaAdjustMax      3 \
	wolfeEnergy          0.0001 \
	wolfeGradient        0.9 \
	fdTest               no
kpoint   0.000000000000   0.000000000000   0.000000000000  1.00000000000000
kpoint-folding 12 12 1 
latt-move-scale 1 1 1
latt-scale 1 1 1 
lattice  \
	  14.116397090998559   -7.058198545499275    0.000000000000000  \
	  -0.000000000000000   12.225158490713497    0.000000000000000  \
	   0.000000000000000    0.000000000000000   40.000000000000000 
lattice-minimize  \
	dirUpdateScheme      L-BFGS \
	linminMethod         DirUpdateRecommended \
	nIterations          0 \
	history              15 \
	knormThreshold       0 \
	energyDiffThreshold  1e-06 \
	nEnergyDiff          2 \
	alphaTstart          1 \
	alphaTmin            1e-10 \
	updateTestStepSize   yes \
	alphaTreduceFactor   0.1 \
	alphaTincreaseFactor 3 \
	nAlphaAdjustMax      3 \
	wolfeEnergy          0.0001 \
	wolfeGradient        0.9 \
	fdTest               no
lcao-params -1 1e-06 1e-05
pcm-variant GLSSA13
spintype z-spin
subspace-rotation-factor 1 yes
symmetries automatic
symmetry-threshold 0.0001



---------- Setting up symmetries ----------

Found 24 point-group symmetries of the bravais lattice
Found 12 space-group symmetries with basis
Applied RMS atom displacement 2.54347e-15 bohrs to make symmetries exact.

---------- Initializing the Grid ----------
R = 
[      14.1164      -7.0582            0  ]
[            0      12.2252            0  ]
[            0            0           40  ]
unit cell volume = 6903.01
G =
[   0.445098   0.256978         -0  ]
[          0   0.513955         -0  ]
[         -0         -0    0.15708  ]
Minimum fftbox size, Smin = [  60  60  164  ]
Chosen fftbox size, S = [  60  60  168  ]

---------- Exchange Correlation functional ----------
Initalized PBE GGA exchange.
Initalized PBE GGA correlation.

---------- Setting up pseudopotentials ----------
Width of ionic core gaussian charges (only for fluid interactions / plotting) set to 0

Reading pseudopotential file '/home/gridsan/aligho/DFT/build-Nov24/pseudopotentials/SG15/C_ONCV_PBE.upf':
  'C' pseudopotential, 'PBE' functional
  Generated using ONCVPSP code by D. R. Hamann
  Author: Martin Schlipf and Francois Gygi  Date: 150915.
  4 valence electrons, 2 orbitals, 4 projectors, 1248 radial grid points, with lMax = 1
  Transforming local potential to a uniform radial grid of dG=0.02 with 1495 points.
  Transforming nonlocal projectors to a uniform radial grid of dG=0.02 with 432 points.
    2S    l: 0   occupation:  2.0   eigenvalue: -0.505335
    2P    l: 1   occupation:  2.0   eigenvalue: -0.194238
  Transforming atomic orbitals to a uniform radial grid of dG=0.02 with 432 points.
  Core radius for overlap checks: 1.23 bohrs.
  Reading pulay file /home/gridsan/aligho/DFT/build-Nov24/pseudopotentials/SG15/C_ONCV_PBE.pulay ... using dE_dnG = -9.239532e-03 computed for Ecut = 20.

Reading pseudopotential file '/home/gridsan/aligho/DFT/build-Nov24/pseudopotentials/SG15/N_ONCV_PBE.upf':
  'N' pseudopotential, 'PBE' functional
  Generated using ONCVPSP code by D. R. Hamann
  Author: Martin Schlipf and Francois Gygi  Date: 150915.
  5 valence electrons, 2 orbitals, 4 projectors, 1058 radial grid points, with lMax = 1
  Transforming local potential to a uniform radial grid of dG=0.02 with 1495 points.
  Transforming nonlocal projectors to a uniform radial grid of dG=0.02 with 432 points.
    2S    l: 0   occupation:  2.0   eigenvalue: -0.682907
    2P    l: 1   occupation:  3.0   eigenvalue: -0.260548
  Transforming atomic orbitals to a uniform radial grid of dG=0.02 with 432 points.
  Core radius for overlap checks: 1.35 bohrs.
  Reading pulay file /home/gridsan/aligho/DFT/build-Nov24/pseudopotentials/SG15/N_ONCV_PBE.pulay ... using dE_dnG = -2.956256e-02 computed for Ecut = 20.

Reading pseudopotential file '/home/gridsan/aligho/DFT/build-Nov24/pseudopotentials/SG15/B_ONCV_PBE.upf':
  'B' pseudopotential, 'PBE' functional
  Generated using ONCVPSP code by D. R. Hamann
  Author: Martin Schlipf and Francois Gygi  Date: 150915.
  3 valence electrons, 2 orbitals, 4 projectors, 1534 radial grid points, with lMax = 1
  Transforming local potential to a uniform radial grid of dG=0.02 with 1495 points.
  Transforming nonlocal projectors to a uniform radial grid of dG=0.02 with 432 points.
    2S    l: 0   occupation:  2.0   eigenvalue: -0.347027
    2P    l: 1   occupation:  1.0   eigenvalue: -0.132548
  Transforming atomic orbitals to a uniform radial grid of dG=0.02 with 432 points.
  Core radius for overlap checks: 1.60 bohrs.
  Reading pulay file /home/gridsan/aligho/DFT/build-Nov24/pseudopotentials/SG15/B_ONCV_PBE.pulay ... using dE_dnG = -3.748568e-04 computed for Ecut = 20.

Initialized 3 species with 18 total atoms.

Folded 1 k-points by 12x12x1 to 144 k-points.

---------- Setting up k-points, bands, fillings ----------
Adding inversion symmetry to k-mesh for non-inversion-symmetric unit cell.
Reduced to 19 k-points under symmetry. 
Computing the number of bands and number of electrons
Calculating initial fillings.
nElectrons:  73.000000   nBands: 72   nStates: 38

----- Setting up reduced wavefunction bases (one per k-point) -----
average nbasis = 29490.146 , ideal nbasis = 29490.175

---------- Setting up coulomb interaction ----------
Initialized slab truncation along lattice direction 001

---------- Setting up 2D ewald sum ----------
Optimum gaussian width for ewald sums = 7.836854 bohr.
Real space sums over 289 unit cells with max indices [  8  8  0  ]
Reciprocal space sums over 81 terms with max indices [  4  4  0  ]

---------- Allocating electronic variables ----------
Initializing wave functions:  linear combination of atomic orbitals
C pseudo-atom occupations:   s ( 2 )  p ( 2 )
N pseudo-atom occupations:   s ( 2 )  p ( 3 )
B pseudo-atom occupations:   s ( 2 )  p ( 1 )
[d-3-1-2:23302] 37 more processes have sent help message help-mpi-common-cuda.txt / dlopen failed
[d-3-1-2:23302] Set MCA parameter "orte_base_help_aggregate" to 0 to see all help / error messages
[d-3-1-2:23302] 37 more processes have sent help message help-mpi-btl-openib-cpc-base.txt / no cpcs for port
	FillingsUpdate:  mu: -0.192946275  nElectrons: 73.000000  magneticMoment: [ Abs: 0.31256  Tot: +0.30000 ]
LCAOMinimize: Iter:   0  F: -116.5111628438832838  |grad|_K:  4.495e-03  alpha:  1.000e+00
	FillingsUpdate:  mu: -0.224076181  nElectrons: 73.000000  magneticMoment: [ Abs: 0.31484  Tot: +0.30000 ]
LCAOMinimize: Iter:   1  F: -117.1838743342540283  |grad|_K:  1.067e-03  alpha:  3.995e-01  linmin:  1.695e-01  cgtest: -5.866e-01  t[s]:     25.22
	FillingsUpdate:  mu: -0.184796988  nElectrons: 73.000000  magneticMoment: [ Abs: 0.31596  Tot: +0.30000 ]
LCAOMinimize: Iter:   2  F: -117.2005029095050048  |grad|_K:  6.449e-04  alpha:  2.501e-01  linmin:  2.061e-03  cgtest:  7.523e-01  t[s]:     32.87
LCAOMinimize: Encountered beta<0, resetting CG.
	FillingsUpdate:  mu: -0.168791753  nElectrons: 73.000000  magneticMoment: [ Abs: 0.31658  Tot: +0.30000 ]
LCAOMinimize: Iter:   3  F: -117.2148188745723587  |grad|_K:  1.221e-04  alpha:  3.411e-01  linmin:  1.227e-02  cgtest: -7.231e-02  t[s]:     40.51
	FillingsUpdate:  mu: -0.173886592  nElectrons: 73.000000  magneticMoment: [ Abs: 0.31686  Tot: +0.30000 ]
LCAOMinimize: Iter:   4  F: -117.2153344995121955  |grad|_K:  1.264e-05  alpha:  3.462e-01  linmin:  1.744e-02  cgtest:  1.663e-01  t[s]:     48.28
LCAOMinimize: Encountered beta<0, resetting CG.
	FillingsUpdate:  mu: -0.174227117  nElectrons: 73.000000  magneticMoment: [ Abs: 0.31744  Tot: +0.30000 ]
LCAOMinimize: Iter:   5  F: -117.2153410684551744  |grad|_K:  5.726e-06  alpha:  4.063e-01  linmin:  1.839e-04  cgtest: -1.652e-03  t[s]:     55.88
	FillingsUpdate:  mu: -0.173967137  nElectrons: 73.000000  magneticMoment: [ Abs: 0.32105  Tot: +0.30000 ]
LCAOMinimize: Iter:   6  F: -117.2153436381273650  |grad|_K:  3.403e-06  alpha:  7.732e-01  linmin: -1.119e-03  cgtest:  8.444e-03  t[s]:     63.57
	FillingsUpdate:  mu: -0.174085710  nElectrons: 73.000000  magneticMoment: [ Abs: 0.32341  Tot: +0.30000 ]
LCAOMinimize: Iter:   7  F: -117.2153442723208201  |grad|_K:  9.590e-07  alpha:  5.388e-01  linmin:  4.893e-05  cgtest: -1.574e-02  t[s]:     71.23
	FillingsUpdate:  mu: -0.174073158  nElectrons: 73.000000  magneticMoment: [ Abs: 0.32407  Tot: +0.30000 ]
LCAOMinimize: Iter:   8  F: -117.2153443394628738  |grad|_K:  5.076e-07  alpha:  7.215e-01  linmin:  1.514e-03  cgtest: -3.529e-03  t[s]:     78.96
LCAOMinimize: Converged (|Delta F|<1.000000e-06 for 2 iters).


---- Citations for features of the code used in this run ----

   Software package:
      R. Sundararaman, K. Letchworth-Weaver, K.A. Schwarz, D. Gunceler, Y. Ozhabes and T.A. Arias, 'JDFTx: software for joint density-functional theory', SoftwareX 6, 278 (2017)

   gga-PBE exchange-correlation functional:
      J.P. Perdew, K. Burke and M. Ernzerhof, Phys. Rev. Lett. 77, 3865 (1996)

   Pseudopotentials:
      M Schlipf and F Gygi, Comput. Phys. Commun. 196, 36 (2015)

   Truncated Coulomb potentials:
      R. Sundararaman and T.A. Arias, Phys. Rev. B 87, 165122 (2013)

This list may not be complete. Please suggest additional citations or
report any other bugs at https://github.com/shankar1729/jdftx/issues

Initialization completed successfully at t[s]:     79.73


-------- Electronic minimization -----------
Will mix electronic density at each iteration.
	FillingsUpdate:  mu: -0.174073158  nElectrons: 73.000000  magneticMoment: [ Abs: 0.32407  Tot: +0.30000 ]
	FillingsUpdate:  mu: -0.191731651  nElectrons: 73.000000  magneticMoment: [ Abs: 0.32407  Tot: +0.30000 ]
SCF: Cycle:  0   F: -118.141207481031714   dF: -9.259e-01   |Residual|: 3.365e-01   |deigs|: 1.136e-01  t[s]:    100.51
	FillingsUpdate:  mu: -0.170048224  nElectrons: 73.000000  magneticMoment: [ Abs: 0.33324  Tot: +0.30000 ]
SCF: Cycle:  1   F: -118.180620232113171   dF: -3.941e-02   |Residual|: 1.876e-01   |deigs|: 2.532e-02  t[s]:    115.98
	FillingsUpdate:  mu: -0.141165887  nElectrons: 73.000000  magneticMoment: [ Abs: 0.33983  Tot: +0.30000 ]
SCF: Cycle:  2   F: -118.206307008591807   dF: -2.569e-02   |Residual|: 4.081e-02   |deigs|: 2.999e-02  t[s]:    131.48
	FillingsUpdate:  mu: -0.137702827  nElectrons: 73.000000  magneticMoment: [ Abs: 0.34061  Tot: +0.30000 ]
SCF: Cycle:  3   F: -118.207093811041844   dF: -7.868e-04   |Residual|: 2.257e-02   |deigs|: 7.951e-03  t[s]:    147.06
	FillingsUpdate:  mu: -0.125841189  nElectrons: 73.000000  magneticMoment: [ Abs: 0.33577  Tot: +0.30000 ]
SCF: Cycle:  4   F: -118.208564940196197   dF: -1.471e-03   |Residual|: 1.196e-02   |deigs|: 1.064e-02  t[s]:    162.71
	FillingsUpdate:  mu: -0.120585993  nElectrons: 73.000000  magneticMoment: [ Abs: 0.34134  Tot: +0.30000 ]
SCF: Cycle:  5   F: -118.208860810372116   dF: -2.959e-04   |Residual|: 8.322e-03   |deigs|: 4.458e-03  t[s]:    178.49
	FillingsUpdate:  mu: -0.114570274  nElectrons: 73.000000  magneticMoment: [ Abs: 0.33649  Tot: +0.30000 ]
SCF: Cycle:  6   F: -118.208933723700753   dF: -7.291e-05   |Residual|: 5.886e-03   |deigs|: 5.869e-03  t[s]:    194.22
	FillingsUpdate:  mu: -0.110226317  nElectrons: 73.000000  magneticMoment: [ Abs: 0.33615  Tot: +0.30000 ]
SCF: Cycle:  7   F: -118.208931352209291   dF: +2.371e-06   |Residual|: 4.738e-03   |deigs|: 5.159e-03  t[s]:    209.97
	FillingsUpdate:  mu: -0.105949662  nElectrons: 73.000000  magneticMoment: [ Abs: 0.33679  Tot: +0.30000 ]
SCF: Cycle:  8   F: -118.208998112000643   dF: -6.676e-05   |Residual|: 3.843e-03   |deigs|: 4.348e-03  t[s]:    225.86
	FillingsUpdate:  mu: -0.103448871  nElectrons: 73.000000  magneticMoment: [ Abs: 0.33502  Tot: +0.30000 ]
SCF: Cycle:  9   F: -118.209035786090794   dF: -3.767e-05   |Residual|: 3.010e-03   |deigs|: 2.672e-03  t[s]:    241.78
	FillingsUpdate:  mu: -0.100625015  nElectrons: 73.000000  magneticMoment: [ Abs: 0.33712  Tot: +0.30000 ]
SCF: Cycle: 10   F: -118.209064433936561   dF: -2.865e-05   |Residual|: 2.598e-03   |deigs|: 2.885e-03  t[s]:    257.81
	FillingsUpdate:  mu: -0.097950075  nElectrons: 73.000000  magneticMoment: [ Abs: 0.33570  Tot: +0.30000 ]
SCF: Cycle: 11   F: -118.209078631295881   dF: -1.420e-05   |Residual|: 2.113e-03   |deigs|: 2.515e-03  t[s]:    273.81
	FillingsUpdate:  mu: -0.095375023  nElectrons: 73.000000  magneticMoment: [ Abs: 0.33526  Tot: +0.30000 ]
SCF: Cycle: 12   F: -118.209084539392293   dF: -5.908e-06   |Residual|: 1.888e-03   |deigs|: 2.376e-03  t[s]:    289.81
	FillingsUpdate:  mu: -0.091606372  nElectrons: 73.000000  magneticMoment: [ Abs: 0.33620  Tot: +0.30000 ]
SCF: Cycle: 13   F: -118.209086323632761   dF: -1.784e-06   |Residual|: 1.677e-03   |deigs|: 3.542e-03  t[s]:    305.83
	FillingsUpdate:  mu: -0.088347586  nElectrons: 73.000000  magneticMoment: [ Abs: 0.33517  Tot: +0.30000 ]
SCF: Cycle: 14   F: -118.209086427931794   dF: -1.043e-07   |Residual|: 1.617e-03   |deigs|: 2.885e-03  t[s]:    321.83
	FillingsUpdate:  mu: -0.084128855  nElectrons: 73.000000  magneticMoment: [ Abs: 0.33619  Tot: +0.30000 ]
SCF: Cycle: 15   F: -118.209086087408110   dF: +3.405e-07   |Residual|: 1.467e-03   |deigs|: 3.927e-03  t[s]:    337.91
	FillingsUpdate:  mu: -0.080706577  nElectrons: 73.000000  magneticMoment: [ Abs: 0.33537  Tot: +0.30000 ]
SCF: Cycle: 16   F: -118.209091100220860   dF: -5.013e-06   |Residual|: 1.102e-03   |deigs|: 3.124e-03  t[s]:    354.01
	FillingsUpdate:  mu: -0.078482135  nElectrons: 73.000000  magneticMoment: [ Abs: 0.33491  Tot: +0.30000 ]
SCF: Cycle: 17   F: -118.209095745564909   dF: -4.645e-06   |Residual|: 8.025e-04   |deigs|: 1.963e-03  t[s]:    370.08
	FillingsUpdate:  mu: -0.077496026  nElectrons: 73.000000  magneticMoment: [ Abs: 0.33483  Tot: +0.30000 ]
SCF: Cycle: 18   F: -118.209098116271548   dF: -2.371e-06   |Residual|: 4.631e-04   |deigs|: 9.133e-04  t[s]:    386.05
	FillingsUpdate:  mu: -0.077025517  nElectrons: 73.000000  magneticMoment: [ Abs: 0.33463  Tot: +0.30000 ]
SCF: Cycle: 19   F: -118.209098811075094   dF: -6.948e-07   |Residual|: 2.395e-04   |deigs|: 5.983e-04  t[s]:    402.09
	FillingsUpdate:  mu: -0.076863579  nElectrons: 73.000000  magneticMoment: [ Abs: 0.33446  Tot: +0.30000 ]
SCF: Cycle: 20   F: -118.209098953166702   dF: -1.421e-07   |Residual|: 1.500e-04   |deigs|: 3.293e-04  t[s]:    418.06
	FillingsUpdate:  mu: -0.076740150  nElectrons: 73.000000  magneticMoment: [ Abs: 0.33440  Tot: +0.30000 ]
SCF: Cycle: 21   F: -118.209099025784695   dF: -7.262e-08   |Residual|: 8.241e-05   |deigs|: 5.331e-04  t[s]:    434.10
	FillingsUpdate:  mu: -0.076669920  nElectrons: 73.000000  magneticMoment: [ Abs: 0.33435  Tot: +0.30000 ]
SCF: Cycle: 22   F: -118.209099052788432   dF: -2.700e-08   |Residual|: 5.037e-05   |deigs|: 5.547e-04  t[s]:    450.19
	FillingsUpdate:  mu: -0.076640628  nElectrons: 73.000000  magneticMoment: [ Abs: 0.33432  Tot: +0.30000 ]
SCF: Cycle: 23   F: -118.209099064397307   dF: -1.161e-08   |Residual|: 3.228e-05   |deigs|: 1.882e-04  t[s]:    466.24
	FillingsUpdate:  mu: -0.076611313  nElectrons: 73.000000  magneticMoment: [ Abs: 0.33431  Tot: +0.30000 ]
SCF: Cycle: 24   F: -118.209099072074125   dF: -7.677e-09   |Residual|: 2.033e-05   |deigs|: 1.740e-04  t[s]:    482.38
	FillingsUpdate:  mu: -0.076604598  nElectrons: 73.000000  magneticMoment: [ Abs: 0.33430  Tot: +0.30000 ]
SCF: Cycle: 25   F: -118.209099075095864   dF: -3.022e-09   |Residual|: 1.327e-05   |deigs|: 4.006e-04  t[s]:    498.42
SCF: Converged (|Delta E|<1.000000e-08 for 2 iters).


# Ionic positions in lattice coordinates:
ion C  -0.000000000000000   0.000000000000000   0.000000000000000 1
ion N   0.108900118656067   0.217800237312134   0.000000000000000 1
ion N   0.111440932313158   0.555720466156579   0.000000000000000 1
ion N   0.108900118656067   0.891099881343933   0.000000000000000 1
ion N   0.444600551142632   0.222300275571316   0.000000000000000 1
ion N   0.444279533843421   0.555720466156579   0.000000000000000 1
ion N   0.444279533843421   0.888559067686842   0.000000000000000 1
ion N   0.777699724428684   0.222300275571316   0.000000000000000 1
ion N   0.777699724428684   0.555399448857368   0.000000000000000 1
ion N   0.782199762687866   0.891099881343933   0.000000000000000 1
ion B  -0.000409163333578   0.332352225367090   0.000000000000000 1
ion B  -0.000409163333578   0.667238611299332   0.000000000000000 1
ion B   0.332761388700668   0.000409163333578   0.000000000000000 1
ion B   0.332761388700668   0.332352225367090   0.000000000000000 1
ion B   0.333333333333333   0.666666666666667   0.000000000000000 1
ion B   0.667647774632910   0.000409163333578   0.000000000000000 1
ion B   0.666666666666667   0.333333333333333   0.000000000000000 1
ion B   0.667647774632910   0.667238611299332   0.000000000000000 1

# Forces in Lattice coordinates:
force C   0.000000000000000  -0.000000000000000   0.000000000000000 1
force N   0.000000000000000  -0.096056476891137   0.000000000000000 1
force N   0.009642020445637   0.000000000000000  -0.000000000000000 1
force N  -0.096056476891139   0.096056476891139   0.000000000000000 1
force N  -0.011748578100055  -0.000000000000000   0.000000000000000 1
force N  -0.009642020445637   0.009642020445637   0.000000000000000 1
force N   0.000000000000000  -0.009642020445637  -0.000000000000000 1
force N   0.011748578100055  -0.011748578100055   0.000000000000000 1
force N  -0.000000000000000   0.011748578100055  -0.000000000000000 1
force N   0.096056476891137   0.000000000000000   0.000000000000000 1
force B  -0.031901994138106   0.026904685333640   0.000000000000000 1
force B  -0.004997308804467  -0.026904685333640  -0.000000000000000 1
force B   0.026904685333639   0.004997308804467   0.000000000000000 1
force B   0.031901994138106  -0.004997308804467  -0.000000000000000 1
force B  -0.000000000000000  -0.000000000000000   0.000000000000000 1
force B  -0.026904685333639   0.031901994138106   0.000000000000000 1
force B  -0.000000000000000   0.000000000000000   0.000000000000000 1
force B   0.004997308804467  -0.031901994138106   0.000000000000000 1

# Energy components:
   Eewald =     -185.5884594997991428
       EH =      -93.0504734224998344
     Eloc =      115.4904355089752244
      Enl =       -5.2709423698876012
   Epulay =       -0.0000011688465181
      Exc =      -33.7438431306417641
       KE =       83.9541857521880104
-------------------------------------
     Etot =     -118.2090983305116367
       TS =        0.0000007445842320
-------------------------------------
        F =     -118.2090990750958639

IonicMinimize: Iter:   0  F: -118.209099075095864  |grad|_K:  2.043e-03  t[s]:    499.87
IonicMinimize: None of the convergence criteria satisfied after 0 iterations.

#--- Lowdin population analysis ---
# oxidation-state C +0.265
# magnetic-moments C +0.180
# oxidation-state N -0.260 -0.371 -0.260 -0.375 -0.371 -0.371 -0.375 -0.375 -0.260
# magnetic-moments N +0.002 -0.001 +0.002 +0.008 -0.001 -0.001 +0.008 +0.008 +0.002
# oxidation-state B +0.429 +0.429 +0.429 +0.429 +0.428 +0.429 +0.424 +0.429
# magnetic-moments B +0.013 +0.013 +0.013 +0.013 +0.002 +0.013 +0.003 +0.013

End date and time: Sun Feb  6 19:41:42 2022  (Duration: 0-0:08:20.23)
Done!
