magnetization is 0.24
--------------------------------------------------------------------------
The library attempted to open the following supporting CUDA libraries,
but each of them failed.  CUDA-aware support is disabled.
libcuda.so.1: cannot open shared object file: No such file or directory
libcuda.dylib: cannot open shared object file: No such file or directory
/usr/lib64/libcuda.so.1: cannot open shared object file: No such file or directory
/usr/lib64/libcuda.dylib: cannot open shared object file: No such file or directory
If you are not interested in CUDA-aware support, then run with
--mca opal_warn_on_missing_libcuda 0 to suppress this message.  If you are interested
in CUDA-aware support, then try setting LD_LIBRARY_PATH to the location
of libcuda.so.1 to get passed this issue.
--------------------------------------------------------------------------
--------------------------------------------------------------------------
No OpenFabrics connection schemes reported that they were able to be
used on a specific port.  As such, the openib BTL (OpenFabrics
support) will be disabled for this port.

  Local host:           d-16-11-1
  Local device:         mlx5_1
  Local port:           1
  CPCs attempted:       rdmacm, udcm
--------------------------------------------------------------------------

*************** JDFTx 1.6.0 (git hash 42ebbcc2) ***************

Start date and time: Sun Feb  6 19:33:22 2022
Executable jdftx with command-line: -i BN33BC.in
Running on hosts (process indices):  d-16-11-1 (0-37)
Divided in process groups (process indices):  0 (0)  1 (1)  2 (2)  3 (3)  4 (4)  5 (5)  6 (6)  7 (7)  8 (8)  9 (9)  10 (10)  11 (11)  12 (12)  13 (13)  14 (14)  15 (15)  16 (16)  17 (17)  18 (18)  19 (19)  20 (20)  21 (21)  22 (22)  23 (23)  24 (24)  25 (25)  26 (26)  27 (27)  28 (28)  29 (29)  30 (30)  31 (31)  32 (32)  33 (33)  34 (34)  35 (35)  36 (36)  37 (37)
Resource initialization completed at t[s]:      0.00
Run totals: 38 processes, 48 threads, 0 GPUs


Input parsed successfully to the following command list (including defaults):

basis kpoint-dependent
coords-type Lattice
core-overlap-check vector
coulomb-interaction Slab 001
davidson-band-ratio 1.1
dump End None
dump-name $INPUT.$VAR
elec-cutoff 20
elec-eigen-algo Davidson
elec-ex-corr gga-PBE
elec-initial-magnetization 0.240000 yes
elec-smearing Fermi 1e-05
electronic-minimize  \
	dirUpdateScheme      FletcherReeves \
	linminMethod         DirUpdateRecommended \
	nIterations          100 \
	history              15 \
	knormThreshold       0 \
	energyDiffThreshold  1e-08 \
	nEnergyDiff          2 \
	alphaTstart          1 \
	alphaTmin            1e-10 \
	updateTestStepSize   yes \
	alphaTreduceFactor   0.1 \
	alphaTincreaseFactor 3 \
	nAlphaAdjustMax      3 \
	wolfeEnergy          0.0001 \
	wolfeGradient        0.9 \
	fdTest               no
electronic-scf  \
	nIterations	1000 \
	energyDiffThreshold	1e-08 \
	residualThreshold	1e-07 \
	mixFraction	0.5 \
	qMetric	0.8 \
	history	10 \
	nEigSteps	2 \
	eigDiffThreshold	1e-08 \
	mixedVariable	Density \
	qKerker	0.8 \
	qKappa	-1 \
	verbose	no \
	mixFractionMag	1.5
exchange-regularization WignerSeitzTruncated
fluid None
fluid-ex-corr (null) lda-PZ
fluid-gummel-loop 10 1.000000e-05
fluid-minimize  \
	dirUpdateScheme      PolakRibiere \
	linminMethod         DirUpdateRecommended \
	nIterations          100 \
	history              15 \
	knormThreshold       0 \
	energyDiffThreshold  0 \
	nEnergyDiff          2 \
	alphaTstart          1 \
	alphaTmin            1e-10 \
	updateTestStepSize   yes \
	alphaTreduceFactor   0.1 \
	alphaTincreaseFactor 3 \
	nAlphaAdjustMax      3 \
	wolfeEnergy          0.0001 \
	wolfeGradient        0.9 \
	fdTest               no
fluid-solvent H2O 55.338 ScalarEOS \
	epsBulk 78.4 \
	pMol 0.92466 \
	epsInf 1.77 \
	Pvap 1.06736e-10 \
	sigmaBulk 4.62e-05 \
	Rvdw 2.61727 \
	Res 1.42 \
	tauNuc 343133 \
	poleEl 15 7 1
forces-output-coords Positions
ion C   0.000000000000000  -0.000000000000000   0.000000000000000 1
ion N   0.108900118656067   0.217800237312134   0.000000000000000 1
ion N   0.111440932313158   0.555720466156579   0.000000000000000 1
ion N   0.108900118656067   0.891099881343933   0.000000000000000 1
ion N   0.444600551142632   0.222300275571316   0.000000000000000 1
ion N   0.444279533843421   0.555720466156579   0.000000000000000 1
ion N   0.444279533843421   0.888559067686842   0.000000000000000 1
ion N   0.777699724428684   0.222300275571316   0.000000000000000 1
ion N   0.777699724428684   0.555399448857368   0.000000000000000 1
ion N   0.782199762687866   0.891099881343933   0.000000000000000 1
ion B  -0.000409163333578   0.332352225367090  -0.000000000000000 1
ion B  -0.000409163333578   0.667238611299332  -0.000000000000000 1
ion B   0.332761388700668   0.000409163333578   0.000000000000000 1
ion B   0.332761388700668   0.332352225367090  -0.000000000000000 1
ion B   0.333333333333333   0.666666666666667   0.000000000000000 1
ion B   0.667647774632910   0.000409163333578   0.000000000000000 1
ion B   0.666666666666667   0.333333333333333   0.000000000000000 1
ion B   0.667647774632910   0.667238611299332   0.000000000000000 1
ion-species SG15/$ID_ONCV_PBE.upf
ion-width 0
ionic-minimize  \
	dirUpdateScheme      L-BFGS \
	linminMethod         DirUpdateRecommended \
	nIterations          0 \
	history              15 \
	knormThreshold       0.0001 \
	energyDiffThreshold  1e-06 \
	nEnergyDiff          2 \
	alphaTstart          1 \
	alphaTmin            1e-10 \
	updateTestStepSize   yes \
	alphaTreduceFactor   0.1 \
	alphaTincreaseFactor 3 \
	nAlphaAdjustMax      3 \
	wolfeEnergy          0.0001 \
	wolfeGradient        0.9 \
	fdTest               no
kpoint   0.000000000000   0.000000000000   0.000000000000  1.00000000000000
kpoint-folding 12 12 1 
latt-move-scale 1 1 1
latt-scale 1 1 1 
lattice  \
	  14.116397090998559   -7.058198545499275    0.000000000000000  \
	  -0.000000000000000   12.225158490713497    0.000000000000000  \
	   0.000000000000000    0.000000000000000   40.000000000000000 
lattice-minimize  \
	dirUpdateScheme      L-BFGS \
	linminMethod         DirUpdateRecommended \
	nIterations          0 \
	history              15 \
	knormThreshold       0 \
	energyDiffThreshold  1e-06 \
	nEnergyDiff          2 \
	alphaTstart          1 \
	alphaTmin            1e-10 \
	updateTestStepSize   yes \
	alphaTreduceFactor   0.1 \
	alphaTincreaseFactor 3 \
	nAlphaAdjustMax      3 \
	wolfeEnergy          0.0001 \
	wolfeGradient        0.9 \
	fdTest               no
lcao-params -1 1e-06 1e-05
pcm-variant GLSSA13
spintype z-spin
subspace-rotation-factor 1 yes
symmetries automatic
symmetry-threshold 0.0001



---------- Setting up symmetries ----------

Found 24 point-group symmetries of the bravais lattice
Found 12 space-group symmetries with basis
Applied RMS atom displacement 2.54347e-15 bohrs to make symmetries exact.

---------- Initializing the Grid ----------
R = 
[      14.1164      -7.0582            0  ]
[            0      12.2252            0  ]
[            0            0           40  ]
unit cell volume = 6903.01
G =
[   0.445098   0.256978         -0  ]
[          0   0.513955         -0  ]
[         -0         -0    0.15708  ]
Minimum fftbox size, Smin = [  60  60  164  ]
Chosen fftbox size, S = [  60  60  168  ]

---------- Exchange Correlation functional ----------
Initalized PBE GGA exchange.
Initalized PBE GGA correlation.

---------- Setting up pseudopotentials ----------
Width of ionic core gaussian charges (only for fluid interactions / plotting) set to 0

Reading pseudopotential file '/home/gridsan/aligho/DFT/build-Nov24/pseudopotentials/SG15/C_ONCV_PBE.upf':
  'C' pseudopotential, 'PBE' functional
  Generated using ONCVPSP code by D. R. Hamann
  Author: Martin Schlipf and Francois Gygi  Date: 150915.
  4 valence electrons, 2 orbitals, 4 projectors, 1248 radial grid points, with lMax = 1
  Transforming local potential to a uniform radial grid of dG=0.02 with 1495 points.
  Transforming nonlocal projectors to a uniform radial grid of dG=0.02 with 432 points.
    2S    l: 0   occupation:  2.0   eigenvalue: -0.505335
    2P    l: 1   occupation:  2.0   eigenvalue: -0.194238
  Transforming atomic orbitals to a uniform radial grid of dG=0.02 with 432 points.
  Core radius for overlap checks: 1.23 bohrs.
  Reading pulay file /home/gridsan/aligho/DFT/build-Nov24/pseudopotentials/SG15/C_ONCV_PBE.pulay ... using dE_dnG = -9.239532e-03 computed for Ecut = 20.

Reading pseudopotential file '/home/gridsan/aligho/DFT/build-Nov24/pseudopotentials/SG15/N_ONCV_PBE.upf':
  'N' pseudopotential, 'PBE' functional
  Generated using ONCVPSP code by D. R. Hamann
  Author: Martin Schlipf and Francois Gygi  Date: 150915.
  5 valence electrons, 2 orbitals, 4 projectors, 1058 radial grid points, with lMax = 1
  Transforming local potential to a uniform radial grid of dG=0.02 with 1495 points.
  Transforming nonlocal projectors to a uniform radial grid of dG=0.02 with 432 points.
    2S    l: 0   occupation:  2.0   eigenvalue: -0.682907
    2P    l: 1   occupation:  3.0   eigenvalue: -0.260548
  Transforming atomic orbitals to a uniform radial grid of dG=0.02 with 432 points.
  Core radius for overlap checks: 1.35 bohrs.
  Reading pulay file /home/gridsan/aligho/DFT/build-Nov24/pseudopotentials/SG15/N_ONCV_PBE.pulay ... using dE_dnG = -2.956256e-02 computed for Ecut = 20.

Reading pseudopotential file '/home/gridsan/aligho/DFT/build-Nov24/pseudopotentials/SG15/B_ONCV_PBE.upf':
  'B' pseudopotential, 'PBE' functional
  Generated using ONCVPSP code by D. R. Hamann
  Author: Martin Schlipf and Francois Gygi  Date: 150915.
  3 valence electrons, 2 orbitals, 4 projectors, 1534 radial grid points, with lMax = 1
  Transforming local potential to a uniform radial grid of dG=0.02 with 1495 points.
  Transforming nonlocal projectors to a uniform radial grid of dG=0.02 with 432 points.
    2S    l: 0   occupation:  2.0   eigenvalue: -0.347027
    2P    l: 1   occupation:  1.0   eigenvalue: -0.132548
  Transforming atomic orbitals to a uniform radial grid of dG=0.02 with 432 points.
  Core radius for overlap checks: 1.60 bohrs.
  Reading pulay file /home/gridsan/aligho/DFT/build-Nov24/pseudopotentials/SG15/B_ONCV_PBE.pulay ... using dE_dnG = -3.748568e-04 computed for Ecut = 20.

Initialized 3 species with 18 total atoms.

Folded 1 k-points by 12x12x1 to 144 k-points.

---------- Setting up k-points, bands, fillings ----------
Adding inversion symmetry to k-mesh for non-inversion-symmetric unit cell.
Reduced to 19 k-points under symmetry. 
Computing the number of bands and number of electrons
Calculating initial fillings.
nElectrons:  73.000000   nBands: 72   nStates: 38

----- Setting up reduced wavefunction bases (one per k-point) -----
average nbasis = 29490.146 , ideal nbasis = 29490.175

---------- Setting up coulomb interaction ----------
Initialized slab truncation along lattice direction 001

---------- Setting up 2D ewald sum ----------
Optimum gaussian width for ewald sums = 7.836854 bohr.
Real space sums over 289 unit cells with max indices [  8  8  0  ]
Reciprocal space sums over 81 terms with max indices [  4  4  0  ]

---------- Allocating electronic variables ----------
Initializing wave functions:  linear combination of atomic orbitals
C pseudo-atom occupations:   s ( 2 )  p ( 2 )
N pseudo-atom occupations:   s ( 2 )  p ( 3 )
B pseudo-atom occupations:   s ( 2 )  p ( 1 )
[d-16-11-1:91373] 37 more processes have sent help message help-mpi-common-cuda.txt / dlopen failed
[d-16-11-1:91373] Set MCA parameter "orte_base_help_aggregate" to 0 to see all help / error messages
[d-16-11-1:91373] 37 more processes have sent help message help-mpi-btl-openib-cpc-base.txt / no cpcs for port
	FillingsUpdate:  mu: -0.192850682  nElectrons: 73.000000  magneticMoment: [ Abs: 0.25090  Tot: +0.24000 ]
LCAOMinimize: Iter:   0  F: -116.5099433174363810  |grad|_K:  4.498e-03  alpha:  1.000e+00
	FillingsUpdate:  mu: -0.224747357  nElectrons: 73.000000  magneticMoment: [ Abs: 0.25229  Tot: +0.24000 ]
LCAOMinimize: Iter:   1  F: -117.1832895789490721  |grad|_K:  1.077e-03  alpha:  3.992e-01  linmin:  9.055e-02  cgtest: -5.827e-01  t[s]:     25.05
	FillingsUpdate:  mu: -0.185346835  nElectrons: 73.000000  magneticMoment: [ Abs: 0.25400  Tot: +0.24000 ]
LCAOMinimize: Iter:   2  F: -117.2001322369028884  |grad|_K:  6.476e-04  alpha:  2.490e-01  linmin:  1.934e-03  cgtest:  7.533e-01  t[s]:     32.67
LCAOMinimize: Encountered beta<0, resetting CG.
	FillingsUpdate:  mu: -0.169317545  nElectrons: 73.000000  magneticMoment: [ Abs: 0.25624  Tot: +0.24000 ]
LCAOMinimize: Iter:   3  F: -117.2145342550174831  |grad|_K:  1.231e-04  alpha:  3.403e-01  linmin:  1.162e-02  cgtest: -7.153e-02  t[s]:     40.38
	FillingsUpdate:  mu: -0.174341120  nElectrons: 73.000000  magneticMoment: [ Abs: 0.25862  Tot: +0.24000 ]
LCAOMinimize: Iter:   4  F: -117.2150580632542329  |grad|_K:  1.231e-05  alpha:  3.457e-01  linmin:  1.883e-02  cgtest:  1.680e-01  t[s]:     47.95
LCAOMinimize: Encountered beta<0, resetting CG.
	FillingsUpdate:  mu: -0.174667225  nElectrons: 73.000000  magneticMoment: [ Abs: 0.26097  Tot: +0.24000 ]
LCAOMinimize: Iter:   5  F: -117.2150640230096883  |grad|_K:  5.099e-06  alpha:  3.885e-01  linmin:  1.780e-04  cgtest: -1.609e-03  t[s]:     55.47
	FillingsUpdate:  mu: -0.174434321  nElectrons: 73.000000  magneticMoment: [ Abs: 0.26543  Tot: +0.24000 ]
LCAOMinimize: Iter:   6  F: -117.2150660114070462  |grad|_K:  3.087e-06  alpha:  7.548e-01  linmin: -8.139e-04  cgtest:  6.332e-03  t[s]:     63.14
	FillingsUpdate:  mu: -0.174535848  nElectrons: 73.000000  magneticMoment: [ Abs: 0.26779  Tot: +0.24000 ]
LCAOMinimize: Iter:   7  F: -117.2150665527982341  |grad|_K:  9.281e-07  alpha:  5.596e-01  linmin:  9.575e-05  cgtest: -1.167e-02  t[s]:     70.75
	FillingsUpdate:  mu: -0.174524559  nElectrons: 73.000000  magneticMoment: [ Abs: 0.26843  Tot: +0.24000 ]
LCAOMinimize: Iter:   8  F: -117.2150666148848330  |grad|_K:  5.057e-07  alpha:  7.124e-01  linmin:  1.808e-04  cgtest:  5.005e-04  t[s]:     78.36
LCAOMinimize: Converged (|Delta F|<1.000000e-06 for 2 iters).


---- Citations for features of the code used in this run ----

   Software package:
      R. Sundararaman, K. Letchworth-Weaver, K.A. Schwarz, D. Gunceler, Y. Ozhabes and T.A. Arias, 'JDFTx: software for joint density-functional theory', SoftwareX 6, 278 (2017)

   gga-PBE exchange-correlation functional:
      J.P. Perdew, K. Burke and M. Ernzerhof, Phys. Rev. Lett. 77, 3865 (1996)

   Pseudopotentials:
      M Schlipf and F Gygi, Comput. Phys. Commun. 196, 36 (2015)

   Truncated Coulomb potentials:
      R. Sundararaman and T.A. Arias, Phys. Rev. B 87, 165122 (2013)

This list may not be complete. Please suggest additional citations or
report any other bugs at https://github.com/shankar1729/jdftx/issues

Initialization completed successfully at t[s]:     79.15


-------- Electronic minimization -----------
Will mix electronic density at each iteration.
	FillingsUpdate:  mu: -0.174524559  nElectrons: 73.000000  magneticMoment: [ Abs: 0.26843  Tot: +0.24000 ]
	FillingsUpdate:  mu: -0.191601630  nElectrons: 73.000000  magneticMoment: [ Abs: 0.26843  Tot: +0.24000 ]
SCF: Cycle:  0   F: -118.140888604166918   dF: -9.258e-01   |Residual|: 3.365e-01   |deigs|: 1.136e-01  t[s]:     99.92
	FillingsUpdate:  mu: -0.170161393  nElectrons: 73.000000  magneticMoment: [ Abs: 0.27025  Tot: +0.24000 ]
SCF: Cycle:  1   F: -118.180330010560269   dF: -3.944e-02   |Residual|: 1.876e-01   |deigs|: 2.532e-02  t[s]:    115.20
	FillingsUpdate:  mu: -0.141443850  nElectrons: 73.000000  magneticMoment: [ Abs: 0.27273  Tot: +0.24000 ]
SCF: Cycle:  2   F: -118.206036476912729   dF: -2.571e-02   |Residual|: 4.075e-02   |deigs|: 2.999e-02  t[s]:    130.78
	FillingsUpdate:  mu: -0.137960652  nElectrons: 73.000000  magneticMoment: [ Abs: 0.27260  Tot: +0.24000 ]
SCF: Cycle:  3   F: -118.206825256127388   dF: -7.888e-04   |Residual|: 2.262e-02   |deigs|: 7.897e-03  t[s]:    146.16
	FillingsUpdate:  mu: -0.125958035  nElectrons: 73.000000  magneticMoment: [ Abs: 0.26827  Tot: +0.24000 ]
SCF: Cycle:  4   F: -118.208301840393474   dF: -1.477e-03   |Residual|: 1.196e-02   |deigs|: 1.074e-02  t[s]:    161.65
	FillingsUpdate:  mu: -0.120695151  nElectrons: 73.000000  magneticMoment: [ Abs: 0.27496  Tot: +0.24000 ]
SCF: Cycle:  5   F: -118.208592738399432   dF: -2.909e-04   |Residual|: 8.165e-03   |deigs|: 4.462e-03  t[s]:    177.25
	FillingsUpdate:  mu: -0.114569251  nElectrons: 73.000000  magneticMoment: [ Abs: 0.26948  Tot: +0.24000 ]
SCF: Cycle:  6   F: -118.208652665245197   dF: -5.993e-05   |Residual|: 5.839e-03   |deigs|: 6.134e-03  t[s]:    192.99
	FillingsUpdate:  mu: -0.110333949  nElectrons: 73.000000  magneticMoment: [ Abs: 0.26927  Tot: +0.24000 ]
SCF: Cycle:  7   F: -118.208660769090315   dF: -8.104e-06   |Residual|: 4.728e-03   |deigs|: 4.859e-03  t[s]:    208.64
	FillingsUpdate:  mu: -0.105919579  nElectrons: 73.000000  magneticMoment: [ Abs: 0.26988  Tot: +0.24000 ]
SCF: Cycle:  8   F: -118.208730327194871   dF: -6.956e-05   |Residual|: 3.843e-03   |deigs|: 4.497e-03  t[s]:    224.45
	FillingsUpdate:  mu: -0.103639227  nElectrons: 73.000000  magneticMoment: [ Abs: 0.26766  Tot: +0.24000 ]
SCF: Cycle:  9   F: -118.208765648020332   dF: -3.532e-05   |Residual|: 3.010e-03   |deigs|: 2.471e-03  t[s]:    240.50
	FillingsUpdate:  mu: -0.100765967  nElectrons: 73.000000  magneticMoment: [ Abs: 0.27034  Tot: +0.24000 ]
SCF: Cycle: 10   F: -118.208793399627965   dF: -2.775e-05   |Residual|: 2.628e-03   |deigs|: 2.916e-03  t[s]:    256.55
	FillingsUpdate:  mu: -0.098052970  nElectrons: 73.000000  magneticMoment: [ Abs: 0.26860  Tot: +0.24000 ]
SCF: Cycle: 11   F: -118.208807997980841   dF: -1.460e-05   |Residual|: 2.109e-03   |deigs|: 2.529e-03  t[s]:    272.62
	FillingsUpdate:  mu: -0.095620036  nElectrons: 73.000000  magneticMoment: [ Abs: 0.26814  Tot: +0.24000 ]
SCF: Cycle: 12   F: -118.208813300165545   dF: -5.302e-06   |Residual|: 1.895e-03   |deigs|: 2.252e-03  t[s]:    288.67
	FillingsUpdate:  mu: -0.091623960  nElectrons: 73.000000  magneticMoment: [ Abs: 0.26845  Tot: +0.24000 ]
SCF: Cycle: 13   F: -118.208815273585230   dF: -1.973e-06   |Residual|: 1.675e-03   |deigs|: 3.715e-03  t[s]:    304.51
	FillingsUpdate:  mu: -0.088343168  nElectrons: 73.000000  magneticMoment: [ Abs: 0.26808  Tot: +0.24000 ]
SCF: Cycle: 14   F: -118.208815719863949   dF: -4.463e-07   |Residual|: 1.630e-03   |deigs|: 2.889e-03  t[s]:    320.48
	FillingsUpdate:  mu: -0.084650707  nElectrons: 73.000000  magneticMoment: [ Abs: 0.26939  Tot: +0.24000 ]
SCF: Cycle: 15   F: -118.208816534404036   dF: -8.145e-07   |Residual|: 1.515e-03   |deigs|: 3.338e-03  t[s]:    336.58
	FillingsUpdate:  mu: -0.081182506  nElectrons: 73.000000  magneticMoment: [ Abs: 0.26930  Tot: +0.24000 ]
SCF: Cycle: 16   F: -118.208820892261627   dF: -4.358e-06   |Residual|: 1.084e-03   |deigs|: 3.229e-03  t[s]:    352.53
	FillingsUpdate:  mu: -0.078896895  nElectrons: 73.000000  magneticMoment: [ Abs: 0.26858  Tot: +0.24000 ]
SCF: Cycle: 17   F: -118.208824023758595   dF: -3.131e-06   |Residual|: 8.941e-04   |deigs|: 2.045e-03  t[s]:    368.52
	FillingsUpdate:  mu: -0.077758810  nElectrons: 73.000000  magneticMoment: [ Abs: 0.26798  Tot: +0.24000 ]
SCF: Cycle: 18   F: -118.208826909540676   dF: -2.886e-06   |Residual|: 5.145e-04   |deigs|: 9.746e-04  t[s]:    384.45
	FillingsUpdate:  mu: -0.077096204  nElectrons: 73.000000  magneticMoment: [ Abs: 0.26775  Tot: +0.24000 ]
SCF: Cycle: 19   F: -118.208827906361833   dF: -9.968e-07   |Residual|: 2.905e-04   |deigs|: 8.646e-04  t[s]:    400.41
	FillingsUpdate:  mu: -0.076935913  nElectrons: 73.000000  magneticMoment: [ Abs: 0.26767  Tot: +0.24000 ]
SCF: Cycle: 20   F: -118.208828074987764   dF: -1.686e-07   |Residual|: 1.497e-04   |deigs|: 3.723e-04  t[s]:    416.38
	FillingsUpdate:  mu: -0.076838192  nElectrons: 73.000000  magneticMoment: [ Abs: 0.26766  Tot: +0.24000 ]
SCF: Cycle: 21   F: -118.208828141800467   dF: -6.681e-08   |Residual|: 7.277e-05   |deigs|: 2.805e-04  t[s]:    432.26
	FillingsUpdate:  mu: -0.076814498  nElectrons: 73.000000  magneticMoment: [ Abs: 0.26756  Tot: +0.24000 ]
SCF: Cycle: 22   F: -118.208828163182758   dF: -2.138e-08   |Residual|: 4.219e-05   |deigs|: 4.072e-04  t[s]:    448.09
	FillingsUpdate:  mu: -0.076813875  nElectrons: 73.000000  magneticMoment: [ Abs: 0.26753  Tot: +0.24000 ]
SCF: Cycle: 23   F: -118.208828169209141   dF: -6.026e-09   |Residual|: 2.312e-05   |deigs|: 3.682e-04  t[s]:    464.10
	FillingsUpdate:  mu: -0.076816330  nElectrons: 73.000000  magneticMoment: [ Abs: 0.26751  Tot: +0.24000 ]
SCF: Cycle: 24   F: -118.208828171220148   dF: -2.011e-09   |Residual|: 1.406e-05   |deigs|: 3.393e-04  t[s]:    480.00
SCF: Converged (|Delta E|<1.000000e-08 for 2 iters).


# Ionic positions in lattice coordinates:
ion C  -0.000000000000000   0.000000000000000   0.000000000000000 1
ion N   0.108900118656067   0.217800237312134   0.000000000000000 1
ion N   0.111440932313158   0.555720466156579   0.000000000000000 1
ion N   0.108900118656067   0.891099881343933   0.000000000000000 1
ion N   0.444600551142632   0.222300275571316   0.000000000000000 1
ion N   0.444279533843421   0.555720466156579   0.000000000000000 1
ion N   0.444279533843421   0.888559067686842   0.000000000000000 1
ion N   0.777699724428684   0.222300275571316   0.000000000000000 1
ion N   0.777699724428684   0.555399448857368   0.000000000000000 1
ion N   0.782199762687866   0.891099881343933   0.000000000000000 1
ion B  -0.000409163333578   0.332352225367090   0.000000000000000 1
ion B  -0.000409163333578   0.667238611299332   0.000000000000000 1
ion B   0.332761388700668   0.000409163333578   0.000000000000000 1
ion B   0.332761388700668   0.332352225367090   0.000000000000000 1
ion B   0.333333333333333   0.666666666666667   0.000000000000000 1
ion B   0.667647774632910   0.000409163333578   0.000000000000000 1
ion B   0.666666666666667   0.333333333333333   0.000000000000000 1
ion B   0.667647774632910   0.667238611299332   0.000000000000000 1

# Forces in Lattice coordinates:
force C   0.000000000000000  -0.000000000000000   0.000000000000000 1
force N   0.000000000000000  -0.097926589793484   0.000000000000000 1
force N   0.008505661399201  -0.000000000000000   0.000000000000000 1
force N  -0.097926589793483   0.097926589793485   0.000000000000000 1
force N  -0.011195261400050  -0.000000000000000   0.000000000000000 1
force N  -0.008505661399201   0.008505661399201   0.000000000000000 1
force N   0.000000000000000  -0.008505661399201   0.000000000000000 1
force N   0.011195261400050  -0.011195261400051  -0.000000000000000 1
force N   0.000000000000000   0.011195261400051   0.000000000000000 1
force N   0.097926589793484   0.000000000000000   0.000000000000000 1
force B  -0.031261226120228   0.027882749287278   0.000000000000000 1
force B  -0.003378476832950  -0.027882749287278   0.000000000000000 1
force B   0.027882749287278   0.003378476832950   0.000000000000000 1
force B   0.031261226120228  -0.003378476832950   0.000000000000000 1
force B  -0.000000000000000   0.000000000000000   0.000000000000000 1
force B  -0.027882749287278   0.031261226120228   0.000000000000000 1
force B  -0.000000000000000  -0.000000000000000   0.000000000000000 1
force B   0.003378476832950  -0.031261226120228   0.000000000000000 1

# Energy components:
   Eewald =     -185.5884594997991428
       EH =      -93.0535357887442132
     Eloc =      115.4946142947777048
      Enl =       -5.2703910917723942
   Epulay =       -0.0000011688465181
      Exc =      -33.7430257945901388
       KE =       83.9519718575647431
-------------------------------------
     Etot =     -118.2088271914099522
       TS =        0.0000009798101901
-------------------------------------
        F =     -118.2088281712201479

IonicMinimize: Iter:   0  F: -118.208828171220148  |grad|_K:  2.072e-03  t[s]:    481.39
IonicMinimize: None of the convergence criteria satisfied after 0 iterations.

#--- Lowdin population analysis ---
# oxidation-state C +0.264
# magnetic-moments C +0.144
# oxidation-state N -0.260 -0.371 -0.260 -0.375 -0.371 -0.371 -0.375 -0.375 -0.260
# magnetic-moments N +0.001 -0.000 +0.001 +0.006 -0.000 -0.000 +0.006 +0.006 +0.001
# oxidation-state B +0.428 +0.428 +0.428 +0.428 +0.429 +0.428 +0.425 +0.428
# magnetic-moments B +0.010 +0.010 +0.010 +0.010 +0.004 +0.010 +0.005 +0.010

End date and time: Sun Feb  6 19:41:24 2022  (Duration: 0-0:08:01.71)
Done!
