magnetization is 0.98
--------------------------------------------------------------------------
The library attempted to open the following supporting CUDA libraries,
but each of them failed.  CUDA-aware support is disabled.
libcuda.so.1: cannot open shared object file: No such file or directory
libcuda.dylib: cannot open shared object file: No such file or directory
/usr/lib64/libcuda.so.1: cannot open shared object file: No such file or directory
/usr/lib64/libcuda.dylib: cannot open shared object file: No such file or directory
If you are not interested in CUDA-aware support, then run with
--mca opal_warn_on_missing_libcuda 0 to suppress this message.  If you are interested
in CUDA-aware support, then try setting LD_LIBRARY_PATH to the location
of libcuda.so.1 to get passed this issue.
--------------------------------------------------------------------------
--------------------------------------------------------------------------
No OpenFabrics connection schemes reported that they were able to be
used on a specific port.  As such, the openib BTL (OpenFabrics
support) will be disabled for this port.

  Local host:           d-3-10-4
  Local device:         mlx5_1
  Local port:           1
  CPCs attempted:       rdmacm, udcm
--------------------------------------------------------------------------

*************** JDFTx 1.6.0 (git hash 42ebbcc2) ***************

Start date and time: Sun Feb  6 19:50:17 2022
Executable jdftx with command-line: -i BN33BC.in
Running on hosts (process indices):  d-3-10-4 (0-37)
Divided in process groups (process indices):  0 (0)  1 (1)  2 (2)  3 (3)  4 (4)  5 (5)  6 (6)  7 (7)  8 (8)  9 (9)  10 (10)  11 (11)  12 (12)  13 (13)  14 (14)  15 (15)  16 (16)  17 (17)  18 (18)  19 (19)  20 (20)  21 (21)  22 (22)  23 (23)  24 (24)  25 (25)  26 (26)  27 (27)  28 (28)  29 (29)  30 (30)  31 (31)  32 (32)  33 (33)  34 (34)  35 (35)  36 (36)  37 (37)
Resource initialization completed at t[s]:      0.00
Run totals: 38 processes, 48 threads, 0 GPUs


Input parsed successfully to the following command list (including defaults):

basis kpoint-dependent
coords-type Lattice
core-overlap-check vector
coulomb-interaction Slab 001
davidson-band-ratio 1.1
dump End None
dump-name $INPUT.$VAR
elec-cutoff 20
elec-eigen-algo Davidson
elec-ex-corr gga-PBE
elec-initial-magnetization 0.980000 yes
elec-smearing Fermi 1e-05
electronic-minimize  \
	dirUpdateScheme      FletcherReeves \
	linminMethod         DirUpdateRecommended \
	nIterations          100 \
	history              15 \
	knormThreshold       0 \
	energyDiffThreshold  1e-08 \
	nEnergyDiff          2 \
	alphaTstart          1 \
	alphaTmin            1e-10 \
	updateTestStepSize   yes \
	alphaTreduceFactor   0.1 \
	alphaTincreaseFactor 3 \
	nAlphaAdjustMax      3 \
	wolfeEnergy          0.0001 \
	wolfeGradient        0.9 \
	fdTest               no
electronic-scf  \
	nIterations	1000 \
	energyDiffThreshold	1e-08 \
	residualThreshold	1e-07 \
	mixFraction	0.5 \
	qMetric	0.8 \
	history	10 \
	nEigSteps	2 \
	eigDiffThreshold	1e-08 \
	mixedVariable	Density \
	qKerker	0.8 \
	qKappa	-1 \
	verbose	no \
	mixFractionMag	1.5
exchange-regularization WignerSeitzTruncated
fluid None
fluid-ex-corr (null) lda-PZ
fluid-gummel-loop 10 1.000000e-05
fluid-minimize  \
	dirUpdateScheme      PolakRibiere \
	linminMethod         DirUpdateRecommended \
	nIterations          100 \
	history              15 \
	knormThreshold       0 \
	energyDiffThreshold  0 \
	nEnergyDiff          2 \
	alphaTstart          1 \
	alphaTmin            1e-10 \
	updateTestStepSize   yes \
	alphaTreduceFactor   0.1 \
	alphaTincreaseFactor 3 \
	nAlphaAdjustMax      3 \
	wolfeEnergy          0.0001 \
	wolfeGradient        0.9 \
	fdTest               no
fluid-solvent H2O 55.338 ScalarEOS \
	epsBulk 78.4 \
	pMol 0.92466 \
	epsInf 1.77 \
	Pvap 1.06736e-10 \
	sigmaBulk 4.62e-05 \
	Rvdw 2.61727 \
	Res 1.42 \
	tauNuc 343133 \
	poleEl 15 7 1
forces-output-coords Positions
ion C   0.000000000000000  -0.000000000000000   0.000000000000000 1
ion N   0.108900118656067   0.217800237312134   0.000000000000000 1
ion N   0.111440932313158   0.555720466156579   0.000000000000000 1
ion N   0.108900118656067   0.891099881343933   0.000000000000000 1
ion N   0.444600551142632   0.222300275571316   0.000000000000000 1
ion N   0.444279533843421   0.555720466156579   0.000000000000000 1
ion N   0.444279533843421   0.888559067686842   0.000000000000000 1
ion N   0.777699724428684   0.222300275571316   0.000000000000000 1
ion N   0.777699724428684   0.555399448857368   0.000000000000000 1
ion N   0.782199762687866   0.891099881343933   0.000000000000000 1
ion B  -0.000409163333578   0.332352225367090  -0.000000000000000 1
ion B  -0.000409163333578   0.667238611299332  -0.000000000000000 1
ion B   0.332761388700668   0.000409163333578   0.000000000000000 1
ion B   0.332761388700668   0.332352225367090  -0.000000000000000 1
ion B   0.333333333333333   0.666666666666667   0.000000000000000 1
ion B   0.667647774632910   0.000409163333578   0.000000000000000 1
ion B   0.666666666666667   0.333333333333333   0.000000000000000 1
ion B   0.667647774632910   0.667238611299332   0.000000000000000 1
ion-species SG15/$ID_ONCV_PBE.upf
ion-width 0
ionic-minimize  \
	dirUpdateScheme      L-BFGS \
	linminMethod         DirUpdateRecommended \
	nIterations          0 \
	history              15 \
	knormThreshold       0.0001 \
	energyDiffThreshold  1e-06 \
	nEnergyDiff          2 \
	alphaTstart          1 \
	alphaTmin            1e-10 \
	updateTestStepSize   yes \
	alphaTreduceFactor   0.1 \
	alphaTincreaseFactor 3 \
	nAlphaAdjustMax      3 \
	wolfeEnergy          0.0001 \
	wolfeGradient        0.9 \
	fdTest               no
kpoint   0.000000000000   0.000000000000   0.000000000000  1.00000000000000
kpoint-folding 12 12 1 
latt-move-scale 1 1 1
latt-scale 1 1 1 
lattice  \
	  14.116397090998559   -7.058198545499275    0.000000000000000  \
	  -0.000000000000000   12.225158490713497    0.000000000000000  \
	   0.000000000000000    0.000000000000000   40.000000000000000 
lattice-minimize  \
	dirUpdateScheme      L-BFGS \
	linminMethod         DirUpdateRecommended \
	nIterations          0 \
	history              15 \
	knormThreshold       0 \
	energyDiffThreshold  1e-06 \
	nEnergyDiff          2 \
	alphaTstart          1 \
	alphaTmin            1e-10 \
	updateTestStepSize   yes \
	alphaTreduceFactor   0.1 \
	alphaTincreaseFactor 3 \
	nAlphaAdjustMax      3 \
	wolfeEnergy          0.0001 \
	wolfeGradient        0.9 \
	fdTest               no
lcao-params -1 1e-06 1e-05
pcm-variant GLSSA13
spintype z-spin
subspace-rotation-factor 1 yes
symmetries automatic
symmetry-threshold 0.0001



---------- Setting up symmetries ----------

Found 24 point-group symmetries of the bravais lattice
Found 12 space-group symmetries with basis
Applied RMS atom displacement 2.54347e-15 bohrs to make symmetries exact.

---------- Initializing the Grid ----------
R = 
[      14.1164      -7.0582            0  ]
[            0      12.2252            0  ]
[            0            0           40  ]
unit cell volume = 6903.01
G =
[   0.445098   0.256978         -0  ]
[          0   0.513955         -0  ]
[         -0         -0    0.15708  ]
Minimum fftbox size, Smin = [  60  60  164  ]
Chosen fftbox size, S = [  60  60  168  ]

---------- Exchange Correlation functional ----------
Initalized PBE GGA exchange.
Initalized PBE GGA correlation.

---------- Setting up pseudopotentials ----------
Width of ionic core gaussian charges (only for fluid interactions / plotting) set to 0

Reading pseudopotential file '/home/gridsan/aligho/DFT/build-Nov24/pseudopotentials/SG15/C_ONCV_PBE.upf':
  'C' pseudopotential, 'PBE' functional
  Generated using ONCVPSP code by D. R. Hamann
  Author: Martin Schlipf and Francois Gygi  Date: 150915.
  4 valence electrons, 2 orbitals, 4 projectors, 1248 radial grid points, with lMax = 1
  Transforming local potential to a uniform radial grid of dG=0.02 with 1495 points.
  Transforming nonlocal projectors to a uniform radial grid of dG=0.02 with 432 points.
    2S    l: 0   occupation:  2.0   eigenvalue: -0.505335
    2P    l: 1   occupation:  2.0   eigenvalue: -0.194238
  Transforming atomic orbitals to a uniform radial grid of dG=0.02 with 432 points.
  Core radius for overlap checks: 1.23 bohrs.
  Reading pulay file /home/gridsan/aligho/DFT/build-Nov24/pseudopotentials/SG15/C_ONCV_PBE.pulay ... using dE_dnG = -9.239532e-03 computed for Ecut = 20.

Reading pseudopotential file '/home/gridsan/aligho/DFT/build-Nov24/pseudopotentials/SG15/N_ONCV_PBE.upf':
  'N' pseudopotential, 'PBE' functional
  Generated using ONCVPSP code by D. R. Hamann
  Author: Martin Schlipf and Francois Gygi  Date: 150915.
  5 valence electrons, 2 orbitals, 4 projectors, 1058 radial grid points, with lMax = 1
  Transforming local potential to a uniform radial grid of dG=0.02 with 1495 points.
  Transforming nonlocal projectors to a uniform radial grid of dG=0.02 with 432 points.
    2S    l: 0   occupation:  2.0   eigenvalue: -0.682907
    2P    l: 1   occupation:  3.0   eigenvalue: -0.260548
  Transforming atomic orbitals to a uniform radial grid of dG=0.02 with 432 points.
  Core radius for overlap checks: 1.35 bohrs.
  Reading pulay file /home/gridsan/aligho/DFT/build-Nov24/pseudopotentials/SG15/N_ONCV_PBE.pulay ... using dE_dnG = -2.956256e-02 computed for Ecut = 20.

Reading pseudopotential file '/home/gridsan/aligho/DFT/build-Nov24/pseudopotentials/SG15/B_ONCV_PBE.upf':
  'B' pseudopotential, 'PBE' functional
  Generated using ONCVPSP code by D. R. Hamann
  Author: Martin Schlipf and Francois Gygi  Date: 150915.
  3 valence electrons, 2 orbitals, 4 projectors, 1534 radial grid points, with lMax = 1
  Transforming local potential to a uniform radial grid of dG=0.02 with 1495 points.
  Transforming nonlocal projectors to a uniform radial grid of dG=0.02 with 432 points.
    2S    l: 0   occupation:  2.0   eigenvalue: -0.347027
    2P    l: 1   occupation:  1.0   eigenvalue: -0.132548
  Transforming atomic orbitals to a uniform radial grid of dG=0.02 with 432 points.
  Core radius for overlap checks: 1.60 bohrs.
  Reading pulay file /home/gridsan/aligho/DFT/build-Nov24/pseudopotentials/SG15/B_ONCV_PBE.pulay ... using dE_dnG = -3.748568e-04 computed for Ecut = 20.

Initialized 3 species with 18 total atoms.

Folded 1 k-points by 12x12x1 to 144 k-points.

---------- Setting up k-points, bands, fillings ----------
Adding inversion symmetry to k-mesh for non-inversion-symmetric unit cell.
Reduced to 19 k-points under symmetry. 
Computing the number of bands and number of electrons
Calculating initial fillings.
nElectrons:  73.000000   nBands: 72   nStates: 38

----- Setting up reduced wavefunction bases (one per k-point) -----
average nbasis = 29490.146 , ideal nbasis = 29490.175

---------- Setting up coulomb interaction ----------
Initialized slab truncation along lattice direction 001

---------- Setting up 2D ewald sum ----------
Optimum gaussian width for ewald sums = 7.836854 bohr.
Real space sums over 289 unit cells with max indices [  8  8  0  ]
Reciprocal space sums over 81 terms with max indices [  4  4  0  ]

---------- Allocating electronic variables ----------
Initializing wave functions:  linear combination of atomic orbitals
C pseudo-atom occupations:   s ( 2 )  p ( 2 )
N pseudo-atom occupations:   s ( 2 )  p ( 3 )
B pseudo-atom occupations:   s ( 2 )  p ( 1 )
[d-3-10-4:42940] 37 more processes have sent help message help-mpi-common-cuda.txt / dlopen failed
[d-3-10-4:42940] Set MCA parameter "orte_base_help_aggregate" to 0 to see all help / error messages
[d-3-10-4:42940] 37 more processes have sent help message help-mpi-btl-openib-cpc-base.txt / no cpcs for port
	FillingsUpdate:  mu: -0.191778420  nElectrons: 73.000000  magneticMoment: [ Abs: 1.02073  Tot: +0.98000 ]
LCAOMinimize: Iter:   0  F: -116.5406014183372605  |grad|_K:  4.422e-03  alpha:  1.000e+00
	FillingsUpdate:  mu: -0.211870566  nElectrons: 73.000000  magneticMoment: [ Abs: 1.03343  Tot: +0.98000 ]
LCAOMinimize: Iter:   1  F: -117.1962167282990066  |grad|_K:  9.215e-04  alpha:  4.011e-01  linmin:  1.642e-01  cgtest: -5.947e-01  t[s]:     25.30
	FillingsUpdate:  mu: -0.183196506  nElectrons: 73.000000  magneticMoment: [ Abs: 1.03768  Tot: +0.98000 ]
LCAOMinimize: Iter:   2  F: -117.2096507618464187  |grad|_K:  5.496e-04  alpha:  2.629e-01  linmin:  6.012e-04  cgtest:  7.349e-01  t[s]:     33.03
LCAOMinimize: Encountered beta<0, resetting CG.
	FillingsUpdate:  mu: -0.173209224  nElectrons: 73.000000  magneticMoment: [ Abs: 1.04229  Tot: +0.98000 ]
LCAOMinimize: Iter:   3  F: -117.2204621005286072  |grad|_K:  9.366e-05  alpha:  3.547e-01  linmin:  1.632e-02  cgtest: -6.809e-02  t[s]:     40.76
	FillingsUpdate:  mu: -0.176265306  nElectrons: 73.000000  magneticMoment: [ Abs: 1.04544  Tot: +0.98000 ]
LCAOMinimize: Iter:   4  F: -117.2207752826311804  |grad|_K:  1.292e-05  alpha:  3.576e-01  linmin:  1.142e-02  cgtest:  1.074e-01  t[s]:     48.49
	FillingsUpdate:  mu: -0.176492112  nElectrons: 73.000000  magneticMoment: [ Abs: 1.04951  Tot: +0.98000 ]
LCAOMinimize: Iter:   5  F: -117.2207866547056625  |grad|_K:  8.846e-06  alpha:  6.728e-01  linmin: -4.831e-04  cgtest:  5.781e-03  t[s]:     56.20
	FillingsUpdate:  mu: -0.176223173  nElectrons: 73.000000  magneticMoment: [ Abs: 1.05317  Tot: +0.98000 ]
LCAOMinimize: Iter:   6  F: -117.2207914056633911  |grad|_K:  3.303e-06  alpha:  5.991e-01  linmin: -1.018e-03  cgtest: -7.962e-03  t[s]:     63.89
	FillingsUpdate:  mu: -0.176308783  nElectrons: 73.000000  magneticMoment: [ Abs: 1.05385  Tot: +0.98000 ]
LCAOMinimize: Iter:   7  F: -117.2207918985387920  |grad|_K:  7.276e-07  alpha:  4.454e-01  linmin:  3.139e-05  cgtest: -9.306e-03  t[s]:     71.58
	FillingsUpdate:  mu: -0.176308875  nElectrons: 73.000000  magneticMoment: [ Abs: 1.05405  Tot: +0.98000 ]
LCAOMinimize: Iter:   8  F: -117.2207919453985454  |grad|_K:  2.392e-07  alpha:  8.755e-01  linmin:  2.171e-03  cgtest: -5.990e-03  t[s]:     79.27
LCAOMinimize: Converged (|Delta F|<1.000000e-06 for 2 iters).


---- Citations for features of the code used in this run ----

   Software package:
      R. Sundararaman, K. Letchworth-Weaver, K.A. Schwarz, D. Gunceler, Y. Ozhabes and T.A. Arias, 'JDFTx: software for joint density-functional theory', SoftwareX 6, 278 (2017)

   gga-PBE exchange-correlation functional:
      J.P. Perdew, K. Burke and M. Ernzerhof, Phys. Rev. Lett. 77, 3865 (1996)

   Pseudopotentials:
      M Schlipf and F Gygi, Comput. Phys. Commun. 196, 36 (2015)

   Truncated Coulomb potentials:
      R. Sundararaman and T.A. Arias, Phys. Rev. B 87, 165122 (2013)

This list may not be complete. Please suggest additional citations or
report any other bugs at https://github.com/shankar1729/jdftx/issues

Initialization completed successfully at t[s]:     80.06


-------- Electronic minimization -----------
Will mix electronic density at each iteration.
	FillingsUpdate:  mu: -0.176308875  nElectrons: 73.000000  magneticMoment: [ Abs: 1.05405  Tot: +0.98000 ]
	FillingsUpdate:  mu: -0.190784000  nElectrons: 73.000000  magneticMoment: [ Abs: 1.05405  Tot: +0.98000 ]
SCF: Cycle:  0   F: -118.148886886733607   dF: -9.281e-01   |Residual|: 3.373e-01   |deigs|: 1.139e-01  t[s]:    100.97
	FillingsUpdate:  mu: -0.169691447  nElectrons: 73.000000  magneticMoment: [ Abs: 1.10199  Tot: +0.98000 ]
SCF: Cycle:  1   F: -118.187691507510621   dF: -3.880e-02   |Residual|: 1.881e-01   |deigs|: 2.526e-02  t[s]:    116.57
	FillingsUpdate:  mu: -0.140173816  nElectrons: 73.000000  magneticMoment: [ Abs: 1.11808  Tot: +0.98000 ]
SCF: Cycle:  2   F: -118.213348044150322   dF: -2.566e-02   |Residual|: 4.109e-02   |deigs|: 2.994e-02  t[s]:    132.30
	FillingsUpdate:  mu: -0.137076367  nElectrons: 73.000000  magneticMoment: [ Abs: 1.12046  Tot: +0.98000 ]
SCF: Cycle:  3   F: -118.214155958770235   dF: -8.079e-04   |Residual|: 2.312e-02   |deigs|: 7.892e-03  t[s]:    148.10
	FillingsUpdate:  mu: -0.126298268  nElectrons: 73.000000  magneticMoment: [ Abs: 1.10144  Tot: +0.98000 ]
SCF: Cycle:  4   F: -118.215493689572881   dF: -1.338e-03   |Residual|: 1.258e-02   |deigs|: 9.728e-03  t[s]:    163.93
	FillingsUpdate:  mu: -0.121035613  nElectrons: 73.000000  magneticMoment: [ Abs: 1.10680  Tot: +0.98000 ]
SCF: Cycle:  5   F: -118.215877640529868   dF: -3.840e-04   |Residual|: 9.685e-03   |deigs|: 4.514e-03  t[s]:    179.79
	FillingsUpdate:  mu: -0.115068839  nElectrons: 73.000000  magneticMoment: [ Abs: 1.10491  Tot: +0.98000 ]
SCF: Cycle:  6   F: -118.216001133082486   dF: -1.235e-04   |Residual|: 6.145e-03   |deigs|: 5.249e-03  t[s]:    195.67
	FillingsUpdate:  mu: -0.110185911  nElectrons: 73.000000  magneticMoment: [ Abs: 1.10268  Tot: +0.98000 ]
SCF: Cycle:  7   F: -118.215979317637334   dF: +2.182e-05   |Residual|: 4.890e-03   |deigs|: 6.102e-03  t[s]:    211.67
	FillingsUpdate:  mu: -0.106275468  nElectrons: 73.000000  magneticMoment: [ Abs: 1.10426  Tot: +0.98000 ]
SCF: Cycle:  8   F: -118.216033791599784   dF: -5.447e-05   |Residual|: 4.063e-03   |deigs|: 3.982e-03  t[s]:    227.79
	FillingsUpdate:  mu: -0.102864365  nElectrons: 73.000000  magneticMoment: [ Abs: 1.10105  Tot: +0.98000 ]
SCF: Cycle:  9   F: -118.216086937702045   dF: -5.315e-05   |Residual|: 3.069e-03   |deigs|: 3.569e-03  t[s]:    243.97
	FillingsUpdate:  mu: -0.100798786  nElectrons: 73.000000  magneticMoment: [ Abs: 1.10116  Tot: +0.98000 ]
SCF: Cycle: 10   F: -118.216110766630521   dF: -2.383e-05   |Residual|: 2.655e-03   |deigs|: 2.122e-03  t[s]:    260.22
	FillingsUpdate:  mu: -0.097884898  nElectrons: 73.000000  magneticMoment: [ Abs: 1.10256  Tot: +0.98000 ]
SCF: Cycle: 11   F: -118.216129303081331   dF: -1.854e-05   |Residual|: 2.117e-03   |deigs|: 2.850e-03  t[s]:    276.47
	FillingsUpdate:  mu: -0.095286023  nElectrons: 73.000000  magneticMoment: [ Abs: 1.10180  Tot: +0.98000 ]
SCF: Cycle: 12   F: -118.216137751219364   dF: -8.448e-06   |Residual|: 1.976e-03   |deigs|: 2.407e-03  t[s]:    292.68
	FillingsUpdate:  mu: -0.092183397  nElectrons: 73.000000  magneticMoment: [ Abs: 1.10166  Tot: +0.98000 ]
SCF: Cycle: 13   F: -118.216141237402468   dF: -3.486e-06   |Residual|: 1.712e-03   |deigs|: 2.896e-03  t[s]:    308.89
	FillingsUpdate:  mu: -0.088178746  nElectrons: 73.000000  magneticMoment: [ Abs: 1.10080  Tot: +0.98000 ]
SCF: Cycle: 14   F: -118.216140694156906   dF: +5.432e-07   |Residual|: 1.646e-03   |deigs|: 3.593e-03  t[s]:    325.20
	FillingsUpdate:  mu: -0.084821952  nElectrons: 73.000000  magneticMoment: [ Abs: 1.10154  Tot: +0.98000 ]
SCF: Cycle: 15   F: -118.216141484789503   dF: -7.906e-07   |Residual|: 1.526e-03   |deigs|: 2.970e-03  t[s]:    341.40
	FillingsUpdate:  mu: -0.080692118  nElectrons: 73.000000  magneticMoment: [ Abs: 1.10252  Tot: +0.98000 ]
SCF: Cycle: 16   F: -118.216143797569259   dF: -2.313e-06   |Residual|: 1.228e-03   |deigs|: 3.879e-03  t[s]:    357.61
	FillingsUpdate:  mu: -0.078555187  nElectrons: 73.000000  magneticMoment: [ Abs: 1.10083  Tot: +0.98000 ]
SCF: Cycle: 17   F: -118.216148216211863   dF: -4.419e-06   |Residual|: 9.637e-04   |deigs|: 1.886e-03  t[s]:    373.77
	FillingsUpdate:  mu: -0.077124754  nElectrons: 73.000000  magneticMoment: [ Abs: 1.10011  Tot: +0.98000 ]
SCF: Cycle: 18   F: -118.216151853442454   dF: -3.637e-06   |Residual|: 5.901e-04   |deigs|: 1.336e-03  t[s]:    390.09
	FillingsUpdate:  mu: -0.076581265  nElectrons: 73.000000  magneticMoment: [ Abs: 1.09968  Tot: +0.98000 ]
SCF: Cycle: 19   F: -118.216152756386379   dF: -9.029e-07   |Residual|: 3.861e-04   |deigs|: 5.286e-04  t[s]:    406.31
	FillingsUpdate:  mu: -0.076183464  nElectrons: 73.000000  magneticMoment: [ Abs: 1.09971  Tot: +0.98000 ]
SCF: Cycle: 20   F: -118.216153221266779   dF: -4.649e-07   |Residual|: 2.301e-04   |deigs|: 6.909e-04  t[s]:    422.50
	FillingsUpdate:  mu: -0.075985555  nElectrons: 73.000000  magneticMoment: [ Abs: 1.09955  Tot: +0.98000 ]
SCF: Cycle: 21   F: -118.216153391984690   dF: -1.707e-07   |Residual|: 1.390e-04   |deigs|: 3.968e-04  t[s]:    438.73
	FillingsUpdate:  mu: -0.075832861  nElectrons: 73.000000  magneticMoment: [ Abs: 1.09931  Tot: +0.98000 ]
SCF: Cycle: 22   F: -118.216153471559238   dF: -7.957e-08   |Residual|: 6.970e-05   |deigs|: 6.889e-04  t[s]:    455.01
	FillingsUpdate:  mu: -0.075772653  nElectrons: 73.000000  magneticMoment: [ Abs: 1.09927  Tot: +0.98000 ]
SCF: Cycle: 23   F: -118.216153499623260   dF: -2.806e-08   |Residual|: 4.941e-05   |deigs|: 1.938e-04  t[s]:    471.25
	FillingsUpdate:  mu: -0.075724121  nElectrons: 73.000000  magneticMoment: [ Abs: 1.09918  Tot: +0.98000 ]
SCF: Cycle: 24   F: -118.216153514604599   dF: -1.498e-08   |Residual|: 3.022e-05   |deigs|: 1.989e-04  t[s]:    487.47
	FillingsUpdate:  mu: -0.075698928  nElectrons: 73.000000  magneticMoment: [ Abs: 1.09917  Tot: +0.98000 ]
SCF: Cycle: 25   F: -118.216153521389032   dF: -6.784e-09   |Residual|: 1.754e-05   |deigs|: 3.172e-04  t[s]:    503.63
	FillingsUpdate:  mu: -0.075688314  nElectrons: 73.000000  magneticMoment: [ Abs: 1.09914  Tot: +0.98000 ]
SCF: Cycle: 26   F: -118.216153523717807   dF: -2.329e-09   |Residual|: 9.976e-06   |deigs|: 1.716e-04  t[s]:    519.84
SCF: Converged (|Delta E|<1.000000e-08 for 2 iters).


# Ionic positions in lattice coordinates:
ion C  -0.000000000000000   0.000000000000000   0.000000000000000 1
ion N   0.108900118656067   0.217800237312134   0.000000000000000 1
ion N   0.111440932313158   0.555720466156579   0.000000000000000 1
ion N   0.108900118656067   0.891099881343933   0.000000000000000 1
ion N   0.444600551142632   0.222300275571316   0.000000000000000 1
ion N   0.444279533843421   0.555720466156579   0.000000000000000 1
ion N   0.444279533843421   0.888559067686842   0.000000000000000 1
ion N   0.777699724428684   0.222300275571316   0.000000000000000 1
ion N   0.777699724428684   0.555399448857368   0.000000000000000 1
ion N   0.782199762687866   0.891099881343933   0.000000000000000 1
ion B  -0.000409163333578   0.332352225367090   0.000000000000000 1
ion B  -0.000409163333578   0.667238611299332   0.000000000000000 1
ion B   0.332761388700668   0.000409163333578   0.000000000000000 1
ion B   0.332761388700668   0.332352225367090   0.000000000000000 1
ion B   0.333333333333333   0.666666666666667   0.000000000000000 1
ion B   0.667647774632910   0.000409163333578   0.000000000000000 1
ion B   0.666666666666667   0.333333333333333   0.000000000000000 1
ion B   0.667647774632910   0.667238611299332   0.000000000000000 1

# Forces in Lattice coordinates:
force C   0.000000000000000   0.000000000000000   0.000000000000000 1
force N   0.000000000000000  -0.004569574404924  -0.000000000000000 1
force N   0.000434960379031   0.000000000000000   0.000000000000000 1
force N  -0.004569574404922   0.004569574404924  -0.000000000000000 1
force N  -0.000316306561062  -0.000000000000000   0.000000000000000 1
force N  -0.000434960379031   0.000434960379031  -0.000000000000000 1
force N  -0.000000000000000  -0.000434960379031   0.000000000000000 1
force N   0.000316306561062  -0.000316306561062   0.000000000000000 1
force N   0.000000000000000   0.000316306561062   0.000000000000000 1
force N   0.004569574404920   0.000000000000000   0.000000000000000 1
force B  -0.002069683419924   0.001296014289922  -0.000000000000000 1
force B  -0.000773669130002  -0.001296014289922   0.000000000000000 1
force B   0.001296014289922   0.000773669130002   0.000000000000000 1
force B   0.002069683419924  -0.000773669130002   0.000000000000000 1
force B  -0.000000000000000  -0.000000000000000   0.000000000000000 1
force B  -0.001296014289922   0.002069683419924   0.000000000000000 1
force B   0.000000000000000  -0.000000000000000   0.000000000000000 1
force B   0.000773669130002  -0.002069683419924   0.000000000000000 1

# Energy components:
   Eewald =     -185.5884594997991428
       EH =      -92.9958227067728558
     Eloc =      115.4185733801300273
      Enl =       -5.2836505792697093
   Epulay =       -0.0000011688465181
      Exc =      -33.7632566264318115
       KE =       83.9964640161412746
-------------------------------------
     Etot =     -118.2161531848487215
       TS =        0.0000003388690846
-------------------------------------
        F =     -118.2161535237178072

IonicMinimize: Iter:   0  F: -118.216153523717807  |grad|_K:  1.015e-04  t[s]:    521.26
IonicMinimize: None of the convergence criteria satisfied after 0 iterations.

#--- Lowdin population analysis ---
# oxidation-state C +0.274
# magnetic-moments C +0.560
# oxidation-state N -0.270 -0.373 -0.270 -0.380 -0.373 -0.373 -0.380 -0.380 -0.270
# magnetic-moments N +0.002 -0.005 +0.002 +0.021 -0.005 -0.005 +0.021 +0.021 +0.002
# oxidation-state B +0.432 +0.432 +0.432 +0.432 +0.438 +0.432 +0.435 +0.432
# magnetic-moments B +0.046 +0.046 +0.046 +0.046 +0.028 +0.046 +0.035 +0.046

End date and time: Sun Feb  6 19:58:59 2022  (Duration: 0-0:08:41.61)
Done!
