magnetization is 0.74
--------------------------------------------------------------------------
The library attempted to open the following supporting CUDA libraries,
but each of them failed.  CUDA-aware support is disabled.
libcuda.so.1: cannot open shared object file: No such file or directory
libcuda.dylib: cannot open shared object file: No such file or directory
/usr/lib64/libcuda.so.1: cannot open shared object file: No such file or directory
/usr/lib64/libcuda.dylib: cannot open shared object file: No such file or directory
If you are not interested in CUDA-aware support, then run with
--mca opal_warn_on_missing_libcuda 0 to suppress this message.  If you are interested
in CUDA-aware support, then try setting LD_LIBRARY_PATH to the location
of libcuda.so.1 to get passed this issue.
--------------------------------------------------------------------------
--------------------------------------------------------------------------
No OpenFabrics connection schemes reported that they were able to be
used on a specific port.  As such, the openib BTL (OpenFabrics
support) will be disabled for this port.

  Local host:           d-17-2-4
  Local device:         mlx5_1
  Local port:           1
  CPCs attempted:       rdmacm, udcm
--------------------------------------------------------------------------

*************** JDFTx 1.6.0 (git hash 42ebbcc2) ***************

Start date and time: Sun Feb  6 19:42:06 2022
Executable jdftx with command-line: -i BN33BC.in
Running on hosts (process indices):  d-17-2-4 (0-37)
Divided in process groups (process indices):  0 (0)  1 (1)  2 (2)  3 (3)  4 (4)  5 (5)  6 (6)  7 (7)  8 (8)  9 (9)  10 (10)  11 (11)  12 (12)  13 (13)  14 (14)  15 (15)  16 (16)  17 (17)  18 (18)  19 (19)  20 (20)  21 (21)  22 (22)  23 (23)  24 (24)  25 (25)  26 (26)  27 (27)  28 (28)  29 (29)  30 (30)  31 (31)  32 (32)  33 (33)  34 (34)  35 (35)  36 (36)  37 (37)
Resource initialization completed at t[s]:      0.00
Run totals: 38 processes, 48 threads, 0 GPUs


Input parsed successfully to the following command list (including defaults):

basis kpoint-dependent
coords-type Lattice
core-overlap-check vector
coulomb-interaction Slab 001
davidson-band-ratio 1.1
dump End None
dump-name $INPUT.$VAR
elec-cutoff 20
elec-eigen-algo Davidson
elec-ex-corr gga-PBE
elec-initial-magnetization 0.740000 yes
elec-smearing Fermi 1e-05
electronic-minimize  \
	dirUpdateScheme      FletcherReeves \
	linminMethod         DirUpdateRecommended \
	nIterations          100 \
	history              15 \
	knormThreshold       0 \
	energyDiffThreshold  1e-08 \
	nEnergyDiff          2 \
	alphaTstart          1 \
	alphaTmin            1e-10 \
	updateTestStepSize   yes \
	alphaTreduceFactor   0.1 \
	alphaTincreaseFactor 3 \
	nAlphaAdjustMax      3 \
	wolfeEnergy          0.0001 \
	wolfeGradient        0.9 \
	fdTest               no
electronic-scf  \
	nIterations	1000 \
	energyDiffThreshold	1e-08 \
	residualThreshold	1e-07 \
	mixFraction	0.5 \
	qMetric	0.8 \
	history	10 \
	nEigSteps	2 \
	eigDiffThreshold	1e-08 \
	mixedVariable	Density \
	qKerker	0.8 \
	qKappa	-1 \
	verbose	no \
	mixFractionMag	1.5
exchange-regularization WignerSeitzTruncated
fluid None
fluid-ex-corr (null) lda-PZ
fluid-gummel-loop 10 1.000000e-05
fluid-minimize  \
	dirUpdateScheme      PolakRibiere \
	linminMethod         DirUpdateRecommended \
	nIterations          100 \
	history              15 \
	knormThreshold       0 \
	energyDiffThreshold  0 \
	nEnergyDiff          2 \
	alphaTstart          1 \
	alphaTmin            1e-10 \
	updateTestStepSize   yes \
	alphaTreduceFactor   0.1 \
	alphaTincreaseFactor 3 \
	nAlphaAdjustMax      3 \
	wolfeEnergy          0.0001 \
	wolfeGradient        0.9 \
	fdTest               no
fluid-solvent H2O 55.338 ScalarEOS \
	epsBulk 78.4 \
	pMol 0.92466 \
	epsInf 1.77 \
	Pvap 1.06736e-10 \
	sigmaBulk 4.62e-05 \
	Rvdw 2.61727 \
	Res 1.42 \
	tauNuc 343133 \
	poleEl 15 7 1
forces-output-coords Positions
ion C   0.000000000000000  -0.000000000000000   0.000000000000000 1
ion N   0.108900118656067   0.217800237312134   0.000000000000000 1
ion N   0.111440932313158   0.555720466156579   0.000000000000000 1
ion N   0.108900118656067   0.891099881343933   0.000000000000000 1
ion N   0.444600551142632   0.222300275571316   0.000000000000000 1
ion N   0.444279533843421   0.555720466156579   0.000000000000000 1
ion N   0.444279533843421   0.888559067686842   0.000000000000000 1
ion N   0.777699724428684   0.222300275571316   0.000000000000000 1
ion N   0.777699724428684   0.555399448857368   0.000000000000000 1
ion N   0.782199762687866   0.891099881343933   0.000000000000000 1
ion B  -0.000409163333578   0.332352225367090  -0.000000000000000 1
ion B  -0.000409163333578   0.667238611299332  -0.000000000000000 1
ion B   0.332761388700668   0.000409163333578   0.000000000000000 1
ion B   0.332761388700668   0.332352225367090  -0.000000000000000 1
ion B   0.333333333333333   0.666666666666667   0.000000000000000 1
ion B   0.667647774632910   0.000409163333578   0.000000000000000 1
ion B   0.666666666666667   0.333333333333333   0.000000000000000 1
ion B   0.667647774632910   0.667238611299332   0.000000000000000 1
ion-species SG15/$ID_ONCV_PBE.upf
ion-width 0
ionic-minimize  \
	dirUpdateScheme      L-BFGS \
	linminMethod         DirUpdateRecommended \
	nIterations          0 \
	history              15 \
	knormThreshold       0.0001 \
	energyDiffThreshold  1e-06 \
	nEnergyDiff          2 \
	alphaTstart          1 \
	alphaTmin            1e-10 \
	updateTestStepSize   yes \
	alphaTreduceFactor   0.1 \
	alphaTincreaseFactor 3 \
	nAlphaAdjustMax      3 \
	wolfeEnergy          0.0001 \
	wolfeGradient        0.9 \
	fdTest               no
kpoint   0.000000000000   0.000000000000   0.000000000000  1.00000000000000
kpoint-folding 12 12 1 
latt-move-scale 1 1 1
latt-scale 1 1 1 
lattice  \
	  14.116397090998559   -7.058198545499275    0.000000000000000  \
	  -0.000000000000000   12.225158490713497    0.000000000000000  \
	   0.000000000000000    0.000000000000000   40.000000000000000 
lattice-minimize  \
	dirUpdateScheme      L-BFGS \
	linminMethod         DirUpdateRecommended \
	nIterations          0 \
	history              15 \
	knormThreshold       0 \
	energyDiffThreshold  1e-06 \
	nEnergyDiff          2 \
	alphaTstart          1 \
	alphaTmin            1e-10 \
	updateTestStepSize   yes \
	alphaTreduceFactor   0.1 \
	alphaTincreaseFactor 3 \
	nAlphaAdjustMax      3 \
	wolfeEnergy          0.0001 \
	wolfeGradient        0.9 \
	fdTest               no
lcao-params -1 1e-06 1e-05
pcm-variant GLSSA13
spintype z-spin
subspace-rotation-factor 1 yes
symmetries automatic
symmetry-threshold 0.0001



---------- Setting up symmetries ----------

Found 24 point-group symmetries of the bravais lattice
Found 12 space-group symmetries with basis
Applied RMS atom displacement 2.54347e-15 bohrs to make symmetries exact.

---------- Initializing the Grid ----------
R = 
[      14.1164      -7.0582            0  ]
[            0      12.2252            0  ]
[            0            0           40  ]
unit cell volume = 6903.01
G =
[   0.445098   0.256978         -0  ]
[          0   0.513955         -0  ]
[         -0         -0    0.15708  ]
Minimum fftbox size, Smin = [  60  60  164  ]
Chosen fftbox size, S = [  60  60  168  ]

---------- Exchange Correlation functional ----------
Initalized PBE GGA exchange.
Initalized PBE GGA correlation.

---------- Setting up pseudopotentials ----------
Width of ionic core gaussian charges (only for fluid interactions / plotting) set to 0

Reading pseudopotential file '/home/gridsan/aligho/DFT/build-Nov24/pseudopotentials/SG15/C_ONCV_PBE.upf':
  'C' pseudopotential, 'PBE' functional
  Generated using ONCVPSP code by D. R. Hamann
  Author: Martin Schlipf and Francois Gygi  Date: 150915.
  4 valence electrons, 2 orbitals, 4 projectors, 1248 radial grid points, with lMax = 1
  Transforming local potential to a uniform radial grid of dG=0.02 with 1495 points.
  Transforming nonlocal projectors to a uniform radial grid of dG=0.02 with 432 points.
    2S    l: 0   occupation:  2.0   eigenvalue: -0.505335
    2P    l: 1   occupation:  2.0   eigenvalue: -0.194238
  Transforming atomic orbitals to a uniform radial grid of dG=0.02 with 432 points.
  Core radius for overlap checks: 1.23 bohrs.
  Reading pulay file /home/gridsan/aligho/DFT/build-Nov24/pseudopotentials/SG15/C_ONCV_PBE.pulay ... using dE_dnG = -9.239532e-03 computed for Ecut = 20.

Reading pseudopotential file '/home/gridsan/aligho/DFT/build-Nov24/pseudopotentials/SG15/N_ONCV_PBE.upf':
  'N' pseudopotential, 'PBE' functional
  Generated using ONCVPSP code by D. R. Hamann
  Author: Martin Schlipf and Francois Gygi  Date: 150915.
  5 valence electrons, 2 orbitals, 4 projectors, 1058 radial grid points, with lMax = 1
  Transforming local potential to a uniform radial grid of dG=0.02 with 1495 points.
  Transforming nonlocal projectors to a uniform radial grid of dG=0.02 with 432 points.
    2S    l: 0   occupation:  2.0   eigenvalue: -0.682907
    2P    l: 1   occupation:  3.0   eigenvalue: -0.260548
  Transforming atomic orbitals to a uniform radial grid of dG=0.02 with 432 points.
  Core radius for overlap checks: 1.35 bohrs.
  Reading pulay file /home/gridsan/aligho/DFT/build-Nov24/pseudopotentials/SG15/N_ONCV_PBE.pulay ... using dE_dnG = -2.956256e-02 computed for Ecut = 20.

Reading pseudopotential file '/home/gridsan/aligho/DFT/build-Nov24/pseudopotentials/SG15/B_ONCV_PBE.upf':
  'B' pseudopotential, 'PBE' functional
  Generated using ONCVPSP code by D. R. Hamann
  Author: Martin Schlipf and Francois Gygi  Date: 150915.
  3 valence electrons, 2 orbitals, 4 projectors, 1534 radial grid points, with lMax = 1
  Transforming local potential to a uniform radial grid of dG=0.02 with 1495 points.
  Transforming nonlocal projectors to a uniform radial grid of dG=0.02 with 432 points.
    2S    l: 0   occupation:  2.0   eigenvalue: -0.347027
    2P    l: 1   occupation:  1.0   eigenvalue: -0.132548
  Transforming atomic orbitals to a uniform radial grid of dG=0.02 with 432 points.
  Core radius for overlap checks: 1.60 bohrs.
  Reading pulay file /home/gridsan/aligho/DFT/build-Nov24/pseudopotentials/SG15/B_ONCV_PBE.pulay ... using dE_dnG = -3.748568e-04 computed for Ecut = 20.

Initialized 3 species with 18 total atoms.

Folded 1 k-points by 12x12x1 to 144 k-points.

---------- Setting up k-points, bands, fillings ----------
Adding inversion symmetry to k-mesh for non-inversion-symmetric unit cell.
Reduced to 19 k-points under symmetry. 
Computing the number of bands and number of electrons
Calculating initial fillings.
nElectrons:  73.000000   nBands: 72   nStates: 38

----- Setting up reduced wavefunction bases (one per k-point) -----
average nbasis = 29490.146 , ideal nbasis = 29490.175

---------- Setting up coulomb interaction ----------
Initialized slab truncation along lattice direction 001

---------- Setting up 2D ewald sum ----------
Optimum gaussian width for ewald sums = 7.836854 bohr.
Real space sums over 289 unit cells with max indices [  8  8  0  ]
Reciprocal space sums over 81 terms with max indices [  4  4  0  ]

---------- Allocating electronic variables ----------
Initializing wave functions:  linear combination of atomic orbitals
C pseudo-atom occupations:   s ( 2 )  p ( 2 )
N pseudo-atom occupations:   s ( 2 )  p ( 3 )
B pseudo-atom occupations:   s ( 2 )  p ( 1 )
[d-17-2-4:60610] 37 more processes have sent help message help-mpi-common-cuda.txt / dlopen failed
[d-17-2-4:60610] Set MCA parameter "orte_base_help_aggregate" to 0 to see all help / error messages
[d-17-2-4:60610] 37 more processes have sent help message help-mpi-btl-openib-cpc-base.txt / no cpcs for port
	FillingsUpdate:  mu: -0.191979720  nElectrons: 73.000000  magneticMoment: [ Abs: 0.76882  Tot: +0.74000 ]
LCAOMinimize: Iter:   0  F: -116.5262260445813496  |grad|_K:  4.460e-03  alpha:  1.000e+00
	FillingsUpdate:  mu: -0.217583128  nElectrons: 73.000000  magneticMoment: [ Abs: 0.77600  Tot: +0.74000 ]
LCAOMinimize: Iter:   1  F: -117.1911855889769214  |grad|_K:  9.829e-04  alpha:  4.007e-01  linmin:  1.311e-01  cgtest: -5.972e-01  t[s]:     25.25
	FillingsUpdate:  mu: -0.184784524  nElectrons: 73.000000  magneticMoment: [ Abs: 0.77876  Tot: +0.74000 ]
LCAOMinimize: Iter:   2  F: -117.2057599978916187  |grad|_K:  5.960e-04  alpha:  2.568e-01  linmin:  1.187e-03  cgtest:  7.489e-01  t[s]:     32.98
LCAOMinimize: Encountered beta<0, resetting CG.
	FillingsUpdate:  mu: -0.172374707  nElectrons: 73.000000  magneticMoment: [ Abs: 0.78097  Tot: +0.74000 ]
LCAOMinimize: Iter:   3  F: -117.2182718271875075  |grad|_K:  1.052e-04  alpha:  3.491e-01  linmin:  1.524e-02  cgtest: -7.031e-02  t[s]:     40.76
	FillingsUpdate:  mu: -0.176125725  nElectrons: 73.000000  magneticMoment: [ Abs: 0.78247  Tot: +0.74000 ]
LCAOMinimize: Iter:   4  F: -117.2186634696794840  |grad|_K:  1.371e-05  alpha:  3.545e-01  linmin:  1.088e-02  cgtest:  1.276e-01  t[s]:     48.51
	FillingsUpdate:  mu: -0.176428926  nElectrons: 73.000000  magneticMoment: [ Abs: 0.78411  Tot: +0.74000 ]
LCAOMinimize: Iter:   5  F: -117.2186749136729134  |grad|_K:  9.131e-06  alpha:  6.012e-01  linmin: -9.209e-05  cgtest:  1.690e-03  t[s]:     56.25
	FillingsUpdate:  mu: -0.176135603  nElectrons: 73.000000  magneticMoment: [ Abs: 0.78596  Tot: +0.74000 ]
LCAOMinimize: Iter:   6  F: -117.2186805911919549  |grad|_K:  3.773e-06  alpha:  6.719e-01  linmin: -1.838e-03  cgtest:  5.582e-03  t[s]:     63.95
	FillingsUpdate:  mu: -0.176247516  nElectrons: 73.000000  magneticMoment: [ Abs: 0.78617  Tot: +0.74000 ]
LCAOMinimize: Iter:   7  F: -117.2186812374453808  |grad|_K:  8.491e-07  alpha:  4.467e-01  linmin: -1.481e-04  cgtest: -1.728e-02  t[s]:     71.67
	FillingsUpdate:  mu: -0.176241713  nElectrons: 73.000000  magneticMoment: [ Abs: 0.78599  Tot: +0.74000 ]
LCAOMinimize: Iter:   8  F: -117.2186813000916601  |grad|_K:  3.168e-07  alpha:  8.566e-01  linmin: -3.711e-03  cgtest:  1.174e-02  t[s]:     79.39
LCAOMinimize: Converged (|Delta F|<1.000000e-06 for 2 iters).


---- Citations for features of the code used in this run ----

   Software package:
      R. Sundararaman, K. Letchworth-Weaver, K.A. Schwarz, D. Gunceler, Y. Ozhabes and T.A. Arias, 'JDFTx: software for joint density-functional theory', SoftwareX 6, 278 (2017)

   gga-PBE exchange-correlation functional:
      J.P. Perdew, K. Burke and M. Ernzerhof, Phys. Rev. Lett. 77, 3865 (1996)

   Pseudopotentials:
      M Schlipf and F Gygi, Comput. Phys. Commun. 196, 36 (2015)

   Truncated Coulomb potentials:
      R. Sundararaman and T.A. Arias, Phys. Rev. B 87, 165122 (2013)

This list may not be complete. Please suggest additional citations or
report any other bugs at https://github.com/shankar1729/jdftx/issues

Initialization completed successfully at t[s]:     80.17


-------- Electronic minimization -----------
Will mix electronic density at each iteration.
	FillingsUpdate:  mu: -0.176241713  nElectrons: 73.000000  magneticMoment: [ Abs: 0.78599  Tot: +0.74000 ]
	FillingsUpdate:  mu: -0.191342604  nElectrons: 73.000000  magneticMoment: [ Abs: 0.78599  Tot: +0.74000 ]
SCF: Cycle:  0   F: -118.145489774226704   dF: -9.268e-01   |Residual|: 3.370e-01   |deigs|: 1.138e-01  t[s]:    101.17
	FillingsUpdate:  mu: -0.170001473  nElectrons: 73.000000  magneticMoment: [ Abs: 0.82355  Tot: +0.74000 ]
SCF: Cycle:  1   F: -118.184478632906107   dF: -3.899e-02   |Residual|: 1.879e-01   |deigs|: 2.530e-02  t[s]:    116.86
	FillingsUpdate:  mu: -0.140601136  nElectrons: 73.000000  magneticMoment: [ Abs: 0.84005  Tot: +0.74000 ]
SCF: Cycle:  2   F: -118.210146820642436   dF: -2.567e-02   |Residual|: 4.099e-02   |deigs|: 2.999e-02  t[s]:    132.51
	FillingsUpdate:  mu: -0.137310088  nElectrons: 73.000000  magneticMoment: [ Abs: 0.84136  Tot: +0.74000 ]
SCF: Cycle:  3   F: -118.210942388115257   dF: -7.956e-04   |Residual|: 2.290e-02   |deigs|: 7.814e-03  t[s]:    148.11
	FillingsUpdate:  mu: -0.126091825  nElectrons: 73.000000  magneticMoment: [ Abs: 0.82752  Tot: +0.74000 ]
SCF: Cycle:  4   F: -118.212338084877800   dF: -1.396e-03   |Residual|: 1.228e-02   |deigs|: 1.005e-02  t[s]:    163.98
	FillingsUpdate:  mu: -0.121027531  nElectrons: 73.000000  magneticMoment: [ Abs: 0.83321  Tot: +0.74000 ]
SCF: Cycle:  5   F: -118.212683388802375   dF: -3.453e-04   |Residual|: 9.435e-03   |deigs|: 4.337e-03  t[s]:    179.69
	FillingsUpdate:  mu: -0.114926882  nElectrons: 73.000000  magneticMoment: [ Abs: 0.83085  Tot: +0.74000 ]
SCF: Cycle:  6   F: -118.212798918415771   dF: -1.155e-04   |Residual|: 6.071e-03   |deigs|: 5.432e-03  t[s]:    195.74
	FillingsUpdate:  mu: -0.110283213  nElectrons: 73.000000  magneticMoment: [ Abs: 0.82944  Tot: +0.74000 ]
SCF: Cycle:  7   F: -118.212776500688008   dF: +2.242e-05   |Residual|: 4.848e-03   |deigs|: 5.836e-03  t[s]:    211.87
	FillingsUpdate:  mu: -0.106222891  nElectrons: 73.000000  magneticMoment: [ Abs: 0.83089  Tot: +0.74000 ]
SCF: Cycle:  8   F: -118.212834898438928   dF: -5.840e-05   |Residual|: 4.008e-03   |deigs|: 4.084e-03  t[s]:    227.90
	FillingsUpdate:  mu: -0.103068037  nElectrons: 73.000000  magneticMoment: [ Abs: 0.82719  Tot: +0.74000 ]
SCF: Cycle:  9   F: -118.212884006621508   dF: -4.911e-05   |Residual|: 3.035e-03   |deigs|: 3.372e-03  t[s]:    244.08
	FillingsUpdate:  mu: -0.100874732  nElectrons: 73.000000  magneticMoment: [ Abs: 0.82822  Tot: +0.74000 ]
SCF: Cycle: 10   F: -118.212908703159599   dF: -2.470e-05   |Residual|: 2.645e-03   |deigs|: 2.217e-03  t[s]:    260.27
	FillingsUpdate:  mu: -0.097870263  nElectrons: 73.000000  magneticMoment: [ Abs: 0.82952  Tot: +0.74000 ]
SCF: Cycle: 11   F: -118.212927235311739   dF: -1.853e-05   |Residual|: 2.100e-03   |deigs|: 2.942e-03  t[s]:    276.55
	FillingsUpdate:  mu: -0.095334360  nElectrons: 73.000000  magneticMoment: [ Abs: 0.82864  Tot: +0.74000 ]
SCF: Cycle: 12   F: -118.212934754642518   dF: -7.519e-06   |Residual|: 1.953e-03   |deigs|: 2.309e-03  t[s]:    292.75
	FillingsUpdate:  mu: -0.092022259  nElectrons: 73.000000  magneticMoment: [ Abs: 0.82934  Tot: +0.74000 ]
SCF: Cycle: 13   F: -118.212937757453517   dF: -3.003e-06   |Residual|: 1.699e-03   |deigs|: 3.113e-03  t[s]:    309.02
	FillingsUpdate:  mu: -0.088428615  nElectrons: 73.000000  magneticMoment: [ Abs: 0.82803  Tot: +0.74000 ]
SCF: Cycle: 14   F: -118.212937372438574   dF: +3.850e-07   |Residual|: 1.637e-03   |deigs|: 3.215e-03  t[s]:    325.10
	FillingsUpdate:  mu: -0.084494916  nElectrons: 73.000000  magneticMoment: [ Abs: 0.82892  Tot: +0.74000 ]
SCF: Cycle: 15   F: -118.212938344645451   dF: -9.722e-07   |Residual|: 1.499e-03   |deigs|: 3.522e-03  t[s]:    341.17
	FillingsUpdate:  mu: -0.080897612  nElectrons: 73.000000  magneticMoment: [ Abs: 0.82882  Tot: +0.74000 ]
SCF: Cycle: 16   F: -118.212940801904040   dF: -2.457e-06   |Residual|: 1.225e-03   |deigs|: 3.358e-03  t[s]:    357.25
	FillingsUpdate:  mu: -0.078463704  nElectrons: 73.000000  magneticMoment: [ Abs: 0.82783  Tot: +0.74000 ]
SCF: Cycle: 17   F: -118.212945857759735   dF: -5.056e-06   |Residual|: 8.959e-04   |deigs|: 2.144e-03  t[s]:    373.45
	FillingsUpdate:  mu: -0.077132445  nElectrons: 73.000000  magneticMoment: [ Abs: 0.82721  Tot: +0.74000 ]
SCF: Cycle: 18   F: -118.212948823099225   dF: -2.965e-06   |Residual|: 5.591e-04   |deigs|: 1.197e-03  t[s]:    389.55
	FillingsUpdate:  mu: -0.076579753  nElectrons: 73.000000  magneticMoment: [ Abs: 0.82697  Tot: +0.74000 ]
SCF: Cycle: 19   F: -118.212949783724852   dF: -9.606e-07   |Residual|: 3.245e-04   |deigs|: 6.388e-04  t[s]:    405.84
	FillingsUpdate:  mu: -0.076248946  nElectrons: 73.000000  magneticMoment: [ Abs: 0.82681  Tot: +0.74000 ]
SCF: Cycle: 20   F: -118.212950113396161   dF: -3.297e-07   |Residual|: 1.850e-04   |deigs|: 6.104e-04  t[s]:    421.99
	FillingsUpdate:  mu: -0.076109587  nElectrons: 73.000000  magneticMoment: [ Abs: 0.82651  Tot: +0.74000 ]
SCF: Cycle: 21   F: -118.212950222592468   dF: -1.092e-07   |Residual|: 1.137e-04   |deigs|: 3.003e-04  t[s]:    438.26
	FillingsUpdate:  mu: -0.076002575  nElectrons: 73.000000  magneticMoment: [ Abs: 0.82643  Tot: +0.74000 ]
SCF: Cycle: 22   F: -118.212950276598434   dF: -5.401e-08   |Residual|: 5.447e-05   |deigs|: 5.512e-04  t[s]:    454.47
	FillingsUpdate:  mu: -0.075965891  nElectrons: 73.000000  magneticMoment: [ Abs: 0.82638  Tot: +0.74000 ]
SCF: Cycle: 23   F: -118.212950290961061   dF: -1.436e-08   |Residual|: 3.954e-05   |deigs|: 2.376e-04  t[s]:    470.90
	FillingsUpdate:  mu: -0.075937152  nElectrons: 73.000000  magneticMoment: [ Abs: 0.82631  Tot: +0.74000 ]
SCF: Cycle: 24   F: -118.212950301784559   dF: -1.082e-08   |Residual|: 2.600e-05   |deigs|: 2.034e-04  t[s]:    487.31
	FillingsUpdate:  mu: -0.075918706  nElectrons: 73.000000  magneticMoment: [ Abs: 0.82630  Tot: +0.74000 ]
SCF: Cycle: 25   F: -118.212950306756028   dF: -4.971e-09   |Residual|: 1.728e-05   |deigs|: 2.820e-04  t[s]:    503.55
	FillingsUpdate:  mu: -0.075909367  nElectrons: 73.000000  magneticMoment: [ Abs: 0.82628  Tot: +0.74000 ]
SCF: Cycle: 26   F: -118.212950308799535   dF: -2.044e-09   |Residual|: 1.125e-05   |deigs|: 1.394e-04  t[s]:    519.59
SCF: Converged (|Delta E|<1.000000e-08 for 2 iters).


# Ionic positions in lattice coordinates:
ion C  -0.000000000000000   0.000000000000000   0.000000000000000 1
ion N   0.108900118656067   0.217800237312134   0.000000000000000 1
ion N   0.111440932313158   0.555720466156579   0.000000000000000 1
ion N   0.108900118656067   0.891099881343933   0.000000000000000 1
ion N   0.444600551142632   0.222300275571316   0.000000000000000 1
ion N   0.444279533843421   0.555720466156579   0.000000000000000 1
ion N   0.444279533843421   0.888559067686842   0.000000000000000 1
ion N   0.777699724428684   0.222300275571316   0.000000000000000 1
ion N   0.777699724428684   0.555399448857368   0.000000000000000 1
ion N   0.782199762687866   0.891099881343933   0.000000000000000 1
ion B  -0.000409163333578   0.332352225367090   0.000000000000000 1
ion B  -0.000409163333578   0.667238611299332   0.000000000000000 1
ion B   0.332761388700668   0.000409163333578   0.000000000000000 1
ion B   0.332761388700668   0.332352225367090   0.000000000000000 1
ion B   0.333333333333333   0.666666666666667   0.000000000000000 1
ion B   0.667647774632910   0.000409163333578   0.000000000000000 1
ion B   0.666666666666667   0.333333333333333   0.000000000000000 1
ion B   0.667647774632910   0.667238611299332   0.000000000000000 1

# Forces in Lattice coordinates:
force C  -0.000000000000000  -0.000000000000000   0.000000000000000 1
force N   0.000000000000000  -0.050911277486087  -0.000000000000000 1
force N   0.006582855741770   0.000000000000000   0.000000000000000 1
force N  -0.050911277486085   0.050911277486088   0.000000000000000 1
force N  -0.007334850450010   0.000000000000000   0.000000000000000 1
force N  -0.006582855741770   0.006582855741770   0.000000000000000 1
force N   0.000000000000000  -0.006582855741770   0.000000000000000 1
force N   0.007334850450010  -0.007334850450010   0.000000000000000 1
force N   0.000000000000000   0.007334850450010   0.000000000000000 1
force N   0.050911277486084   0.000000000000000   0.000000000000000 1
force B  -0.020212066839623   0.014276386706271  -0.000000000000000 1
force B  -0.005935680133352  -0.014276386706271   0.000000000000000 1
force B   0.014276386706271   0.005935680133352  -0.000000000000000 1
force B   0.020212066839623  -0.005935680133352  -0.000000000000000 1
force B   0.000000000000000   0.000000000000000   0.000000000000000 1
force B  -0.014276386706271   0.020212066839623  -0.000000000000000 1
force B  -0.000000000000000   0.000000000000000   0.000000000000000 1
force B   0.005935680133352  -0.020212066839623   0.000000000000000 1

# Energy components:
   Eewald =     -185.5884594997991428
       EH =      -93.0199458982813496
     Eloc =      115.4499288641865036
      Enl =       -5.2778237615979950
   Epulay =       -0.0000011688465181
      Exc =      -33.7543918643274594
       KE =       83.9777438129892175
-------------------------------------
     Etot =     -118.2129495156767405
       TS =        0.0000007931227982
-------------------------------------
        F =     -118.2129503087995346

IonicMinimize: Iter:   0  F: -118.212950308799535  |grad|_K:  1.114e-03  t[s]:    521.05
IonicMinimize: None of the convergence criteria satisfied after 0 iterations.

#--- Lowdin population analysis ---
# oxidation-state C +0.272
# magnetic-moments C +0.434
# oxidation-state N -0.266 -0.372 -0.266 -0.377 -0.372 -0.372 -0.377 -0.377 -0.266
# magnetic-moments N +0.004 -0.003 +0.004 +0.019 -0.003 -0.003 +0.019 +0.019 +0.004
# oxidation-state B +0.431 +0.431 +0.431 +0.431 +0.431 +0.431 +0.427 +0.431
# magnetic-moments B +0.034 +0.034 +0.034 +0.034 +0.010 +0.034 +0.014 +0.034

End date and time: Sun Feb  6 19:50:47 2022  (Duration: 0-0:08:41.39)
Done!
