magnetization is 0.7
--------------------------------------------------------------------------
The library attempted to open the following supporting CUDA libraries,
but each of them failed.  CUDA-aware support is disabled.
libcuda.so.1: cannot open shared object file: No such file or directory
libcuda.dylib: cannot open shared object file: No such file or directory
/usr/lib64/libcuda.so.1: cannot open shared object file: No such file or directory
/usr/lib64/libcuda.dylib: cannot open shared object file: No such file or directory
If you are not interested in CUDA-aware support, then run with
--mca opal_warn_on_missing_libcuda 0 to suppress this message.  If you are interested
in CUDA-aware support, then try setting LD_LIBRARY_PATH to the location
of libcuda.so.1 to get passed this issue.
--------------------------------------------------------------------------
--------------------------------------------------------------------------
No OpenFabrics connection schemes reported that they were able to be
used on a specific port.  As such, the openib BTL (OpenFabrics
support) will be disabled for this port.

  Local host:           d-16-13-4
  Local device:         mlx5_1
  Local port:           1
  CPCs attempted:       rdmacm, udcm
--------------------------------------------------------------------------

*************** JDFTx 1.6.0 (git hash 42ebbcc2) ***************

Start date and time: Sun Feb  6 19:41:35 2022
Executable jdftx with command-line: -i BN33BC.in
Running on hosts (process indices):  d-16-13-4 (0-37)
Divided in process groups (process indices):  0 (0)  1 (1)  2 (2)  3 (3)  4 (4)  5 (5)  6 (6)  7 (7)  8 (8)  9 (9)  10 (10)  11 (11)  12 (12)  13 (13)  14 (14)  15 (15)  16 (16)  17 (17)  18 (18)  19 (19)  20 (20)  21 (21)  22 (22)  23 (23)  24 (24)  25 (25)  26 (26)  27 (27)  28 (28)  29 (29)  30 (30)  31 (31)  32 (32)  33 (33)  34 (34)  35 (35)  36 (36)  37 (37)
Resource initialization completed at t[s]:      0.00
Run totals: 38 processes, 48 threads, 0 GPUs


Input parsed successfully to the following command list (including defaults):

basis kpoint-dependent
coords-type Lattice
core-overlap-check vector
coulomb-interaction Slab 001
davidson-band-ratio 1.1
dump End None
dump-name $INPUT.$VAR
elec-cutoff 20
elec-eigen-algo Davidson
elec-ex-corr gga-PBE
elec-initial-magnetization 0.700000 yes
elec-smearing Fermi 1e-05
electronic-minimize  \
	dirUpdateScheme      FletcherReeves \
	linminMethod         DirUpdateRecommended \
	nIterations          100 \
	history              15 \
	knormThreshold       0 \
	energyDiffThreshold  1e-08 \
	nEnergyDiff          2 \
	alphaTstart          1 \
	alphaTmin            1e-10 \
	updateTestStepSize   yes \
	alphaTreduceFactor   0.1 \
	alphaTincreaseFactor 3 \
	nAlphaAdjustMax      3 \
	wolfeEnergy          0.0001 \
	wolfeGradient        0.9 \
	fdTest               no
electronic-scf  \
	nIterations	1000 \
	energyDiffThreshold	1e-08 \
	residualThreshold	1e-07 \
	mixFraction	0.5 \
	qMetric	0.8 \
	history	10 \
	nEigSteps	2 \
	eigDiffThreshold	1e-08 \
	mixedVariable	Density \
	qKerker	0.8 \
	qKappa	-1 \
	verbose	no \
	mixFractionMag	1.5
exchange-regularization WignerSeitzTruncated
fluid None
fluid-ex-corr (null) lda-PZ
fluid-gummel-loop 10 1.000000e-05
fluid-minimize  \
	dirUpdateScheme      PolakRibiere \
	linminMethod         DirUpdateRecommended \
	nIterations          100 \
	history              15 \
	knormThreshold       0 \
	energyDiffThreshold  0 \
	nEnergyDiff          2 \
	alphaTstart          1 \
	alphaTmin            1e-10 \
	updateTestStepSize   yes \
	alphaTreduceFactor   0.1 \
	alphaTincreaseFactor 3 \
	nAlphaAdjustMax      3 \
	wolfeEnergy          0.0001 \
	wolfeGradient        0.9 \
	fdTest               no
fluid-solvent H2O 55.338 ScalarEOS \
	epsBulk 78.4 \
	pMol 0.92466 \
	epsInf 1.77 \
	Pvap 1.06736e-10 \
	sigmaBulk 4.62e-05 \
	Rvdw 2.61727 \
	Res 1.42 \
	tauNuc 343133 \
	poleEl 15 7 1
forces-output-coords Positions
ion C   0.000000000000000  -0.000000000000000   0.000000000000000 1
ion N   0.108900118656067   0.217800237312134   0.000000000000000 1
ion N   0.111440932313158   0.555720466156579   0.000000000000000 1
ion N   0.108900118656067   0.891099881343933   0.000000000000000 1
ion N   0.444600551142632   0.222300275571316   0.000000000000000 1
ion N   0.444279533843421   0.555720466156579   0.000000000000000 1
ion N   0.444279533843421   0.888559067686842   0.000000000000000 1
ion N   0.777699724428684   0.222300275571316   0.000000000000000 1
ion N   0.777699724428684   0.555399448857368   0.000000000000000 1
ion N   0.782199762687866   0.891099881343933   0.000000000000000 1
ion B  -0.000409163333578   0.332352225367090  -0.000000000000000 1
ion B  -0.000409163333578   0.667238611299332  -0.000000000000000 1
ion B   0.332761388700668   0.000409163333578   0.000000000000000 1
ion B   0.332761388700668   0.332352225367090  -0.000000000000000 1
ion B   0.333333333333333   0.666666666666667   0.000000000000000 1
ion B   0.667647774632910   0.000409163333578   0.000000000000000 1
ion B   0.666666666666667   0.333333333333333   0.000000000000000 1
ion B   0.667647774632910   0.667238611299332   0.000000000000000 1
ion-species SG15/$ID_ONCV_PBE.upf
ion-width 0
ionic-minimize  \
	dirUpdateScheme      L-BFGS \
	linminMethod         DirUpdateRecommended \
	nIterations          0 \
	history              15 \
	knormThreshold       0.0001 \
	energyDiffThreshold  1e-06 \
	nEnergyDiff          2 \
	alphaTstart          1 \
	alphaTmin            1e-10 \
	updateTestStepSize   yes \
	alphaTreduceFactor   0.1 \
	alphaTincreaseFactor 3 \
	nAlphaAdjustMax      3 \
	wolfeEnergy          0.0001 \
	wolfeGradient        0.9 \
	fdTest               no
kpoint   0.000000000000   0.000000000000   0.000000000000  1.00000000000000
kpoint-folding 12 12 1 
latt-move-scale 1 1 1
latt-scale 1 1 1 
lattice  \
	  14.116397090998559   -7.058198545499275    0.000000000000000  \
	  -0.000000000000000   12.225158490713497    0.000000000000000  \
	   0.000000000000000    0.000000000000000   40.000000000000000 
lattice-minimize  \
	dirUpdateScheme      L-BFGS \
	linminMethod         DirUpdateRecommended \
	nIterations          0 \
	history              15 \
	knormThreshold       0 \
	energyDiffThreshold  1e-06 \
	nEnergyDiff          2 \
	alphaTstart          1 \
	alphaTmin            1e-10 \
	updateTestStepSize   yes \
	alphaTreduceFactor   0.1 \
	alphaTincreaseFactor 3 \
	nAlphaAdjustMax      3 \
	wolfeEnergy          0.0001 \
	wolfeGradient        0.9 \
	fdTest               no
lcao-params -1 1e-06 1e-05
pcm-variant GLSSA13
spintype z-spin
subspace-rotation-factor 1 yes
symmetries automatic
symmetry-threshold 0.0001



---------- Setting up symmetries ----------

Found 24 point-group symmetries of the bravais lattice
Found 12 space-group symmetries with basis
Applied RMS atom displacement 2.54347e-15 bohrs to make symmetries exact.

---------- Initializing the Grid ----------
R = 
[      14.1164      -7.0582            0  ]
[            0      12.2252            0  ]
[            0            0           40  ]
unit cell volume = 6903.01
G =
[   0.445098   0.256978         -0  ]
[          0   0.513955         -0  ]
[         -0         -0    0.15708  ]
Minimum fftbox size, Smin = [  60  60  164  ]
Chosen fftbox size, S = [  60  60  168  ]

---------- Exchange Correlation functional ----------
Initalized PBE GGA exchange.
Initalized PBE GGA correlation.

---------- Setting up pseudopotentials ----------
Width of ionic core gaussian charges (only for fluid interactions / plotting) set to 0

Reading pseudopotential file '/home/gridsan/aligho/DFT/build-Nov24/pseudopotentials/SG15/C_ONCV_PBE.upf':
  'C' pseudopotential, 'PBE' functional
  Generated using ONCVPSP code by D. R. Hamann
  Author: Martin Schlipf and Francois Gygi  Date: 150915.
  4 valence electrons, 2 orbitals, 4 projectors, 1248 radial grid points, with lMax = 1
  Transforming local potential to a uniform radial grid of dG=0.02 with 1495 points.
  Transforming nonlocal projectors to a uniform radial grid of dG=0.02 with 432 points.
    2S    l: 0   occupation:  2.0   eigenvalue: -0.505335
    2P    l: 1   occupation:  2.0   eigenvalue: -0.194238
  Transforming atomic orbitals to a uniform radial grid of dG=0.02 with 432 points.
  Core radius for overlap checks: 1.23 bohrs.
  Reading pulay file /home/gridsan/aligho/DFT/build-Nov24/pseudopotentials/SG15/C_ONCV_PBE.pulay ... using dE_dnG = -9.239532e-03 computed for Ecut = 20.

Reading pseudopotential file '/home/gridsan/aligho/DFT/build-Nov24/pseudopotentials/SG15/N_ONCV_PBE.upf':
  'N' pseudopotential, 'PBE' functional
  Generated using ONCVPSP code by D. R. Hamann
  Author: Martin Schlipf and Francois Gygi  Date: 150915.
  5 valence electrons, 2 orbitals, 4 projectors, 1058 radial grid points, with lMax = 1
  Transforming local potential to a uniform radial grid of dG=0.02 with 1495 points.
  Transforming nonlocal projectors to a uniform radial grid of dG=0.02 with 432 points.
    2S    l: 0   occupation:  2.0   eigenvalue: -0.682907
    2P    l: 1   occupation:  3.0   eigenvalue: -0.260548
  Transforming atomic orbitals to a uniform radial grid of dG=0.02 with 432 points.
  Core radius for overlap checks: 1.35 bohrs.
  Reading pulay file /home/gridsan/aligho/DFT/build-Nov24/pseudopotentials/SG15/N_ONCV_PBE.pulay ... using dE_dnG = -2.956256e-02 computed for Ecut = 20.

Reading pseudopotential file '/home/gridsan/aligho/DFT/build-Nov24/pseudopotentials/SG15/B_ONCV_PBE.upf':
  'B' pseudopotential, 'PBE' functional
  Generated using ONCVPSP code by D. R. Hamann
  Author: Martin Schlipf and Francois Gygi  Date: 150915.
  3 valence electrons, 2 orbitals, 4 projectors, 1534 radial grid points, with lMax = 1
  Transforming local potential to a uniform radial grid of dG=0.02 with 1495 points.
  Transforming nonlocal projectors to a uniform radial grid of dG=0.02 with 432 points.
    2S    l: 0   occupation:  2.0   eigenvalue: -0.347027
    2P    l: 1   occupation:  1.0   eigenvalue: -0.132548
  Transforming atomic orbitals to a uniform radial grid of dG=0.02 with 432 points.
  Core radius for overlap checks: 1.60 bohrs.
  Reading pulay file /home/gridsan/aligho/DFT/build-Nov24/pseudopotentials/SG15/B_ONCV_PBE.pulay ... using dE_dnG = -3.748568e-04 computed for Ecut = 20.

Initialized 3 species with 18 total atoms.

Folded 1 k-points by 12x12x1 to 144 k-points.

---------- Setting up k-points, bands, fillings ----------
Adding inversion symmetry to k-mesh for non-inversion-symmetric unit cell.
Reduced to 19 k-points under symmetry. 
Computing the number of bands and number of electrons
Calculating initial fillings.
nElectrons:  73.000000   nBands: 72   nStates: 38

----- Setting up reduced wavefunction bases (one per k-point) -----
average nbasis = 29490.146 , ideal nbasis = 29490.175

---------- Setting up coulomb interaction ----------
Initialized slab truncation along lattice direction 001

---------- Setting up 2D ewald sum ----------
Optimum gaussian width for ewald sums = 7.836854 bohr.
Real space sums over 289 unit cells with max indices [  8  8  0  ]
Reciprocal space sums over 81 terms with max indices [  4  4  0  ]

---------- Allocating electronic variables ----------
Initializing wave functions:  linear combination of atomic orbitals
C pseudo-atom occupations:   s ( 2 )  p ( 2 )
N pseudo-atom occupations:   s ( 2 )  p ( 3 )
B pseudo-atom occupations:   s ( 2 )  p ( 1 )
[d-16-13-4:77570] 37 more processes have sent help message help-mpi-common-cuda.txt / dlopen failed
[d-16-13-4:77570] Set MCA parameter "orte_base_help_aggregate" to 0 to see all help / error messages
[d-16-13-4:77570] 37 more processes have sent help message help-mpi-btl-openib-cpc-base.txt / no cpcs for port
	FillingsUpdate:  mu: -0.191896290  nElectrons: 73.000000  magneticMoment: [ Abs: 0.72715  Tot: +0.70000 ]
LCAOMinimize: Iter:   0  F: -116.5243947690268982  |grad|_K:  4.465e-03  alpha:  1.000e+00
	FillingsUpdate:  mu: -0.217596295  nElectrons: 73.000000  magneticMoment: [ Abs: 0.73381  Tot: +0.70000 ]
LCAOMinimize: Iter:   1  F: -117.1903647892325040  |grad|_K:  9.920e-04  alpha:  4.006e-01  linmin:  1.736e-01  cgtest: -5.968e-01  t[s]:     25.54
	FillingsUpdate:  mu: -0.183774636  nElectrons: 73.000000  magneticMoment: [ Abs: 0.73630  Tot: +0.70000 ]
LCAOMinimize: Iter:   2  F: -117.2051520519812868  |grad|_K:  6.020e-04  alpha:  2.561e-01  linmin:  1.367e-03  cgtest:  7.494e-01  t[s]:     33.24
LCAOMinimize: Encountered beta<0, resetting CG.
	FillingsUpdate:  mu: -0.171184438  nElectrons: 73.000000  magneticMoment: [ Abs: 0.73827  Tot: +0.70000 ]
LCAOMinimize: Iter:   3  F: -117.2178861849390756  |grad|_K:  1.071e-04  alpha:  3.483e-01  linmin:  1.524e-02  cgtest: -7.069e-02  t[s]:     41.01
	FillingsUpdate:  mu: -0.175028086  nElectrons: 73.000000  magneticMoment: [ Abs: 0.73959  Tot: +0.70000 ]
LCAOMinimize: Iter:   4  F: -117.2182908994351607  |grad|_K:  1.373e-05  alpha:  3.536e-01  linmin:  1.122e-02  cgtest:  1.314e-01  t[s]:     48.72
LCAOMinimize: Encountered beta<0, resetting CG.
	FillingsUpdate:  mu: -0.175330923  nElectrons: 73.000000  magneticMoment: [ Abs: 0.74104  Tot: +0.70000 ]
LCAOMinimize: Iter:   5  F: -117.2183020700542642  |grad|_K:  9.037e-06  alpha:  5.849e-01  linmin: -1.030e-05  cgtest:  9.500e-04  t[s]:     56.49
	FillingsUpdate:  mu: -0.175030493  nElectrons: 73.000000  magneticMoment: [ Abs: 0.74275  Tot: +0.70000 ]
LCAOMinimize: Iter:   6  F: -117.2183077555141182  |grad|_K:  3.836e-06  alpha:  6.869e-01  linmin: -1.974e-03  cgtest:  7.909e-03  t[s]:     64.16
	FillingsUpdate:  mu: -0.175144911  nElectrons: 73.000000  magneticMoment: [ Abs: 0.74295  Tot: +0.70000 ]
LCAOMinimize: Iter:   7  F: -117.2183084280734562  |grad|_K:  8.713e-07  alpha:  4.496e-01  linmin:  9.928e-05  cgtest: -1.900e-02  t[s]:     71.91
	FillingsUpdate:  mu: -0.175137497  nElectrons: 73.000000  magneticMoment: [ Abs: 0.74277  Tot: +0.70000 ]
LCAOMinimize: Iter:   8  F: -117.2183084934001016  |grad|_K:  3.445e-07  alpha:  8.509e-01  linmin:  8.444e-04  cgtest: -1.217e-03  t[s]:     79.74
LCAOMinimize: Converged (|Delta F|<1.000000e-06 for 2 iters).


---- Citations for features of the code used in this run ----

   Software package:
      R. Sundararaman, K. Letchworth-Weaver, K.A. Schwarz, D. Gunceler, Y. Ozhabes and T.A. Arias, 'JDFTx: software for joint density-functional theory', SoftwareX 6, 278 (2017)

   gga-PBE exchange-correlation functional:
      J.P. Perdew, K. Burke and M. Ernzerhof, Phys. Rev. Lett. 77, 3865 (1996)

   Pseudopotentials:
      M Schlipf and F Gygi, Comput. Phys. Commun. 196, 36 (2015)

   Truncated Coulomb potentials:
      R. Sundararaman and T.A. Arias, Phys. Rev. B 87, 165122 (2013)

This list may not be complete. Please suggest additional citations or
report any other bugs at https://github.com/shankar1729/jdftx/issues

Initialization completed successfully at t[s]:     80.51


-------- Electronic minimization -----------
Will mix electronic density at each iteration.
	FillingsUpdate:  mu: -0.175137497  nElectrons: 73.000000  magneticMoment: [ Abs: 0.74277  Tot: +0.70000 ]
	FillingsUpdate:  mu: -0.190397100  nElectrons: 73.000000  magneticMoment: [ Abs: 0.74277  Tot: +0.70000 ]
SCF: Cycle:  0   F: -118.144953193154123   dF: -9.266e-01   |Residual|: 3.369e-01   |deigs|: 1.137e-01  t[s]:    101.43
	FillingsUpdate:  mu: -0.169077598  nElectrons: 73.000000  magneticMoment: [ Abs: 0.77828  Tot: +0.70000 ]
SCF: Cycle:  1   F: -118.184009737766445   dF: -3.906e-02   |Residual|: 1.878e-01   |deigs|: 2.531e-02  t[s]:    116.96
	FillingsUpdate:  mu: -0.140221156  nElectrons: 73.000000  magneticMoment: [ Abs: 0.79334  Tot: +0.70000 ]
SCF: Cycle:  2   F: -118.209686111890989   dF: -2.568e-02   |Residual|: 4.097e-02   |deigs|: 2.998e-02  t[s]:    132.59
	FillingsUpdate:  mu: -0.136927616  nElectrons: 73.000000  magneticMoment: [ Abs: 0.79577  Tot: +0.70000 ]
SCF: Cycle:  3   F: -118.210477729978379   dF: -7.916e-04   |Residual|: 2.284e-02   |deigs|: 7.879e-03  t[s]:    148.25
	FillingsUpdate:  mu: -0.125730185  nElectrons: 73.000000  magneticMoment: [ Abs: 0.78297  Tot: +0.70000 ]
SCF: Cycle:  4   F: -118.211877708894917   dF: -1.400e-03   |Residual|: 1.222e-02   |deigs|: 1.009e-02  t[s]:    164.05
	FillingsUpdate:  mu: -0.120718546  nElectrons: 73.000000  magneticMoment: [ Abs: 0.78894  Tot: +0.70000 ]
SCF: Cycle:  5   F: -118.212215611470626   dF: -3.379e-04   |Residual|: 9.379e-03   |deigs|: 4.335e-03  t[s]:    179.90
	FillingsUpdate:  mu: -0.114590673  nElectrons: 73.000000  magneticMoment: [ Abs: 0.78560  Tot: +0.70000 ]
SCF: Cycle:  6   F: -118.212329502717580   dF: -1.139e-04   |Residual|: 6.017e-03   |deigs|: 5.517e-03  t[s]:    195.84
	FillingsUpdate:  mu: -0.109986396  nElectrons: 73.000000  magneticMoment: [ Abs: 0.78366  Tot: +0.70000 ]
SCF: Cycle:  7   F: -118.212306323334417   dF: +2.318e-05   |Residual|: 4.846e-03   |deigs|: 5.816e-03  t[s]:    211.72
	FillingsUpdate:  mu: -0.105778847  nElectrons: 73.000000  magneticMoment: [ Abs: 0.78548  Tot: +0.70000 ]
SCF: Cycle:  8   F: -118.212369324276764   dF: -6.300e-05   |Residual|: 3.964e-03   |deigs|: 4.227e-03  t[s]:    227.75
	FillingsUpdate:  mu: -0.102744463  nElectrons: 73.000000  magneticMoment: [ Abs: 0.78281  Tot: +0.70000 ]
SCF: Cycle:  9   F: -118.212415963140089   dF: -4.664e-05   |Residual|: 3.046e-03   |deigs|: 3.217e-03  t[s]:    243.75
	FillingsUpdate:  mu: -0.100548629  nElectrons: 73.000000  magneticMoment: [ Abs: 0.78354  Tot: +0.70000 ]
SCF: Cycle: 10   F: -118.212440975913324   dF: -2.501e-05   |Residual|: 2.641e-03   |deigs|: 2.307e-03  t[s]:    260.02
	FillingsUpdate:  mu: -0.097497089  nElectrons: 73.000000  magneticMoment: [ Abs: 0.78400  Tot: +0.70000 ]
SCF: Cycle: 11   F: -118.212458473478904   dF: -1.750e-05   |Residual|: 2.142e-03   |deigs|: 2.885e-03  t[s]:    276.13
	FillingsUpdate:  mu: -0.095099801  nElectrons: 73.000000  magneticMoment: [ Abs: 0.78296  Tot: +0.70000 ]
SCF: Cycle: 12   F: -118.212465042670317   dF: -6.569e-06   |Residual|: 1.960e-03   |deigs|: 2.207e-03  t[s]:    292.28
	FillingsUpdate:  mu: -0.091600893  nElectrons: 73.000000  magneticMoment: [ Abs: 0.78410  Tot: +0.70000 ]
SCF: Cycle: 13   F: -118.212468208502287   dF: -3.166e-06   |Residual|: 1.682e-03   |deigs|: 3.312e-03  t[s]:    308.47
	FillingsUpdate:  mu: -0.087993325  nElectrons: 73.000000  magneticMoment: [ Abs: 0.78245  Tot: +0.70000 ]
SCF: Cycle: 14   F: -118.212467441802545   dF: +7.667e-07   |Residual|: 1.653e-03   |deigs|: 3.184e-03  t[s]:    324.62
	FillingsUpdate:  mu: -0.084174175  nElectrons: 73.000000  magneticMoment: [ Abs: 0.78368  Tot: +0.70000 ]
SCF: Cycle: 15   F: -118.212468202558796   dF: -7.608e-07   |Residual|: 1.476e-03   |deigs|: 3.455e-03  t[s]:    340.80
	FillingsUpdate:  mu: -0.080338395  nElectrons: 73.000000  magneticMoment: [ Abs: 0.78370  Tot: +0.70000 ]
SCF: Cycle: 16   F: -118.212470914840381   dF: -2.712e-06   |Residual|: 1.201e-03   |deigs|: 3.591e-03  t[s]:    357.03
	FillingsUpdate:  mu: -0.078295826  nElectrons: 73.000000  magneticMoment: [ Abs: 0.78224  Tot: +0.70000 ]
SCF: Cycle: 17   F: -118.212476044209438   dF: -5.129e-06   |Residual|: 9.183e-04   |deigs|: 1.784e-03  t[s]:    373.16
	FillingsUpdate:  mu: -0.077146833  nElectrons: 73.000000  magneticMoment: [ Abs: 0.78191  Tot: +0.70000 ]
SCF: Cycle: 18   F: -118.212478940170286   dF: -2.896e-06   |Residual|: 5.834e-04   |deigs|: 1.222e-03  t[s]:    389.40
	FillingsUpdate:  mu: -0.076658252  nElectrons: 73.000000  magneticMoment: [ Abs: 0.78170  Tot: +0.70000 ]
SCF: Cycle: 19   F: -118.212479704678088   dF: -7.645e-07   |Residual|: 3.679e-04   |deigs|: 4.916e-04  t[s]:    405.59
	FillingsUpdate:  mu: -0.076337866  nElectrons: 73.000000  magneticMoment: [ Abs: 0.78176  Tot: +0.70000 ]
SCF: Cycle: 20   F: -118.212480084778690   dF: -3.801e-07   |Residual|: 2.381e-04   |deigs|: 5.732e-04  t[s]:    421.74
	FillingsUpdate:  mu: -0.076136039  nElectrons: 73.000000  magneticMoment: [ Abs: 0.78158  Tot: +0.70000 ]
SCF: Cycle: 21   F: -118.212480286442855   dF: -2.017e-07   |Residual|: 1.560e-04   |deigs|: 3.874e-04  t[s]:    437.87
	FillingsUpdate:  mu: -0.075931097  nElectrons: 73.000000  magneticMoment: [ Abs: 0.78146  Tot: +0.70000 ]
SCF: Cycle: 22   F: -118.212480407452247   dF: -1.210e-07   |Residual|: 8.126e-05   |deigs|: 9.166e-04  t[s]:    453.98
	FillingsUpdate:  mu: -0.075859471  nElectrons: 73.000000  magneticMoment: [ Abs: 0.78139  Tot: +0.70000 ]
SCF: Cycle: 23   F: -118.212480438326153   dF: -3.087e-08   |Residual|: 5.915e-05   |deigs|: 1.638e-04  t[s]:    470.13
	FillingsUpdate:  mu: -0.075798702  nElectrons: 73.000000  magneticMoment: [ Abs: 0.78135  Tot: +0.70000 ]
SCF: Cycle: 24   F: -118.212480456069471   dF: -1.774e-08   |Residual|: 3.423e-05   |deigs|: 2.398e-04  t[s]:    486.34
	FillingsUpdate:  mu: -0.075771978  nElectrons: 73.000000  magneticMoment: [ Abs: 0.78132  Tot: +0.70000 ]
SCF: Cycle: 25   F: -118.212480462207026   dF: -6.138e-09   |Residual|: 2.069e-05   |deigs|: 2.923e-04  t[s]:    502.55
	FillingsUpdate:  mu: -0.075761518  nElectrons: 73.000000  magneticMoment: [ Abs: 0.78130  Tot: +0.70000 ]
SCF: Cycle: 26   F: -118.212480464554787   dF: -2.348e-09   |Residual|: 1.214e-05   |deigs|: 1.423e-04  t[s]:    518.80
SCF: Converged (|Delta E|<1.000000e-08 for 2 iters).


# Ionic positions in lattice coordinates:
ion C  -0.000000000000000   0.000000000000000   0.000000000000000 1
ion N   0.108900118656067   0.217800237312134   0.000000000000000 1
ion N   0.111440932313158   0.555720466156579   0.000000000000000 1
ion N   0.108900118656067   0.891099881343933   0.000000000000000 1
ion N   0.444600551142632   0.222300275571316   0.000000000000000 1
ion N   0.444279533843421   0.555720466156579   0.000000000000000 1
ion N   0.444279533843421   0.888559067686842   0.000000000000000 1
ion N   0.777699724428684   0.222300275571316   0.000000000000000 1
ion N   0.777699724428684   0.555399448857368   0.000000000000000 1
ion N   0.782199762687866   0.891099881343933   0.000000000000000 1
ion B  -0.000409163333578   0.332352225367090   0.000000000000000 1
ion B  -0.000409163333578   0.667238611299332   0.000000000000000 1
ion B   0.332761388700668   0.000409163333578   0.000000000000000 1
ion B   0.332761388700668   0.332352225367090   0.000000000000000 1
ion B   0.333333333333333   0.666666666666667   0.000000000000000 1
ion B   0.667647774632910   0.000409163333578   0.000000000000000 1
ion B   0.666666666666667   0.333333333333333   0.000000000000000 1
ion B   0.667647774632910   0.667238611299332   0.000000000000000 1

# Forces in Lattice coordinates:
force C   0.000000000000000   0.000000000000000   0.000000000000000 1
force N   0.000000000000000  -0.057344872907682   0.000000000000000 1
force N   0.007421095563046   0.000000000000000   0.000000000000000 1
force N  -0.057344872907680   0.057344872907680   0.000000000000000 1
force N  -0.008238579338812  -0.000000000000000   0.000000000000000 1
force N  -0.007421095563046   0.007421095563046   0.000000000000000 1
force N   0.000000000000000  -0.007421095563046   0.000000000000000 1
force N   0.008238579338812  -0.008238579338812  -0.000000000000000 1
force N   0.000000000000000   0.008238579338812  -0.000000000000000 1
force N   0.057344872907678   0.000000000000000   0.000000000000000 1
force B  -0.022531950456311   0.015990368379543   0.000000000000000 1
force B  -0.006541582076769  -0.015990368379543   0.000000000000000 1
force B   0.015990368379543   0.006541582076769   0.000000000000000 1
force B   0.022531950456311  -0.006541582076768   0.000000000000000 1
force B   0.000000000000000  -0.000000000000000   0.000000000000000 1
force B  -0.015990368379543   0.022531950456311   0.000000000000000 1
force B   0.000000000000000   0.000000000000000   0.000000000000000 1
force B   0.006541582076769  -0.022531950456311  -0.000000000000000 1

# Energy components:
   Eewald =     -185.5884594997991428
       EH =      -93.0233814623202306
     Eloc =      115.4544278828140449
      Enl =       -5.2769889421472964
   Epulay =       -0.0000011688465181
      Exc =      -33.7531139239343645
       KE =       83.9750373890686745
-------------------------------------
     Etot =     -118.2124797251647834
       TS =        0.0000007393899996
-------------------------------------
        F =     -118.2124804645547869

IonicMinimize: Iter:   0  F: -118.212480464554787  |grad|_K:  1.252e-03  t[s]:    520.21
IonicMinimize: None of the convergence criteria satisfied after 0 iterations.

#--- Lowdin population analysis ---
# oxidation-state C +0.271
# magnetic-moments C +0.412
# oxidation-state N -0.265 -0.372 -0.265 -0.376 -0.372 -0.372 -0.376 -0.376 -0.265
# magnetic-moments N +0.004 -0.003 +0.004 +0.018 -0.003 -0.003 +0.018 +0.018 +0.004
# oxidation-state B +0.430 +0.430 +0.430 +0.430 +0.430 +0.430 +0.426 +0.430
# magnetic-moments B +0.032 +0.032 +0.032 +0.032 +0.008 +0.032 +0.011 +0.032

End date and time: Sun Feb  6 19:50:16 2022  (Duration: 0-0:08:40.55)
Done!
