magnetization is -0.72
--------------------------------------------------------------------------
The library attempted to open the following supporting CUDA libraries,
but each of them failed.  CUDA-aware support is disabled.
libcuda.so.1: cannot open shared object file: No such file or directory
libcuda.dylib: cannot open shared object file: No such file or directory
/usr/lib64/libcuda.so.1: cannot open shared object file: No such file or directory
/usr/lib64/libcuda.dylib: cannot open shared object file: No such file or directory
If you are not interested in CUDA-aware support, then run with
--mca opal_warn_on_missing_libcuda 0 to suppress this message.  If you are interested
in CUDA-aware support, then try setting LD_LIBRARY_PATH to the location
of libcuda.so.1 to get passed this issue.
--------------------------------------------------------------------------
--------------------------------------------------------------------------
No OpenFabrics connection schemes reported that they were able to be
used on a specific port.  As such, the openib BTL (OpenFabrics
support) will be disabled for this port.

  Local host:           d-3-5-4
  Local device:         mlx5_1
  Local port:           1
  CPCs attempted:       rdmacm, udcm
--------------------------------------------------------------------------

*************** JDFTx 1.6.0 (git hash 42ebbcc2) ***************

Start date and time: Sun Feb  6 19:15:29 2022
Executable jdftx with command-line: -i BN33BC.in
Running on hosts (process indices):  d-3-5-4 (0-37)
Divided in process groups (process indices):  0 (0)  1 (1)  2 (2)  3 (3)  4 (4)  5 (5)  6 (6)  7 (7)  8 (8)  9 (9)  10 (10)  11 (11)  12 (12)  13 (13)  14 (14)  15 (15)  16 (16)  17 (17)  18 (18)  19 (19)  20 (20)  21 (21)  22 (22)  23 (23)  24 (24)  25 (25)  26 (26)  27 (27)  28 (28)  29 (29)  30 (30)  31 (31)  32 (32)  33 (33)  34 (34)  35 (35)  36 (36)  37 (37)
Resource initialization completed at t[s]:      0.00
Run totals: 38 processes, 48 threads, 0 GPUs


Input parsed successfully to the following command list (including defaults):

basis kpoint-dependent
coords-type Lattice
core-overlap-check vector
coulomb-interaction Slab 001
davidson-band-ratio 1.1
dump End None
dump-name $INPUT.$VAR
elec-cutoff 20
elec-eigen-algo Davidson
elec-ex-corr gga-PBE
elec-initial-magnetization -0.720000 yes
elec-smearing Fermi 1e-05
electronic-minimize  \
	dirUpdateScheme      FletcherReeves \
	linminMethod         DirUpdateRecommended \
	nIterations          100 \
	history              15 \
	knormThreshold       0 \
	energyDiffThreshold  1e-08 \
	nEnergyDiff          2 \
	alphaTstart          1 \
	alphaTmin            1e-10 \
	updateTestStepSize   yes \
	alphaTreduceFactor   0.1 \
	alphaTincreaseFactor 3 \
	nAlphaAdjustMax      3 \
	wolfeEnergy          0.0001 \
	wolfeGradient        0.9 \
	fdTest               no
electronic-scf  \
	nIterations	1000 \
	energyDiffThreshold	1e-08 \
	residualThreshold	1e-07 \
	mixFraction	0.5 \
	qMetric	0.8 \
	history	10 \
	nEigSteps	2 \
	eigDiffThreshold	1e-08 \
	mixedVariable	Density \
	qKerker	0.8 \
	qKappa	-1 \
	verbose	no \
	mixFractionMag	1.5
exchange-regularization WignerSeitzTruncated
fluid None
fluid-ex-corr (null) lda-PZ
fluid-gummel-loop 10 1.000000e-05
fluid-minimize  \
	dirUpdateScheme      PolakRibiere \
	linminMethod         DirUpdateRecommended \
	nIterations          100 \
	history              15 \
	knormThreshold       0 \
	energyDiffThreshold  0 \
	nEnergyDiff          2 \
	alphaTstart          1 \
	alphaTmin            1e-10 \
	updateTestStepSize   yes \
	alphaTreduceFactor   0.1 \
	alphaTincreaseFactor 3 \
	nAlphaAdjustMax      3 \
	wolfeEnergy          0.0001 \
	wolfeGradient        0.9 \
	fdTest               no
fluid-solvent H2O 55.338 ScalarEOS \
	epsBulk 78.4 \
	pMol 0.92466 \
	epsInf 1.77 \
	Pvap 1.06736e-10 \
	sigmaBulk 4.62e-05 \
	Rvdw 2.61727 \
	Res 1.42 \
	tauNuc 343133 \
	poleEl 15 7 1
forces-output-coords Positions
ion C   0.000000000000000  -0.000000000000000   0.000000000000000 1
ion N   0.108900118656067   0.217800237312134   0.000000000000000 1
ion N   0.111440932313158   0.555720466156579   0.000000000000000 1
ion N   0.108900118656067   0.891099881343933   0.000000000000000 1
ion N   0.444600551142632   0.222300275571316   0.000000000000000 1
ion N   0.444279533843421   0.555720466156579   0.000000000000000 1
ion N   0.444279533843421   0.888559067686842   0.000000000000000 1
ion N   0.777699724428684   0.222300275571316   0.000000000000000 1
ion N   0.777699724428684   0.555399448857368   0.000000000000000 1
ion N   0.782199762687866   0.891099881343933   0.000000000000000 1
ion B  -0.000409163333578   0.332352225367090  -0.000000000000000 1
ion B  -0.000409163333578   0.667238611299332  -0.000000000000000 1
ion B   0.332761388700668   0.000409163333578   0.000000000000000 1
ion B   0.332761388700668   0.332352225367090  -0.000000000000000 1
ion B   0.333333333333333   0.666666666666667   0.000000000000000 1
ion B   0.667647774632910   0.000409163333578   0.000000000000000 1
ion B   0.666666666666667   0.333333333333333   0.000000000000000 1
ion B   0.667647774632910   0.667238611299332   0.000000000000000 1
ion-species SG15/$ID_ONCV_PBE.upf
ion-width 0
ionic-minimize  \
	dirUpdateScheme      L-BFGS \
	linminMethod         DirUpdateRecommended \
	nIterations          0 \
	history              15 \
	knormThreshold       0.0001 \
	energyDiffThreshold  1e-06 \
	nEnergyDiff          2 \
	alphaTstart          1 \
	alphaTmin            1e-10 \
	updateTestStepSize   yes \
	alphaTreduceFactor   0.1 \
	alphaTincreaseFactor 3 \
	nAlphaAdjustMax      3 \
	wolfeEnergy          0.0001 \
	wolfeGradient        0.9 \
	fdTest               no
kpoint   0.000000000000   0.000000000000   0.000000000000  1.00000000000000
kpoint-folding 12 12 1 
latt-move-scale 1 1 1
latt-scale 1 1 1 
lattice  \
	  14.116397090998559   -7.058198545499275    0.000000000000000  \
	  -0.000000000000000   12.225158490713497    0.000000000000000  \
	   0.000000000000000    0.000000000000000   40.000000000000000 
lattice-minimize  \
	dirUpdateScheme      L-BFGS \
	linminMethod         DirUpdateRecommended \
	nIterations          0 \
	history              15 \
	knormThreshold       0 \
	energyDiffThreshold  1e-06 \
	nEnergyDiff          2 \
	alphaTstart          1 \
	alphaTmin            1e-10 \
	updateTestStepSize   yes \
	alphaTreduceFactor   0.1 \
	alphaTincreaseFactor 3 \
	nAlphaAdjustMax      3 \
	wolfeEnergy          0.0001 \
	wolfeGradient        0.9 \
	fdTest               no
lcao-params -1 1e-06 1e-05
pcm-variant GLSSA13
spintype z-spin
subspace-rotation-factor 1 yes
symmetries automatic
symmetry-threshold 0.0001



---------- Setting up symmetries ----------

Found 24 point-group symmetries of the bravais lattice
Found 12 space-group symmetries with basis
Applied RMS atom displacement 2.54347e-15 bohrs to make symmetries exact.

---------- Initializing the Grid ----------
R = 
[      14.1164      -7.0582            0  ]
[            0      12.2252            0  ]
[            0            0           40  ]
unit cell volume = 6903.01
G =
[   0.445098   0.256978         -0  ]
[          0   0.513955         -0  ]
[         -0         -0    0.15708  ]
Minimum fftbox size, Smin = [  60  60  164  ]
Chosen fftbox size, S = [  60  60  168  ]

---------- Exchange Correlation functional ----------
Initalized PBE GGA exchange.
Initalized PBE GGA correlation.

---------- Setting up pseudopotentials ----------
Width of ionic core gaussian charges (only for fluid interactions / plotting) set to 0

Reading pseudopotential file '/home/gridsan/aligho/DFT/build-Nov24/pseudopotentials/SG15/C_ONCV_PBE.upf':
  'C' pseudopotential, 'PBE' functional
  Generated using ONCVPSP code by D. R. Hamann
  Author: Martin Schlipf and Francois Gygi  Date: 150915.
  4 valence electrons, 2 orbitals, 4 projectors, 1248 radial grid points, with lMax = 1
  Transforming local potential to a uniform radial grid of dG=0.02 with 1495 points.
  Transforming nonlocal projectors to a uniform radial grid of dG=0.02 with 432 points.
    2S    l: 0   occupation:  2.0   eigenvalue: -0.505335
    2P    l: 1   occupation:  2.0   eigenvalue: -0.194238
  Transforming atomic orbitals to a uniform radial grid of dG=0.02 with 432 points.
  Core radius for overlap checks: 1.23 bohrs.
  Reading pulay file /home/gridsan/aligho/DFT/build-Nov24/pseudopotentials/SG15/C_ONCV_PBE.pulay ... using dE_dnG = -9.239532e-03 computed for Ecut = 20.

Reading pseudopotential file '/home/gridsan/aligho/DFT/build-Nov24/pseudopotentials/SG15/N_ONCV_PBE.upf':
  'N' pseudopotential, 'PBE' functional
  Generated using ONCVPSP code by D. R. Hamann
  Author: Martin Schlipf and Francois Gygi  Date: 150915.
  5 valence electrons, 2 orbitals, 4 projectors, 1058 radial grid points, with lMax = 1
  Transforming local potential to a uniform radial grid of dG=0.02 with 1495 points.
  Transforming nonlocal projectors to a uniform radial grid of dG=0.02 with 432 points.
    2S    l: 0   occupation:  2.0   eigenvalue: -0.682907
    2P    l: 1   occupation:  3.0   eigenvalue: -0.260548
  Transforming atomic orbitals to a uniform radial grid of dG=0.02 with 432 points.
  Core radius for overlap checks: 1.35 bohrs.
  Reading pulay file /home/gridsan/aligho/DFT/build-Nov24/pseudopotentials/SG15/N_ONCV_PBE.pulay ... using dE_dnG = -2.956256e-02 computed for Ecut = 20.

Reading pseudopotential file '/home/gridsan/aligho/DFT/build-Nov24/pseudopotentials/SG15/B_ONCV_PBE.upf':
  'B' pseudopotential, 'PBE' functional
  Generated using ONCVPSP code by D. R. Hamann
  Author: Martin Schlipf and Francois Gygi  Date: 150915.
  3 valence electrons, 2 orbitals, 4 projectors, 1534 radial grid points, with lMax = 1
  Transforming local potential to a uniform radial grid of dG=0.02 with 1495 points.
  Transforming nonlocal projectors to a uniform radial grid of dG=0.02 with 432 points.
    2S    l: 0   occupation:  2.0   eigenvalue: -0.347027
    2P    l: 1   occupation:  1.0   eigenvalue: -0.132548
  Transforming atomic orbitals to a uniform radial grid of dG=0.02 with 432 points.
  Core radius for overlap checks: 1.60 bohrs.
  Reading pulay file /home/gridsan/aligho/DFT/build-Nov24/pseudopotentials/SG15/B_ONCV_PBE.pulay ... using dE_dnG = -3.748568e-04 computed for Ecut = 20.

Initialized 3 species with 18 total atoms.

Folded 1 k-points by 12x12x1 to 144 k-points.

---------- Setting up k-points, bands, fillings ----------
Adding inversion symmetry to k-mesh for non-inversion-symmetric unit cell.
Reduced to 19 k-points under symmetry. 
Computing the number of bands and number of electrons
Calculating initial fillings.
nElectrons:  73.000000   nBands: 72   nStates: 38

----- Setting up reduced wavefunction bases (one per k-point) -----
average nbasis = 29490.146 , ideal nbasis = 29490.175

---------- Setting up coulomb interaction ----------
Initialized slab truncation along lattice direction 001

---------- Setting up 2D ewald sum ----------
Optimum gaussian width for ewald sums = 7.836854 bohr.
Real space sums over 289 unit cells with max indices [  8  8  0  ]
Reciprocal space sums over 81 terms with max indices [  4  4  0  ]

---------- Allocating electronic variables ----------
Initializing wave functions:  linear combination of atomic orbitals
C pseudo-atom occupations:   s ( 2 )  p ( 2 )
N pseudo-atom occupations:   s ( 2 )  p ( 3 )
B pseudo-atom occupations:   s ( 2 )  p ( 1 )
[d-3-5-4:61844] 37 more processes have sent help message help-mpi-common-cuda.txt / dlopen failed
[d-3-5-4:61844] Set MCA parameter "orte_base_help_aggregate" to 0 to see all help / error messages
[d-3-5-4:61844] 37 more processes have sent help message help-mpi-btl-openib-cpc-base.txt / no cpcs for port
	FillingsUpdate:  mu: -0.191845599  nElectrons: 73.000000  magneticMoment: [ Abs: 0.74808  Tot: -0.72000 ]
LCAOMinimize: Iter:   0  F: -116.5252992023282275  |grad|_K:  4.462e-03  alpha:  1.000e+00
	FillingsUpdate:  mu: -0.216974082  nElectrons: 73.000000  magneticMoment: [ Abs: 0.75508  Tot: -0.72000 ]
LCAOMinimize: Iter:   1  F: -117.1907768403352463  |grad|_K:  9.873e-04  alpha:  4.006e-01  linmin:  1.647e-01  cgtest: -5.971e-01  t[s]:     25.08
	FillingsUpdate:  mu: -0.183174424  nElectrons: 73.000000  magneticMoment: [ Abs: 0.75767  Tot: -0.72000 ]
LCAOMinimize: Iter:   2  F: -117.2054535777322428  |grad|_K:  5.990e-04  alpha:  2.565e-01  linmin:  1.232e-03  cgtest:  7.491e-01  t[s]:     32.71
LCAOMinimize: Encountered beta<0, resetting CG.
	FillingsUpdate:  mu: -0.170476121  nElectrons: 73.000000  magneticMoment: [ Abs: 0.75975  Tot: -0.72000 ]
LCAOMinimize: Iter:   3  F: -117.2180765287684352  |grad|_K:  1.062e-04  alpha:  3.487e-01  linmin:  1.514e-02  cgtest: -7.043e-02  t[s]:     40.35
	FillingsUpdate:  mu: -0.174383898  nElectrons: 73.000000  magneticMoment: [ Abs: 0.76115  Tot: -0.72000 ]
LCAOMinimize: Iter:   4  F: -117.2184747946905361  |grad|_K:  1.372e-05  alpha:  3.540e-01  linmin:  1.095e-02  cgtest:  1.294e-01  t[s]:     47.89
LCAOMinimize: Encountered beta<0, resetting CG.
	FillingsUpdate:  mu: -0.174688388  nElectrons: 73.000000  magneticMoment: [ Abs: 0.76267  Tot: -0.72000 ]
LCAOMinimize: Iter:   5  F: -117.2184861031624337  |grad|_K:  9.080e-06  alpha:  5.933e-01  linmin: -5.710e-05  cgtest:  1.296e-03  t[s]:     55.50
	FillingsUpdate:  mu: -0.174384646  nElectrons: 73.000000  magneticMoment: [ Abs: 0.76442  Tot: -0.72000 ]
LCAOMinimize: Iter:   6  F: -117.2184917875806462  |grad|_K:  3.799e-06  alpha:  6.803e-01  linmin: -1.889e-03  cgtest:  6.789e-03  t[s]:     63.13
	FillingsUpdate:  mu: -0.174501877  nElectrons: 73.000000  magneticMoment: [ Abs: 0.76460  Tot: -0.72000 ]
LCAOMinimize: Iter:   7  F: -117.2184924440517761  |grad|_K:  8.606e-07  alpha:  4.475e-01  linmin: -3.019e-05  cgtest: -1.819e-02  t[s]:     70.81
	FillingsUpdate:  mu: -0.174494681  nElectrons: 73.000000  magneticMoment: [ Abs: 0.76442  Tot: -0.72000 ]
LCAOMinimize: Iter:   8  F: -117.2184925080941724  |grad|_K:  3.278e-07  alpha:  8.471e-01  linmin: -8.010e-03  cgtest:  2.471e-02  t[s]:     78.44
LCAOMinimize: Converged (|Delta F|<1.000000e-06 for 2 iters).


---- Citations for features of the code used in this run ----

   Software package:
      R. Sundararaman, K. Letchworth-Weaver, K.A. Schwarz, D. Gunceler, Y. Ozhabes and T.A. Arias, 'JDFTx: software for joint density-functional theory', SoftwareX 6, 278 (2017)

   gga-PBE exchange-correlation functional:
      J.P. Perdew, K. Burke and M. Ernzerhof, Phys. Rev. Lett. 77, 3865 (1996)

   Pseudopotentials:
      M Schlipf and F Gygi, Comput. Phys. Commun. 196, 36 (2015)

   Truncated Coulomb potentials:
      R. Sundararaman and T.A. Arias, Phys. Rev. B 87, 165122 (2013)

This list may not be complete. Please suggest additional citations or
report any other bugs at https://github.com/shankar1729/jdftx/issues

Initialization completed successfully at t[s]:     79.23


-------- Electronic minimization -----------
Will mix electronic density at each iteration.
	FillingsUpdate:  mu: -0.174494681  nElectrons: 73.000000  magneticMoment: [ Abs: 0.76442  Tot: -0.72000 ]
	FillingsUpdate:  mu: -0.190276558  nElectrons: 73.000000  magneticMoment: [ Abs: 0.76442  Tot: -0.72000 ]
SCF: Cycle:  0   F: -118.145217116686922   dF: -9.267e-01   |Residual|: 3.370e-01   |deigs|: 1.138e-01  t[s]:    100.13
	FillingsUpdate:  mu: -0.169365829  nElectrons: 73.000000  magneticMoment: [ Abs: 0.80148  Tot: -0.72000 ]
SCF: Cycle:  1   F: -118.184246124141666   dF: -3.903e-02   |Residual|: 1.878e-01   |deigs|: 2.528e-02  t[s]:    115.63
	FillingsUpdate:  mu: -0.140674050  nElectrons: 73.000000  magneticMoment: [ Abs: 0.81671  Tot: -0.72000 ]
SCF: Cycle:  2   F: -118.209907687630590   dF: -2.566e-02   |Residual|: 4.096e-02   |deigs|: 2.993e-02  t[s]:    131.19
	FillingsUpdate:  mu: -0.137388069  nElectrons: 73.000000  magneticMoment: [ Abs: 0.81898  Tot: -0.72000 ]
SCF: Cycle:  3   F: -118.210708194793781   dF: -8.005e-04   |Residual|: 2.287e-02   |deigs|: 7.816e-03  t[s]:    146.81
	FillingsUpdate:  mu: -0.126174423  nElectrons: 73.000000  magneticMoment: [ Abs: 0.80513  Tot: -0.72000 ]
SCF: Cycle:  4   F: -118.212102847672099   dF: -1.395e-03   |Residual|: 1.226e-02   |deigs|: 1.004e-02  t[s]:    162.60
	FillingsUpdate:  mu: -0.121123318  nElectrons: 73.000000  magneticMoment: [ Abs: 0.81096  Tot: -0.72000 ]
SCF: Cycle:  5   F: -118.212446475221043   dF: -3.436e-04   |Residual|: 9.431e-03   |deigs|: 4.363e-03  t[s]:    178.43
	FillingsUpdate:  mu: -0.114987011  nElectrons: 73.000000  magneticMoment: [ Abs: 0.80810  Tot: -0.72000 ]
SCF: Cycle:  6   F: -118.212562069001066   dF: -1.156e-04   |Residual|: 6.041e-03   |deigs|: 5.481e-03  t[s]:    194.30
	FillingsUpdate:  mu: -0.110328368  nElectrons: 73.000000  magneticMoment: [ Abs: 0.80628  Tot: -0.72000 ]
SCF: Cycle:  7   F: -118.212538996535514   dF: +2.307e-05   |Residual|: 4.852e-03   |deigs|: 5.870e-03  t[s]:    210.22
	FillingsUpdate:  mu: -0.106169937  nElectrons: 73.000000  magneticMoment: [ Abs: 0.80810  Tot: -0.72000 ]
SCF: Cycle:  8   F: -118.212600318420129   dF: -6.132e-05   |Residual|: 3.984e-03   |deigs|: 4.141e-03  t[s]:    226.16
	FillingsUpdate:  mu: -0.103067948  nElectrons: 73.000000  magneticMoment: [ Abs: 0.80509  Tot: -0.72000 ]
SCF: Cycle:  9   F: -118.212648218122524   dF: -4.790e-05   |Residual|: 3.048e-03   |deigs|: 3.301e-03  t[s]:    242.19
	FillingsUpdate:  mu: -0.100897455  nElectrons: 73.000000  magneticMoment: [ Abs: 0.80573  Tot: -0.72000 ]
SCF: Cycle: 10   F: -118.212672860413917   dF: -2.464e-05   |Residual|: 2.639e-03   |deigs|: 2.268e-03  t[s]:    258.29
	FillingsUpdate:  mu: -0.097852429  nElectrons: 73.000000  magneticMoment: [ Abs: 0.80678  Tot: -0.72000 ]
SCF: Cycle: 11   F: -118.212690989814647   dF: -1.813e-05   |Residual|: 2.121e-03   |deigs|: 2.912e-03  t[s]:    274.35
	FillingsUpdate:  mu: -0.095411618  nElectrons: 73.000000  magneticMoment: [ Abs: 0.80564  Tot: -0.72000 ]
SCF: Cycle: 12   F: -118.212697820286678   dF: -6.830e-06   |Residual|: 1.959e-03   |deigs|: 2.236e-03  t[s]:    290.49
	FillingsUpdate:  mu: -0.092013338  nElectrons: 73.000000  magneticMoment: [ Abs: 0.80665  Tot: -0.72000 ]
SCF: Cycle: 13   F: -118.212700894146721   dF: -3.074e-06   |Residual|: 1.688e-03   |deigs|: 3.201e-03  t[s]:    306.53
	FillingsUpdate:  mu: -0.088350695  nElectrons: 73.000000  magneticMoment: [ Abs: 0.80521  Tot: -0.72000 ]
SCF: Cycle: 14   F: -118.212700285617601   dF: +6.085e-07   |Residual|: 1.648e-03   |deigs|: 3.249e-03  t[s]:    322.58
	FillingsUpdate:  mu: -0.084512808  nElectrons: 73.000000  magneticMoment: [ Abs: 0.80617  Tot: -0.72000 ]
SCF: Cycle: 15   F: -118.212701123194307   dF: -8.376e-07   |Residual|: 1.483e-03   |deigs|: 3.474e-03  t[s]:    338.63
	FillingsUpdate:  mu: -0.080754129  nElectrons: 73.000000  magneticMoment: [ Abs: 0.80635  Tot: -0.72000 ]
SCF: Cycle: 16   F: -118.212703720208424   dF: -2.597e-06   |Residual|: 1.210e-03   |deigs|: 3.516e-03  t[s]:    354.68
	FillingsUpdate:  mu: -0.078566784  nElectrons: 73.000000  magneticMoment: [ Abs: 0.80492  Tot: -0.72000 ]
SCF: Cycle: 17   F: -118.212708881032469   dF: -5.161e-06   |Residual|: 9.143e-04   |deigs|: 1.913e-03  t[s]:    370.64
	FillingsUpdate:  mu: -0.077339383  nElectrons: 73.000000  magneticMoment: [ Abs: 0.80450  Tot: -0.72000 ]
SCF: Cycle: 18   F: -118.212711826288341   dF: -2.945e-06   |Residual|: 5.761e-04   |deigs|: 1.170e-03  t[s]:    386.69
	FillingsUpdate:  mu: -0.076824925  nElectrons: 73.000000  magneticMoment: [ Abs: 0.80427  Tot: -0.72000 ]
SCF: Cycle: 19   F: -118.212712635705444   dF: -8.094e-07   |Residual|: 3.539e-04   |deigs|: 5.529e-04  t[s]:    402.74
	FillingsUpdate:  mu: -0.076491247  nElectrons: 73.000000  magneticMoment: [ Abs: 0.80425  Tot: -0.72000 ]
SCF: Cycle: 20   F: -118.212713005124115   dF: -3.694e-07   |Residual|: 2.158e-04   |deigs|: 5.736e-04  t[s]:    418.84
	FillingsUpdate:  mu: -0.076310747  nElectrons: 73.000000  magneticMoment: [ Abs: 0.80403  Tot: -0.72000 ]
SCF: Cycle: 21   F: -118.212713175438111   dF: -1.703e-07   |Residual|: 1.366e-04   |deigs|: 2.989e-04  t[s]:    434.85
	FillingsUpdate:  mu: -0.076148848  nElectrons: 73.000000  magneticMoment: [ Abs: 0.80393  Tot: -0.72000 ]
SCF: Cycle: 22   F: -118.212713268727313   dF: -9.329e-08   |Residual|: 7.110e-05   |deigs|: 7.248e-04  t[s]:    450.82
	FillingsUpdate:  mu: -0.076090517  nElectrons: 73.000000  magneticMoment: [ Abs: 0.80385  Tot: -0.72000 ]
SCF: Cycle: 23   F: -118.212713293919748   dF: -2.519e-08   |Residual|: 5.191e-05   |deigs|: 1.608e-04  t[s]:    466.81
	FillingsUpdate:  mu: -0.076043089  nElectrons: 73.000000  magneticMoment: [ Abs: 0.80380  Tot: -0.72000 ]
SCF: Cycle: 24   F: -118.212713308662146   dF: -1.474e-08   |Residual|: 3.103e-05   |deigs|: 2.291e-04  t[s]:    482.93
	FillingsUpdate:  mu: -0.076019940  nElectrons: 73.000000  magneticMoment: [ Abs: 0.80378  Tot: -0.72000 ]
SCF: Cycle: 25   F: -118.212713314226491   dF: -5.564e-09   |Residual|: 1.964e-05   |deigs|: 2.804e-04  t[s]:    499.04
	FillingsUpdate:  mu: -0.076009891  nElectrons: 73.000000  magneticMoment: [ Abs: 0.80376  Tot: -0.72000 ]
SCF: Cycle: 26   F: -118.212713316582679   dF: -2.356e-09   |Residual|: 1.218e-05   |deigs|: 1.454e-04  t[s]:    515.16
SCF: Converged (|Delta E|<1.000000e-08 for 2 iters).


# Ionic positions in lattice coordinates:
ion C  -0.000000000000000   0.000000000000000   0.000000000000000 1
ion N   0.108900118656067   0.217800237312134   0.000000000000000 1
ion N   0.111440932313158   0.555720466156579   0.000000000000000 1
ion N   0.108900118656067   0.891099881343933   0.000000000000000 1
ion N   0.444600551142632   0.222300275571316   0.000000000000000 1
ion N   0.444279533843421   0.555720466156579   0.000000000000000 1
ion N   0.444279533843421   0.888559067686842   0.000000000000000 1
ion N   0.777699724428684   0.222300275571316   0.000000000000000 1
ion N   0.777699724428684   0.555399448857368   0.000000000000000 1
ion N   0.782199762687866   0.891099881343933   0.000000000000000 1
ion B  -0.000409163333578   0.332352225367090   0.000000000000000 1
ion B  -0.000409163333578   0.667238611299332   0.000000000000000 1
ion B   0.332761388700668   0.000409163333578   0.000000000000000 1
ion B   0.332761388700668   0.332352225367090   0.000000000000000 1
ion B   0.333333333333333   0.666666666666667   0.000000000000000 1
ion B   0.667647774632910   0.000409163333578   0.000000000000000 1
ion B   0.666666666666667   0.333333333333333   0.000000000000000 1
ion B   0.667647774632910   0.667238611299332   0.000000000000000 1

# Forces in Lattice coordinates:
force C   0.000000000000000   0.000000000000000   0.000000000000000 1
force N   0.000000000000000  -0.054338530903317  -0.000000000000000 1
force N   0.007127262115671  -0.000000000000000   0.000000000000000 1
force N  -0.054338530903314   0.054338530903317   0.000000000000000 1
force N  -0.007894151262306   0.000000000000000  -0.000000000000000 1
force N  -0.007127262115671   0.007127262115671  -0.000000000000000 1
force N  -0.000000000000000  -0.007127262115671   0.000000000000000 1
force N   0.007894151262306  -0.007894151262306  -0.000000000000000 1
force N  -0.000000000000000   0.007894151262306  -0.000000000000000 1
force N   0.054338530903312   0.000000000000000   0.000000000000000 1
force B  -0.021584446085455   0.015156576785739  -0.000000000000000 1
force B  -0.006427869299716  -0.015156576785739  -0.000000000000000 1
force B   0.015156576785739   0.006427869299717   0.000000000000000 1
force B   0.021584446085455  -0.006427869299716  -0.000000000000000 1
force B   0.000000000000000  -0.000000000000000   0.000000000000000 1
force B  -0.015156576785739   0.021584446085455  -0.000000000000000 1
force B  -0.000000000000000   0.000000000000000   0.000000000000000 1
force B   0.006427869299717  -0.021584446085455   0.000000000000000 1

# Energy components:
   Eewald =     -185.5884594997991428
       EH =      -93.0215648611981436
     Eloc =      115.4520353009257434
      Enl =       -5.2774102088220065
   Epulay =       -0.0000011688465181
      Exc =      -33.7537552081491583
       KE =       83.9764430680375966
-------------------------------------
     Etot =     -118.2127125778516330
       TS =        0.0000007387310457
-------------------------------------
        F =     -118.2127133165826791

IonicMinimize: Iter:   0  F: -118.212713316582679  |grad|_K:  1.189e-03  t[s]:    516.55
IonicMinimize: None of the convergence criteria satisfied after 0 iterations.

#--- Lowdin population analysis ---
# oxidation-state C +0.271
# magnetic-moments C -0.423
# oxidation-state N -0.265 -0.372 -0.265 -0.376 -0.372 -0.372 -0.376 -0.376 -0.265
# magnetic-moments N -0.004 +0.003 -0.004 -0.018 +0.003 +0.003 -0.018 -0.018 -0.004
# oxidation-state B +0.430 +0.430 +0.430 +0.430 +0.430 +0.430 +0.426 +0.430
# magnetic-moments B -0.033 -0.033 -0.033 -0.033 -0.009 -0.033 -0.012 -0.033

End date and time: Sun Feb  6 19:24:05 2022  (Duration: 0-0:08:36.89)
Done!
