magnetization is -0.1
--------------------------------------------------------------------------
The library attempted to open the following supporting CUDA libraries,
but each of them failed.  CUDA-aware support is disabled.
libcuda.so.1: cannot open shared object file: No such file or directory
libcuda.dylib: cannot open shared object file: No such file or directory
/usr/lib64/libcuda.so.1: cannot open shared object file: No such file or directory
/usr/lib64/libcuda.dylib: cannot open shared object file: No such file or directory
If you are not interested in CUDA-aware support, then run with
--mca opal_warn_on_missing_libcuda 0 to suppress this message.  If you are interested
in CUDA-aware support, then try setting LD_LIBRARY_PATH to the location
of libcuda.so.1 to get passed this issue.
--------------------------------------------------------------------------
--------------------------------------------------------------------------
No OpenFabrics connection schemes reported that they were able to be
used on a specific port.  As such, the openib BTL (OpenFabrics
support) will be disabled for this port.

  Local host:           d-16-7-4
  Local device:         mlx5_1
  Local port:           1
  CPCs attempted:       rdmacm, udcm
--------------------------------------------------------------------------

*************** JDFTx 1.6.0 (git hash 42ebbcc2) ***************

Start date and time: Sun Feb  6 19:32:21 2022
Executable jdftx with command-line: -i BN33BC.in
Running on hosts (process indices):  d-16-7-4 (0-37)
Divided in process groups (process indices):  0 (0)  1 (1)  2 (2)  3 (3)  4 (4)  5 (5)  6 (6)  7 (7)  8 (8)  9 (9)  10 (10)  11 (11)  12 (12)  13 (13)  14 (14)  15 (15)  16 (16)  17 (17)  18 (18)  19 (19)  20 (20)  21 (21)  22 (22)  23 (23)  24 (24)  25 (25)  26 (26)  27 (27)  28 (28)  29 (29)  30 (30)  31 (31)  32 (32)  33 (33)  34 (34)  35 (35)  36 (36)  37 (37)
Resource initialization completed at t[s]:      0.00
Run totals: 38 processes, 48 threads, 0 GPUs


Input parsed successfully to the following command list (including defaults):

basis kpoint-dependent
coords-type Lattice
core-overlap-check vector
coulomb-interaction Slab 001
davidson-band-ratio 1.1
dump End None
dump-name $INPUT.$VAR
elec-cutoff 20
elec-eigen-algo Davidson
elec-ex-corr gga-PBE
elec-initial-magnetization -0.100000 yes
elec-smearing Fermi 1e-05
electronic-minimize  \
	dirUpdateScheme      FletcherReeves \
	linminMethod         DirUpdateRecommended \
	nIterations          100 \
	history              15 \
	knormThreshold       0 \
	energyDiffThreshold  1e-08 \
	nEnergyDiff          2 \
	alphaTstart          1 \
	alphaTmin            1e-10 \
	updateTestStepSize   yes \
	alphaTreduceFactor   0.1 \
	alphaTincreaseFactor 3 \
	nAlphaAdjustMax      3 \
	wolfeEnergy          0.0001 \
	wolfeGradient        0.9 \
	fdTest               no
electronic-scf  \
	nIterations	1000 \
	energyDiffThreshold	1e-08 \
	residualThreshold	1e-07 \
	mixFraction	0.5 \
	qMetric	0.8 \
	history	10 \
	nEigSteps	2 \
	eigDiffThreshold	1e-08 \
	mixedVariable	Density \
	qKerker	0.8 \
	qKappa	-1 \
	verbose	no \
	mixFractionMag	1.5
exchange-regularization WignerSeitzTruncated
fluid None
fluid-ex-corr (null) lda-PZ
fluid-gummel-loop 10 1.000000e-05
fluid-minimize  \
	dirUpdateScheme      PolakRibiere \
	linminMethod         DirUpdateRecommended \
	nIterations          100 \
	history              15 \
	knormThreshold       0 \
	energyDiffThreshold  0 \
	nEnergyDiff          2 \
	alphaTstart          1 \
	alphaTmin            1e-10 \
	updateTestStepSize   yes \
	alphaTreduceFactor   0.1 \
	alphaTincreaseFactor 3 \
	nAlphaAdjustMax      3 \
	wolfeEnergy          0.0001 \
	wolfeGradient        0.9 \
	fdTest               no
fluid-solvent H2O 55.338 ScalarEOS \
	epsBulk 78.4 \
	pMol 0.92466 \
	epsInf 1.77 \
	Pvap 1.06736e-10 \
	sigmaBulk 4.62e-05 \
	Rvdw 2.61727 \
	Res 1.42 \
	tauNuc 343133 \
	poleEl 15 7 1
forces-output-coords Positions
ion C   0.000000000000000  -0.000000000000000   0.000000000000000 1
ion N   0.108900118656067   0.217800237312134   0.000000000000000 1
ion N   0.111440932313158   0.555720466156579   0.000000000000000 1
ion N   0.108900118656067   0.891099881343933   0.000000000000000 1
ion N   0.444600551142632   0.222300275571316   0.000000000000000 1
ion N   0.444279533843421   0.555720466156579   0.000000000000000 1
ion N   0.444279533843421   0.888559067686842   0.000000000000000 1
ion N   0.777699724428684   0.222300275571316   0.000000000000000 1
ion N   0.777699724428684   0.555399448857368   0.000000000000000 1
ion N   0.782199762687866   0.891099881343933   0.000000000000000 1
ion B  -0.000409163333578   0.332352225367090  -0.000000000000000 1
ion B  -0.000409163333578   0.667238611299332  -0.000000000000000 1
ion B   0.332761388700668   0.000409163333578   0.000000000000000 1
ion B   0.332761388700668   0.332352225367090  -0.000000000000000 1
ion B   0.333333333333333   0.666666666666667   0.000000000000000 1
ion B   0.667647774632910   0.000409163333578   0.000000000000000 1
ion B   0.666666666666667   0.333333333333333   0.000000000000000 1
ion B   0.667647774632910   0.667238611299332   0.000000000000000 1
ion-species SG15/$ID_ONCV_PBE.upf
ion-width 0
ionic-minimize  \
	dirUpdateScheme      L-BFGS \
	linminMethod         DirUpdateRecommended \
	nIterations          0 \
	history              15 \
	knormThreshold       0.0001 \
	energyDiffThreshold  1e-06 \
	nEnergyDiff          2 \
	alphaTstart          1 \
	alphaTmin            1e-10 \
	updateTestStepSize   yes \
	alphaTreduceFactor   0.1 \
	alphaTincreaseFactor 3 \
	nAlphaAdjustMax      3 \
	wolfeEnergy          0.0001 \
	wolfeGradient        0.9 \
	fdTest               no
kpoint   0.000000000000   0.000000000000   0.000000000000  1.00000000000000
kpoint-folding 12 12 1 
latt-move-scale 1 1 1
latt-scale 1 1 1 
lattice  \
	  14.116397090998559   -7.058198545499275    0.000000000000000  \
	  -0.000000000000000   12.225158490713497    0.000000000000000  \
	   0.000000000000000    0.000000000000000   40.000000000000000 
lattice-minimize  \
	dirUpdateScheme      L-BFGS \
	linminMethod         DirUpdateRecommended \
	nIterations          0 \
	history              15 \
	knormThreshold       0 \
	energyDiffThreshold  1e-06 \
	nEnergyDiff          2 \
	alphaTstart          1 \
	alphaTmin            1e-10 \
	updateTestStepSize   yes \
	alphaTreduceFactor   0.1 \
	alphaTincreaseFactor 3 \
	nAlphaAdjustMax      3 \
	wolfeEnergy          0.0001 \
	wolfeGradient        0.9 \
	fdTest               no
lcao-params -1 1e-06 1e-05
pcm-variant GLSSA13
spintype z-spin
subspace-rotation-factor 1 yes
symmetries automatic
symmetry-threshold 0.0001



---------- Setting up symmetries ----------

Found 24 point-group symmetries of the bravais lattice
Found 12 space-group symmetries with basis
Applied RMS atom displacement 2.54347e-15 bohrs to make symmetries exact.

---------- Initializing the Grid ----------
R = 
[      14.1164      -7.0582            0  ]
[            0      12.2252            0  ]
[            0            0           40  ]
unit cell volume = 6903.01
G =
[   0.445098   0.256978         -0  ]
[          0   0.513955         -0  ]
[         -0         -0    0.15708  ]
Minimum fftbox size, Smin = [  60  60  164  ]
Chosen fftbox size, S = [  60  60  168  ]

---------- Exchange Correlation functional ----------
Initalized PBE GGA exchange.
Initalized PBE GGA correlation.

---------- Setting up pseudopotentials ----------
Width of ionic core gaussian charges (only for fluid interactions / plotting) set to 0

Reading pseudopotential file '/home/gridsan/aligho/DFT/build-Nov24/pseudopotentials/SG15/C_ONCV_PBE.upf':
  'C' pseudopotential, 'PBE' functional
  Generated using ONCVPSP code by D. R. Hamann
  Author: Martin Schlipf and Francois Gygi  Date: 150915.
  4 valence electrons, 2 orbitals, 4 projectors, 1248 radial grid points, with lMax = 1
  Transforming local potential to a uniform radial grid of dG=0.02 with 1495 points.
  Transforming nonlocal projectors to a uniform radial grid of dG=0.02 with 432 points.
    2S    l: 0   occupation:  2.0   eigenvalue: -0.505335
    2P    l: 1   occupation:  2.0   eigenvalue: -0.194238
  Transforming atomic orbitals to a uniform radial grid of dG=0.02 with 432 points.
  Core radius for overlap checks: 1.23 bohrs.
  Reading pulay file /home/gridsan/aligho/DFT/build-Nov24/pseudopotentials/SG15/C_ONCV_PBE.pulay ... using dE_dnG = -9.239532e-03 computed for Ecut = 20.

Reading pseudopotential file '/home/gridsan/aligho/DFT/build-Nov24/pseudopotentials/SG15/N_ONCV_PBE.upf':
  'N' pseudopotential, 'PBE' functional
  Generated using ONCVPSP code by D. R. Hamann
  Author: Martin Schlipf and Francois Gygi  Date: 150915.
  5 valence electrons, 2 orbitals, 4 projectors, 1058 radial grid points, with lMax = 1
  Transforming local potential to a uniform radial grid of dG=0.02 with 1495 points.
  Transforming nonlocal projectors to a uniform radial grid of dG=0.02 with 432 points.
    2S    l: 0   occupation:  2.0   eigenvalue: -0.682907
    2P    l: 1   occupation:  3.0   eigenvalue: -0.260548
  Transforming atomic orbitals to a uniform radial grid of dG=0.02 with 432 points.
  Core radius for overlap checks: 1.35 bohrs.
  Reading pulay file /home/gridsan/aligho/DFT/build-Nov24/pseudopotentials/SG15/N_ONCV_PBE.pulay ... using dE_dnG = -2.956256e-02 computed for Ecut = 20.

Reading pseudopotential file '/home/gridsan/aligho/DFT/build-Nov24/pseudopotentials/SG15/B_ONCV_PBE.upf':
  'B' pseudopotential, 'PBE' functional
  Generated using ONCVPSP code by D. R. Hamann
  Author: Martin Schlipf and Francois Gygi  Date: 150915.
  3 valence electrons, 2 orbitals, 4 projectors, 1534 radial grid points, with lMax = 1
  Transforming local potential to a uniform radial grid of dG=0.02 with 1495 points.
  Transforming nonlocal projectors to a uniform radial grid of dG=0.02 with 432 points.
    2S    l: 0   occupation:  2.0   eigenvalue: -0.347027
    2P    l: 1   occupation:  1.0   eigenvalue: -0.132548
  Transforming atomic orbitals to a uniform radial grid of dG=0.02 with 432 points.
  Core radius for overlap checks: 1.60 bohrs.
  Reading pulay file /home/gridsan/aligho/DFT/build-Nov24/pseudopotentials/SG15/B_ONCV_PBE.pulay ... using dE_dnG = -3.748568e-04 computed for Ecut = 20.

Initialized 3 species with 18 total atoms.

Folded 1 k-points by 12x12x1 to 144 k-points.

---------- Setting up k-points, bands, fillings ----------
Adding inversion symmetry to k-mesh for non-inversion-symmetric unit cell.
Reduced to 19 k-points under symmetry. 
Computing the number of bands and number of electrons
Calculating initial fillings.
nElectrons:  73.000000   nBands: 72   nStates: 38

----- Setting up reduced wavefunction bases (one per k-point) -----
average nbasis = 29490.146 , ideal nbasis = 29490.175

---------- Setting up coulomb interaction ----------
Initialized slab truncation along lattice direction 001

---------- Setting up 2D ewald sum ----------
Optimum gaussian width for ewald sums = 7.836854 bohr.
Real space sums over 289 unit cells with max indices [  8  8  0  ]
Reciprocal space sums over 81 terms with max indices [  4  4  0  ]

---------- Allocating electronic variables ----------
Initializing wave functions:  linear combination of atomic orbitals
C pseudo-atom occupations:   s ( 2 )  p ( 2 )
N pseudo-atom occupations:   s ( 2 )  p ( 3 )
B pseudo-atom occupations:   s ( 2 )  p ( 1 )
[d-16-7-4:06677] 37 more processes have sent help message help-mpi-common-cuda.txt / dlopen failed
[d-16-7-4:06677] Set MCA parameter "orte_base_help_aggregate" to 0 to see all help / error messages
[d-16-7-4:06677] 37 more processes have sent help message help-mpi-btl-openib-cpc-base.txt / no cpcs for port
	FillingsUpdate:  mu: -0.193242299  nElectrons: 73.000000  magneticMoment: [ Abs: 0.10487  Tot: -0.10000 ]
LCAOMinimize: Iter:   0  F: -116.5077834994844750  |grad|_K:  4.504e-03  alpha:  1.000e+00
	FillingsUpdate:  mu: -0.225992782  nElectrons: 73.000000  magneticMoment: [ Abs: 0.10489  Tot: -0.10000 ]
LCAOMinimize: Iter:   1  F: -117.1818956934655915  |grad|_K:  1.113e-03  alpha:  3.989e-01  linmin:  1.723e-02  cgtest: -5.689e-01  t[s]:     25.32
	FillingsUpdate:  mu: -0.185293410  nElectrons: 73.000000  magneticMoment: [ Abs: 0.10538  Tot: -0.10000 ]
LCAOMinimize: Iter:   2  F: -117.1992113152274158  |grad|_K:  6.598e-04  alpha:  2.434e-01  linmin: -1.156e-04  cgtest:  7.615e-01  t[s]:     33.00
LCAOMinimize: Encountered beta<0, resetting CG.
	FillingsUpdate:  mu: -0.168416161  nElectrons: 73.000000  magneticMoment: [ Abs: 0.10542  Tot: -0.10000 ]
LCAOMinimize: Iter:   3  F: -117.2140371400016789  |grad|_K:  1.236e-04  alpha:  3.362e-01  linmin:  1.264e-03  cgtest: -4.311e-02  t[s]:     40.74
	FillingsUpdate:  mu: -0.173776947  nElectrons: 73.000000  magneticMoment: [ Abs: 0.10547  Tot: -0.10000 ]
LCAOMinimize: Iter:   4  F: -117.2145759835319154  |grad|_K:  8.302e-06  alpha:  3.490e-01  linmin:  3.278e-02  cgtest:  1.028e-01  t[s]:     48.42
LCAOMinimize: Encountered beta<0, resetting CG.
	FillingsUpdate:  mu: -0.173959183  nElectrons: 73.000000  magneticMoment: [ Abs: 0.10564  Tot: -0.10000 ]
LCAOMinimize: Iter:   5  F: -117.2145786548413469  |grad|_K:  3.081e-06  alpha:  3.828e-01  linmin:  1.095e-04  cgtest: -8.215e-04  t[s]:     56.07
	FillingsUpdate:  mu: -0.173811688  nElectrons: 73.000000  magneticMoment: [ Abs: 0.10640  Tot: -0.10000 ]
LCAOMinimize: Iter:   6  F: -117.2145792822816333  |grad|_K:  1.502e-06  alpha:  6.529e-01  linmin: -3.373e-05  cgtest:  1.098e-03  t[s]:     63.68
	FillingsUpdate:  mu: -0.173867238  nElectrons: 73.000000  magneticMoment: [ Abs: 0.10703  Tot: -0.10000 ]
LCAOMinimize: Iter:   7  F: -117.2145793981498230  |grad|_K:  5.232e-07  alpha:  5.071e-01  linmin:  3.328e-04  cgtest: -1.664e-03  t[s]:     71.30
LCAOMinimize: Converged (|Delta F|<1.000000e-06 for 2 iters).


---- Citations for features of the code used in this run ----

   Software package:
      R. Sundararaman, K. Letchworth-Weaver, K.A. Schwarz, D. Gunceler, Y. Ozhabes and T.A. Arias, 'JDFTx: software for joint density-functional theory', SoftwareX 6, 278 (2017)

   gga-PBE exchange-correlation functional:
      J.P. Perdew, K. Burke and M. Ernzerhof, Phys. Rev. Lett. 77, 3865 (1996)

   Pseudopotentials:
      M Schlipf and F Gygi, Comput. Phys. Commun. 196, 36 (2015)

   Truncated Coulomb potentials:
      R. Sundararaman and T.A. Arias, Phys. Rev. B 87, 165122 (2013)

This list may not be complete. Please suggest additional citations or
report any other bugs at https://github.com/shankar1729/jdftx/issues

Initialization completed successfully at t[s]:     72.06


-------- Electronic minimization -----------
Will mix electronic density at each iteration.
	FillingsUpdate:  mu: -0.173867238  nElectrons: 73.000000  magneticMoment: [ Abs: 0.10703  Tot: -0.10000 ]
	FillingsUpdate:  mu: -0.191763581  nElectrons: 73.000000  magneticMoment: [ Abs: 0.10703  Tot: -0.10000 ]
SCF: Cycle:  0   F: -118.140517593166720   dF: -9.259e-01   |Residual|: 3.364e-01   |deigs|: 1.136e-01  t[s]:     92.76
	FillingsUpdate:  mu: -0.170255626  nElectrons: 73.000000  magneticMoment: [ Abs: 0.11295  Tot: -0.10000 ]
SCF: Cycle:  1   F: -118.179952120377479   dF: -3.943e-02   |Residual|: 1.876e-01   |deigs|: 2.533e-02  t[s]:    108.24
	FillingsUpdate:  mu: -0.141362190  nElectrons: 73.000000  magneticMoment: [ Abs: 0.11394  Tot: -0.10000 ]
SCF: Cycle:  2   F: -118.205643740396212   dF: -2.569e-02   |Residual|: 4.073e-02   |deigs|: 2.999e-02  t[s]:    123.86
	FillingsUpdate:  mu: -0.137867415  nElectrons: 73.000000  magneticMoment: [ Abs: 0.11507  Tot: -0.10000 ]
SCF: Cycle:  3   F: -118.206431541946500   dF: -7.878e-04   |Residual|: 2.264e-02   |deigs|: 7.947e-03  t[s]:    139.39
	FillingsUpdate:  mu: -0.125734325  nElectrons: 73.000000  magneticMoment: [ Abs: 0.11330  Tot: -0.10000 ]
SCF: Cycle:  4   F: -118.207915527850005   dF: -1.484e-03   |Residual|: 1.194e-02   |deigs|: 1.082e-02  t[s]:    155.04
	FillingsUpdate:  mu: -0.120250787  nElectrons: 73.000000  magneticMoment: [ Abs: 0.11742  Tot: -0.10000 ]
SCF: Cycle:  5   F: -118.208206245101650   dF: -2.907e-04   |Residual|: 7.734e-03   |deigs|: 4.620e-03  t[s]:    170.76
	FillingsUpdate:  mu: -0.113848342  nElectrons: 73.000000  magneticMoment: [ Abs: 0.11307  Tot: -0.10000 ]
SCF: Cycle:  6   F: -118.208238197326210   dF: -3.195e-05   |Residual|: 5.710e-03   |deigs|: 6.759e-03  t[s]:    186.46
	FillingsUpdate:  mu: -0.109400533  nElectrons: 73.000000  magneticMoment: [ Abs: 0.11508  Tot: -0.10000 ]
SCF: Cycle:  7   F: -118.208276628873406   dF: -3.843e-05   |Residual|: 4.625e-03   |deigs|: 4.757e-03  t[s]:    202.24
	FillingsUpdate:  mu: -0.105402128  nElectrons: 73.000000  magneticMoment: [ Abs: 0.11404  Tot: -0.10000 ]
SCF: Cycle:  8   F: -118.208341540682767   dF: -6.491e-05   |Residual|: 3.656e-03   |deigs|: 4.115e-03  t[s]:    218.04
	FillingsUpdate:  mu: -0.103392209  nElectrons: 73.000000  magneticMoment: [ Abs: 0.11253  Tot: -0.10000 ]
SCF: Cycle:  9   F: -118.208374020693270   dF: -3.248e-05   |Residual|: 3.017e-03   |deigs|: 2.162e-03  t[s]:    234.06
	FillingsUpdate:  mu: -0.099854696  nElectrons: 73.000000  magneticMoment: [ Abs: 0.11464  Tot: -0.10000 ]
SCF: Cycle: 10   F: -118.208405115412759   dF: -3.109e-05   |Residual|: 2.481e-03   |deigs|: 3.529e-03  t[s]:    250.12
	FillingsUpdate:  mu: -0.097596258  nElectrons: 73.000000  magneticMoment: [ Abs: 0.11254  Tot: -0.10000 ]
SCF: Cycle: 11   F: -118.208415226889699   dF: -1.011e-05   |Residual|: 2.091e-03   |deigs|: 2.088e-03  t[s]:    266.21
	FillingsUpdate:  mu: -0.094918953  nElectrons: 73.000000  magneticMoment: [ Abs: 0.11343  Tot: -0.10000 ]
SCF: Cycle: 12   F: -118.208419308619582   dF: -4.082e-06   |Residual|: 1.834e-03   |deigs|: 2.514e-03  t[s]:    282.34
	FillingsUpdate:  mu: -0.090942130  nElectrons: 73.000000  magneticMoment: [ Abs: 0.11318  Tot: -0.10000 ]
SCF: Cycle: 13   F: -118.208420568922534   dF: -1.260e-06   |Residual|: 1.687e-03   |deigs|: 3.634e-03  t[s]:    298.30
	FillingsUpdate:  mu: -0.087376896  nElectrons: 73.000000  magneticMoment: [ Abs: 0.11333  Tot: -0.10000 ]
SCF: Cycle: 14   F: -118.208421311882134   dF: -7.430e-07   |Residual|: 1.597e-03   |deigs|: 3.175e-03  t[s]:    314.35
	FillingsUpdate:  mu: -0.083424420  nElectrons: 73.000000  magneticMoment: [ Abs: 0.11365  Tot: -0.10000 ]
SCF: Cycle: 15   F: -118.208420540558393   dF: +7.713e-07   |Residual|: 1.407e-03   |deigs|: 3.810e-03  t[s]:    330.48
	FillingsUpdate:  mu: -0.079929030  nElectrons: 73.000000  magneticMoment: [ Abs: 0.11264  Tot: -0.10000 ]
SCF: Cycle: 16   F: -118.208426635483605   dF: -6.095e-06   |Residual|: 1.015e-03   |deigs|: 3.124e-03  t[s]:    346.49
	FillingsUpdate:  mu: -0.078288801  nElectrons: 73.000000  magneticMoment: [ Abs: 0.11235  Tot: -0.10000 ]
SCF: Cycle: 17   F: -118.208430541094614   dF: -3.906e-06   |Residual|: 7.308e-04   |deigs|: 1.423e-03  t[s]:    362.48
	FillingsUpdate:  mu: -0.077332118  nElectrons: 73.000000  magneticMoment: [ Abs: 0.11226  Tot: -0.10000 ]
SCF: Cycle: 18   F: -118.208432879855607   dF: -2.339e-06   |Residual|: 3.638e-04   |deigs|: 9.531e-04  t[s]:    378.58
	FillingsUpdate:  mu: -0.076991745  nElectrons: 73.000000  magneticMoment: [ Abs: 0.11186  Tot: -0.10000 ]
SCF: Cycle: 19   F: -118.208433330509877   dF: -4.507e-07   |Residual|: 2.152e-04   |deigs|: 5.241e-04  t[s]:    394.60
	FillingsUpdate:  mu: -0.076837259  nElectrons: 73.000000  magneticMoment: [ Abs: 0.11181  Tot: -0.10000 ]
SCF: Cycle: 20   F: -118.208433450903684   dF: -1.204e-07   |Residual|: 1.331e-04   |deigs|: 3.212e-04  t[s]:    410.55
	FillingsUpdate:  mu: -0.076720709  nElectrons: 73.000000  magneticMoment: [ Abs: 0.11171  Tot: -0.10000 ]
SCF: Cycle: 21   F: -118.208433496034630   dF: -4.513e-08   |Residual|: 6.442e-05   |deigs|: 4.292e-04  t[s]:    426.41
	FillingsUpdate:  mu: -0.076674478  nElectrons: 73.000000  magneticMoment: [ Abs: 0.11168  Tot: -0.10000 ]
SCF: Cycle: 22   F: -118.208433510942413   dF: -1.491e-08   |Residual|: 3.691e-05   |deigs|: 4.776e-04  t[s]:    442.43
	FillingsUpdate:  mu: -0.076658176  nElectrons: 73.000000  magneticMoment: [ Abs: 0.11168  Tot: -0.10000 ]
SCF: Cycle: 23   F: -118.208433518450761   dF: -7.508e-09   |Residual|: 2.136e-05   |deigs|: 2.023e-04  t[s]:    458.53
	FillingsUpdate:  mu: -0.076642444  nElectrons: 73.000000  magneticMoment: [ Abs: 0.11166  Tot: -0.10000 ]
SCF: Cycle: 24   F: -118.208433522537888   dF: -4.087e-09   |Residual|: 1.164e-05   |deigs|: 1.575e-04  t[s]:    474.58
SCF: Converged (|Delta E|<1.000000e-08 for 2 iters).


# Ionic positions in lattice coordinates:
ion C  -0.000000000000000   0.000000000000000   0.000000000000000 1
ion N   0.108900118656067   0.217800237312134   0.000000000000000 1
ion N   0.111440932313158   0.555720466156579   0.000000000000000 1
ion N   0.108900118656067   0.891099881343933   0.000000000000000 1
ion N   0.444600551142632   0.222300275571316   0.000000000000000 1
ion N   0.444279533843421   0.555720466156579   0.000000000000000 1
ion N   0.444279533843421   0.888559067686842   0.000000000000000 1
ion N   0.777699724428684   0.222300275571316   0.000000000000000 1
ion N   0.777699724428684   0.555399448857368   0.000000000000000 1
ion N   0.782199762687866   0.891099881343933   0.000000000000000 1
ion B  -0.000409163333578   0.332352225367090   0.000000000000000 1
ion B  -0.000409163333578   0.667238611299332   0.000000000000000 1
ion B   0.332761388700668   0.000409163333578   0.000000000000000 1
ion B   0.332761388700668   0.332352225367090   0.000000000000000 1
ion B   0.333333333333333   0.666666666666667   0.000000000000000 1
ion B   0.667647774632910   0.000409163333578   0.000000000000000 1
ion B   0.666666666666667   0.333333333333333   0.000000000000000 1
ion B   0.667647774632910   0.667238611299332   0.000000000000000 1

# Forces in Lattice coordinates:
force C   0.000000000000000  -0.000000000000000   0.000000000000000 1
force N   0.000000000000000  -0.102039033290319  -0.000000000000000 1
force N   0.008039930316106   0.000000000000000   0.000000000000000 1
force N  -0.102039033290319   0.102039033290319   0.000000000000000 1
force N  -0.010903645799795  -0.000000000000000   0.000000000000000 1
force N  -0.008039930316106   0.008039930316106  -0.000000000000000 1
force N   0.000000000000000  -0.008039930316106   0.000000000000000 1
force N   0.010903645799795  -0.010903645799795   0.000000000000000 1
force N  -0.000000000000000   0.010903645799795  -0.000000000000000 1
force N   0.102039033290318  -0.000000000000000   0.000000000000000 1
force B  -0.031761100454036   0.029371562037702   0.000000000000000 1
force B  -0.002389538416334  -0.029371562037702   0.000000000000000 1
force B   0.029371562037702   0.002389538416334   0.000000000000000 1
force B   0.031761100454036  -0.002389538416334  -0.000000000000000 1
force B   0.000000000000000   0.000000000000000   0.000000000000000 1
force B  -0.029371562037702   0.031761100454036   0.000000000000000 1
force B  -0.000000000000000   0.000000000000000   0.000000000000000 1
force B   0.002389538416334  -0.031761100454036   0.000000000000000 1

# Energy components:
   Eewald =     -185.5884594997991428
       EH =      -93.0574314101278048
     Eloc =      115.4998449641404505
      Enl =       -5.2696076750402074
   Epulay =       -0.0000011688465181
      Exc =      -33.7418463271487354
       KE =       83.9490683884161228
-------------------------------------
     Etot =     -118.2084327284058816
       TS =        0.0000007941320023
-------------------------------------
        F =     -118.2084335225378879

IonicMinimize: Iter:   0  F: -118.208433522537888  |grad|_K:  2.153e-03  t[s]:    476.01
IonicMinimize: None of the convergence criteria satisfied after 0 iterations.

#--- Lowdin population analysis ---
# oxidation-state C +0.263
# magnetic-moments C -0.060
# oxidation-state N -0.259 -0.371 -0.259 -0.375 -0.371 -0.371 -0.375 -0.375 -0.259
# magnetic-moments N -0.001 +0.000 -0.001 -0.002 +0.000 +0.000 -0.002 -0.002 -0.001
# oxidation-state B +0.428 +0.428 +0.428 +0.428 +0.429 +0.428 +0.425 +0.428
# magnetic-moments B -0.004 -0.004 -0.004 -0.004 -0.003 -0.004 -0.004 -0.004

End date and time: Sun Feb  6 19:40:17 2022  (Duration: 0-0:07:56.33)
Done!
