magnetization is -0.86
--------------------------------------------------------------------------
The library attempted to open the following supporting CUDA libraries,
but each of them failed.  CUDA-aware support is disabled.
libcuda.so.1: cannot open shared object file: No such file or directory
libcuda.dylib: cannot open shared object file: No such file or directory
/usr/lib64/libcuda.so.1: cannot open shared object file: No such file or directory
/usr/lib64/libcuda.dylib: cannot open shared object file: No such file or directory
If you are not interested in CUDA-aware support, then run with
--mca opal_warn_on_missing_libcuda 0 to suppress this message.  If you are interested
in CUDA-aware support, then try setting LD_LIBRARY_PATH to the location
of libcuda.so.1 to get passed this issue.
--------------------------------------------------------------------------
--------------------------------------------------------------------------
No OpenFabrics connection schemes reported that they were able to be
used on a specific port.  As such, the openib BTL (OpenFabrics
support) will be disabled for this port.

  Local host:           d-17-8-2
  Local device:         mlx5_1
  Local port:           1
  CPCs attempted:       rdmacm, udcm
--------------------------------------------------------------------------

*************** JDFTx 1.6.0 (git hash 42ebbcc2) ***************

Start date and time: Sun Feb  6 19:15:28 2022
Executable jdftx with command-line: -i BN33BC.in
Running on hosts (process indices):  d-17-8-2 (0-37)
Divided in process groups (process indices):  0 (0)  1 (1)  2 (2)  3 (3)  4 (4)  5 (5)  6 (6)  7 (7)  8 (8)  9 (9)  10 (10)  11 (11)  12 (12)  13 (13)  14 (14)  15 (15)  16 (16)  17 (17)  18 (18)  19 (19)  20 (20)  21 (21)  22 (22)  23 (23)  24 (24)  25 (25)  26 (26)  27 (27)  28 (28)  29 (29)  30 (30)  31 (31)  32 (32)  33 (33)  34 (34)  35 (35)  36 (36)  37 (37)
Resource initialization completed at t[s]:      0.00
Run totals: 38 processes, 48 threads, 0 GPUs


Input parsed successfully to the following command list (including defaults):

basis kpoint-dependent
coords-type Lattice
core-overlap-check vector
coulomb-interaction Slab 001
davidson-band-ratio 1.1
dump End None
dump-name $INPUT.$VAR
elec-cutoff 20
elec-eigen-algo Davidson
elec-ex-corr gga-PBE
elec-initial-magnetization -0.860000 yes
elec-smearing Fermi 1e-05
electronic-minimize  \
	dirUpdateScheme      FletcherReeves \
	linminMethod         DirUpdateRecommended \
	nIterations          100 \
	history              15 \
	knormThreshold       0 \
	energyDiffThreshold  1e-08 \
	nEnergyDiff          2 \
	alphaTstart          1 \
	alphaTmin            1e-10 \
	updateTestStepSize   yes \
	alphaTreduceFactor   0.1 \
	alphaTincreaseFactor 3 \
	nAlphaAdjustMax      3 \
	wolfeEnergy          0.0001 \
	wolfeGradient        0.9 \
	fdTest               no
electronic-scf  \
	nIterations	1000 \
	energyDiffThreshold	1e-08 \
	residualThreshold	1e-07 \
	mixFraction	0.5 \
	qMetric	0.8 \
	history	10 \
	nEigSteps	2 \
	eigDiffThreshold	1e-08 \
	mixedVariable	Density \
	qKerker	0.8 \
	qKappa	-1 \
	verbose	no \
	mixFractionMag	1.5
exchange-regularization WignerSeitzTruncated
fluid None
fluid-ex-corr (null) lda-PZ
fluid-gummel-loop 10 1.000000e-05
fluid-minimize  \
	dirUpdateScheme      PolakRibiere \
	linminMethod         DirUpdateRecommended \
	nIterations          100 \
	history              15 \
	knormThreshold       0 \
	energyDiffThreshold  0 \
	nEnergyDiff          2 \
	alphaTstart          1 \
	alphaTmin            1e-10 \
	updateTestStepSize   yes \
	alphaTreduceFactor   0.1 \
	alphaTincreaseFactor 3 \
	nAlphaAdjustMax      3 \
	wolfeEnergy          0.0001 \
	wolfeGradient        0.9 \
	fdTest               no
fluid-solvent H2O 55.338 ScalarEOS \
	epsBulk 78.4 \
	pMol 0.92466 \
	epsInf 1.77 \
	Pvap 1.06736e-10 \
	sigmaBulk 4.62e-05 \
	Rvdw 2.61727 \
	Res 1.42 \
	tauNuc 343133 \
	poleEl 15 7 1
forces-output-coords Positions
ion C   0.000000000000000  -0.000000000000000   0.000000000000000 1
ion N   0.108900118656067   0.217800237312134   0.000000000000000 1
ion N   0.111440932313158   0.555720466156579   0.000000000000000 1
ion N   0.108900118656067   0.891099881343933   0.000000000000000 1
ion N   0.444600551142632   0.222300275571316   0.000000000000000 1
ion N   0.444279533843421   0.555720466156579   0.000000000000000 1
ion N   0.444279533843421   0.888559067686842   0.000000000000000 1
ion N   0.777699724428684   0.222300275571316   0.000000000000000 1
ion N   0.777699724428684   0.555399448857368   0.000000000000000 1
ion N   0.782199762687866   0.891099881343933   0.000000000000000 1
ion B  -0.000409163333578   0.332352225367090  -0.000000000000000 1
ion B  -0.000409163333578   0.667238611299332  -0.000000000000000 1
ion B   0.332761388700668   0.000409163333578   0.000000000000000 1
ion B   0.332761388700668   0.332352225367090  -0.000000000000000 1
ion B   0.333333333333333   0.666666666666667   0.000000000000000 1
ion B   0.667647774632910   0.000409163333578   0.000000000000000 1
ion B   0.666666666666667   0.333333333333333   0.000000000000000 1
ion B   0.667647774632910   0.667238611299332   0.000000000000000 1
ion-species SG15/$ID_ONCV_PBE.upf
ion-width 0
ionic-minimize  \
	dirUpdateScheme      L-BFGS \
	linminMethod         DirUpdateRecommended \
	nIterations          0 \
	history              15 \
	knormThreshold       0.0001 \
	energyDiffThreshold  1e-06 \
	nEnergyDiff          2 \
	alphaTstart          1 \
	alphaTmin            1e-10 \
	updateTestStepSize   yes \
	alphaTreduceFactor   0.1 \
	alphaTincreaseFactor 3 \
	nAlphaAdjustMax      3 \
	wolfeEnergy          0.0001 \
	wolfeGradient        0.9 \
	fdTest               no
kpoint   0.000000000000   0.000000000000   0.000000000000  1.00000000000000
kpoint-folding 12 12 1 
latt-move-scale 1 1 1
latt-scale 1 1 1 
lattice  \
	  14.116397090998559   -7.058198545499275    0.000000000000000  \
	  -0.000000000000000   12.225158490713497    0.000000000000000  \
	   0.000000000000000    0.000000000000000   40.000000000000000 
lattice-minimize  \
	dirUpdateScheme      L-BFGS \
	linminMethod         DirUpdateRecommended \
	nIterations          0 \
	history              15 \
	knormThreshold       0 \
	energyDiffThreshold  1e-06 \
	nEnergyDiff          2 \
	alphaTstart          1 \
	alphaTmin            1e-10 \
	updateTestStepSize   yes \
	alphaTreduceFactor   0.1 \
	alphaTincreaseFactor 3 \
	nAlphaAdjustMax      3 \
	wolfeEnergy          0.0001 \
	wolfeGradient        0.9 \
	fdTest               no
lcao-params -1 1e-06 1e-05
pcm-variant GLSSA13
spintype z-spin
subspace-rotation-factor 1 yes
symmetries automatic
symmetry-threshold 0.0001



---------- Setting up symmetries ----------

Found 24 point-group symmetries of the bravais lattice
Found 12 space-group symmetries with basis
Applied RMS atom displacement 2.54347e-15 bohrs to make symmetries exact.

---------- Initializing the Grid ----------
R = 
[      14.1164      -7.0582            0  ]
[            0      12.2252            0  ]
[            0            0           40  ]
unit cell volume = 6903.01
G =
[   0.445098   0.256978         -0  ]
[          0   0.513955         -0  ]
[         -0         -0    0.15708  ]
Minimum fftbox size, Smin = [  60  60  164  ]
Chosen fftbox size, S = [  60  60  168  ]

---------- Exchange Correlation functional ----------
Initalized PBE GGA exchange.
Initalized PBE GGA correlation.

---------- Setting up pseudopotentials ----------
Width of ionic core gaussian charges (only for fluid interactions / plotting) set to 0

Reading pseudopotential file '/home/gridsan/aligho/DFT/build-Nov24/pseudopotentials/SG15/C_ONCV_PBE.upf':
  'C' pseudopotential, 'PBE' functional
  Generated using ONCVPSP code by D. R. Hamann
  Author: Martin Schlipf and Francois Gygi  Date: 150915.
  4 valence electrons, 2 orbitals, 4 projectors, 1248 radial grid points, with lMax = 1
  Transforming local potential to a uniform radial grid of dG=0.02 with 1495 points.
  Transforming nonlocal projectors to a uniform radial grid of dG=0.02 with 432 points.
    2S    l: 0   occupation:  2.0   eigenvalue: -0.505335
    2P    l: 1   occupation:  2.0   eigenvalue: -0.194238
  Transforming atomic orbitals to a uniform radial grid of dG=0.02 with 432 points.
  Core radius for overlap checks: 1.23 bohrs.
  Reading pulay file /home/gridsan/aligho/DFT/build-Nov24/pseudopotentials/SG15/C_ONCV_PBE.pulay ... using dE_dnG = -9.239532e-03 computed for Ecut = 20.

Reading pseudopotential file '/home/gridsan/aligho/DFT/build-Nov24/pseudopotentials/SG15/N_ONCV_PBE.upf':
  'N' pseudopotential, 'PBE' functional
  Generated using ONCVPSP code by D. R. Hamann
  Author: Martin Schlipf and Francois Gygi  Date: 150915.
  5 valence electrons, 2 orbitals, 4 projectors, 1058 radial grid points, with lMax = 1
  Transforming local potential to a uniform radial grid of dG=0.02 with 1495 points.
  Transforming nonlocal projectors to a uniform radial grid of dG=0.02 with 432 points.
    2S    l: 0   occupation:  2.0   eigenvalue: -0.682907
    2P    l: 1   occupation:  3.0   eigenvalue: -0.260548
  Transforming atomic orbitals to a uniform radial grid of dG=0.02 with 432 points.
  Core radius for overlap checks: 1.35 bohrs.
  Reading pulay file /home/gridsan/aligho/DFT/build-Nov24/pseudopotentials/SG15/N_ONCV_PBE.pulay ... using dE_dnG = -2.956256e-02 computed for Ecut = 20.

Reading pseudopotential file '/home/gridsan/aligho/DFT/build-Nov24/pseudopotentials/SG15/B_ONCV_PBE.upf':
  'B' pseudopotential, 'PBE' functional
  Generated using ONCVPSP code by D. R. Hamann
  Author: Martin Schlipf and Francois Gygi  Date: 150915.
  3 valence electrons, 2 orbitals, 4 projectors, 1534 radial grid points, with lMax = 1
  Transforming local potential to a uniform radial grid of dG=0.02 with 1495 points.
  Transforming nonlocal projectors to a uniform radial grid of dG=0.02 with 432 points.
    2S    l: 0   occupation:  2.0   eigenvalue: -0.347027
    2P    l: 1   occupation:  1.0   eigenvalue: -0.132548
  Transforming atomic orbitals to a uniform radial grid of dG=0.02 with 432 points.
  Core radius for overlap checks: 1.60 bohrs.
  Reading pulay file /home/gridsan/aligho/DFT/build-Nov24/pseudopotentials/SG15/B_ONCV_PBE.pulay ... using dE_dnG = -3.748568e-04 computed for Ecut = 20.

Initialized 3 species with 18 total atoms.

Folded 1 k-points by 12x12x1 to 144 k-points.

---------- Setting up k-points, bands, fillings ----------
Adding inversion symmetry to k-mesh for non-inversion-symmetric unit cell.
Reduced to 19 k-points under symmetry. 
Computing the number of bands and number of electrons
Calculating initial fillings.
nElectrons:  73.000000   nBands: 72   nStates: 38

----- Setting up reduced wavefunction bases (one per k-point) -----
average nbasis = 29490.146 , ideal nbasis = 29490.175

---------- Setting up coulomb interaction ----------
Initialized slab truncation along lattice direction 001

---------- Setting up 2D ewald sum ----------
Optimum gaussian width for ewald sums = 7.836854 bohr.
Real space sums over 289 unit cells with max indices [  8  8  0  ]
Reciprocal space sums over 81 terms with max indices [  4  4  0  ]

---------- Allocating electronic variables ----------
Initializing wave functions:  linear combination of atomic orbitals
C pseudo-atom occupations:   s ( 2 )  p ( 2 )
N pseudo-atom occupations:   s ( 2 )  p ( 3 )
B pseudo-atom occupations:   s ( 2 )  p ( 1 )
[d-17-8-2:65089] 37 more processes have sent help message help-mpi-common-cuda.txt / dlopen failed
[d-17-8-2:65089] Set MCA parameter "orte_base_help_aggregate" to 0 to see all help / error messages
[d-17-8-2:65089] 37 more processes have sent help message help-mpi-btl-openib-cpc-base.txt / no cpcs for port
	FillingsUpdate:  mu: -0.191936875  nElectrons: 73.000000  magneticMoment: [ Abs: 0.89442  Tot: -0.86000 ]
LCAOMinimize: Iter:   0  F: -116.5325592665831920  |grad|_K:  4.445e-03  alpha:  1.000e+00
	FillingsUpdate:  mu: -0.214692927  nElectrons: 73.000000  magneticMoment: [ Abs: 0.90396  Tot: -0.86000 ]
LCAOMinimize: Iter:   1  F: -117.1935803454062466  |grad|_K:  9.539e-04  alpha:  4.009e-01  linmin:  1.688e-01  cgtest: -5.979e-01  t[s]:     25.26
	FillingsUpdate:  mu: -0.183832956  nElectrons: 73.000000  magneticMoment: [ Abs: 0.90787  Tot: -0.86000 ]
LCAOMinimize: Iter:   2  F: -117.2075864965638488  |grad|_K:  5.752e-04  alpha:  2.596e-01  linmin:  1.229e-03  cgtest:  7.433e-01  t[s]:     32.93
LCAOMinimize: Encountered beta<0, resetting CG.
	FillingsUpdate:  mu: -0.172681314  nElectrons: 73.000000  magneticMoment: [ Abs: 0.91112  Tot: -0.86000 ]
LCAOMinimize: Iter:   3  F: -117.2193390942828159  |grad|_K:  9.958e-05  alpha:  3.520e-01  linmin:  1.598e-02  cgtest: -6.949e-02  t[s]:     40.56
	FillingsUpdate:  mu: -0.176070446  nElectrons: 73.000000  magneticMoment: [ Abs: 0.91338  Tot: -0.86000 ]
LCAOMinimize: Iter:   4  F: -117.2196917218810199  |grad|_K:  1.344e-05  alpha:  3.562e-01  linmin:  1.098e-02  cgtest:  1.176e-01  t[s]:     48.23
	FillingsUpdate:  mu: -0.176338141  nElectrons: 73.000000  magneticMoment: [ Abs: 0.91600  Tot: -0.86000 ]
LCAOMinimize: Iter:   5  F: -117.2197034174859880  |grad|_K:  9.129e-06  alpha:  6.395e-01  linmin: -2.944e-04  cgtest:  3.824e-03  t[s]:     55.96
	FillingsUpdate:  mu: -0.176053689  nElectrons: 73.000000  magneticMoment: [ Abs: 0.91858  Tot: -0.86000 ]
LCAOMinimize: Iter:   6  F: -117.2197087486631943  |grad|_K:  3.561e-06  alpha:  6.313e-01  linmin: -1.453e-03  cgtest: -1.358e-03  t[s]:     63.64
	FillingsUpdate:  mu: -0.176151761  nElectrons: 73.000000  magneticMoment: [ Abs: 0.91892  Tot: -0.86000 ]
LCAOMinimize: Iter:   7  F: -117.2197093210329228  |grad|_K:  7.788e-07  alpha:  4.446e-01  linmin:  7.232e-05  cgtest: -1.386e-02  t[s]:     71.29
	FillingsUpdate:  mu: -0.176150252  nElectrons: 73.000000  magneticMoment: [ Abs: 0.91882  Tot: -0.86000 ]
LCAOMinimize: Iter:   8  F: -117.2197093747145118  |grad|_K:  2.587e-07  alpha:  8.730e-01  linmin: -1.874e-03  cgtest:  6.500e-03  t[s]:     78.93
LCAOMinimize: Converged (|Delta F|<1.000000e-06 for 2 iters).


---- Citations for features of the code used in this run ----

   Software package:
      R. Sundararaman, K. Letchworth-Weaver, K.A. Schwarz, D. Gunceler, Y. Ozhabes and T.A. Arias, 'JDFTx: software for joint density-functional theory', SoftwareX 6, 278 (2017)

   gga-PBE exchange-correlation functional:
      J.P. Perdew, K. Burke and M. Ernzerhof, Phys. Rev. Lett. 77, 3865 (1996)

   Pseudopotentials:
      M Schlipf and F Gygi, Comput. Phys. Commun. 196, 36 (2015)

   Truncated Coulomb potentials:
      R. Sundararaman and T.A. Arias, Phys. Rev. B 87, 165122 (2013)

This list may not be complete. Please suggest additional citations or
report any other bugs at https://github.com/shankar1729/jdftx/issues

Initialization completed successfully at t[s]:     79.70


-------- Electronic minimization -----------
Will mix electronic density at each iteration.
	FillingsUpdate:  mu: -0.176150252  nElectrons: 73.000000  magneticMoment: [ Abs: 0.91882  Tot: -0.86000 ]
	FillingsUpdate:  mu: -0.191015075  nElectrons: 73.000000  magneticMoment: [ Abs: 0.91882  Tot: -0.86000 ]
SCF: Cycle:  0   F: -118.147137592927990   dF: -9.274e-01   |Residual|: 3.372e-01   |deigs|: 1.139e-01  t[s]:    100.62
	FillingsUpdate:  mu: -0.169749584  nElectrons: 73.000000  magneticMoment: [ Abs: 0.96177  Tot: -0.86000 ]
SCF: Cycle:  1   F: -118.186025179148118   dF: -3.889e-02   |Residual|: 1.880e-01   |deigs|: 2.529e-02  t[s]:    116.17
	FillingsUpdate:  mu: -0.140170597  nElectrons: 73.000000  magneticMoment: [ Abs: 0.97769  Tot: -0.86000 ]
SCF: Cycle:  2   F: -118.211683065752425   dF: -2.566e-02   |Residual|: 4.103e-02   |deigs|: 2.992e-02  t[s]:    131.72
	FillingsUpdate:  mu: -0.136997259  nElectrons: 73.000000  magneticMoment: [ Abs: 0.98041  Tot: -0.86000 ]
SCF: Cycle:  3   F: -118.212488587809744   dF: -8.055e-04   |Residual|: 2.302e-02   |deigs|: 7.766e-03  t[s]:    147.36
	FillingsUpdate:  mu: -0.126018505  nElectrons: 73.000000  magneticMoment: [ Abs: 0.96358  Tot: -0.86000 ]
SCF: Cycle:  4   F: -118.213851161023868   dF: -1.363e-03   |Residual|: 1.242e-02   |deigs|: 9.846e-03  t[s]:    163.16
	FillingsUpdate:  mu: -0.120850662  nElectrons: 73.000000  magneticMoment: [ Abs: 0.96912  Tot: -0.86000 ]
SCF: Cycle:  5   F: -118.214216782290450   dF: -3.656e-04   |Residual|: 9.594e-03   |deigs|: 4.446e-03  t[s]:    179.01
	FillingsUpdate:  mu: -0.114799532  nElectrons: 73.000000  magneticMoment: [ Abs: 0.96678  Tot: -0.86000 ]
SCF: Cycle:  6   F: -118.214337358669823   dF: -1.206e-04   |Residual|: 6.089e-03   |deigs|: 5.345e-03  t[s]:    194.92
	FillingsUpdate:  mu: -0.110011107  nElectrons: 73.000000  magneticMoment: [ Abs: 0.96463  Tot: -0.86000 ]
SCF: Cycle:  7   F: -118.214314686367032   dF: +2.267e-05   |Residual|: 4.878e-03   |deigs|: 5.993e-03  t[s]:    210.96
	FillingsUpdate:  mu: -0.105956418  nElectrons: 73.000000  magneticMoment: [ Abs: 0.96656  Tot: -0.86000 ]
SCF: Cycle:  8   F: -118.214372721550745   dF: -5.804e-05   |Residual|: 4.020e-03   |deigs|: 4.082e-03  t[s]:    226.95
	FillingsUpdate:  mu: -0.102672545  nElectrons: 73.000000  magneticMoment: [ Abs: 0.96348  Tot: -0.86000 ]
SCF: Cycle:  9   F: -118.214423665990523   dF: -5.094e-05   |Residual|: 3.063e-03   |deigs|: 3.465e-03  t[s]:    242.98
	FillingsUpdate:  mu: -0.100596362  nElectrons: 73.000000  magneticMoment: [ Abs: 0.96373  Tot: -0.86000 ]
SCF: Cycle: 10   F: -118.214447427154255   dF: -2.376e-05   |Residual|: 2.643e-03   |deigs|: 2.124e-03  t[s]:    259.13
	FillingsUpdate:  mu: -0.097578269  nElectrons: 73.000000  magneticMoment: [ Abs: 0.96518  Tot: -0.86000 ]
SCF: Cycle: 11   F: -118.214465949324847   dF: -1.852e-05   |Residual|: 2.117e-03   |deigs|: 2.963e-03  t[s]:    275.40
	FillingsUpdate:  mu: -0.095087130  nElectrons: 73.000000  magneticMoment: [ Abs: 0.96398  Tot: -0.86000 ]
SCF: Cycle: 12   F: -118.214473585530584   dF: -7.636e-06   |Residual|: 1.974e-03   |deigs|: 2.266e-03  t[s]:    291.47
	FillingsUpdate:  mu: -0.091834607  nElectrons: 73.000000  magneticMoment: [ Abs: 0.96454  Tot: -0.86000 ]
SCF: Cycle: 13   F: -118.214476864165334   dF: -3.279e-06   |Residual|: 1.695e-03   |deigs|: 3.088e-03  t[s]:    307.58
	FillingsUpdate:  mu: -0.087926235  nElectrons: 73.000000  magneticMoment: [ Abs: 0.96343  Tot: -0.86000 ]
SCF: Cycle: 14   F: -118.214476157212303   dF: +7.070e-07   |Residual|: 1.655e-03   |deigs|: 3.449e-03  t[s]:    323.76
	FillingsUpdate:  mu: -0.084431278  nElectrons: 73.000000  magneticMoment: [ Abs: 0.96415  Tot: -0.86000 ]
SCF: Cycle: 15   F: -118.214476992229010   dF: -8.350e-07   |Residual|: 1.501e-03   |deigs|: 3.126e-03  t[s]:    340.06
	FillingsUpdate:  mu: -0.080314948  nElectrons: 73.000000  magneticMoment: [ Abs: 0.96509  Tot: -0.86000 ]
SCF: Cycle: 16   F: -118.214479493809563   dF: -2.502e-06   |Residual|: 1.207e-03   |deigs|: 3.883e-03  t[s]:    356.31
	FillingsUpdate:  mu: -0.078248009  nElectrons: 73.000000  magneticMoment: [ Abs: 0.96318  Tot: -0.86000 ]
SCF: Cycle: 17   F: -118.214484269178101   dF: -4.775e-06   |Residual|: 9.430e-04   |deigs|: 1.811e-03  t[s]:    372.59
	FillingsUpdate:  mu: -0.076922939  nElectrons: 73.000000  magneticMoment: [ Abs: 0.96271  Tot: -0.86000 ]
SCF: Cycle: 18   F: -118.214487678860394   dF: -3.410e-06   |Residual|: 5.763e-04   |deigs|: 1.257e-03  t[s]:    388.92
	FillingsUpdate:  mu: -0.076406584  nElectrons: 73.000000  magneticMoment: [ Abs: 0.96230  Tot: -0.86000 ]
SCF: Cycle: 19   F: -118.214488494383914   dF: -8.155e-07   |Residual|: 3.710e-04   |deigs|: 5.340e-04  t[s]:    405.15
	FillingsUpdate:  mu: -0.076051685  nElectrons: 73.000000  magneticMoment: [ Abs: 0.96231  Tot: -0.86000 ]
SCF: Cycle: 20   F: -118.214488893730760   dF: -3.993e-07   |Residual|: 2.221e-04   |deigs|: 6.345e-04  t[s]:    421.43
	FillingsUpdate:  mu: -0.075859048  nElectrons: 73.000000  magneticMoment: [ Abs: 0.96219  Tot: -0.86000 ]
SCF: Cycle: 21   F: -118.214489068277985   dF: -1.745e-07   |Residual|: 1.336e-04   |deigs|: 4.112e-04  t[s]:    437.59
	FillingsUpdate:  mu: -0.075713204  nElectrons: 73.000000  magneticMoment: [ Abs: 0.96196  Tot: -0.86000 ]
SCF: Cycle: 22   F: -118.214489150772138   dF: -8.249e-08   |Residual|: 7.097e-05   |deigs|: 6.977e-04  t[s]:    453.88
	FillingsUpdate:  mu: -0.075650555  nElectrons: 73.000000  magneticMoment: [ Abs: 0.96192  Tot: -0.86000 ]
SCF: Cycle: 23   F: -118.214489178475958   dF: -2.770e-08   |Residual|: 4.981e-05   |deigs|: 1.990e-04  t[s]:    469.98
	FillingsUpdate:  mu: -0.075604719  nElectrons: 73.000000  magneticMoment: [ Abs: 0.96184  Tot: -0.86000 ]
SCF: Cycle: 24   F: -118.214489193376053   dF: -1.490e-08   |Residual|: 3.056e-05   |deigs|: 1.888e-04  t[s]:    486.16
	FillingsUpdate:  mu: -0.075578103  nElectrons: 73.000000  magneticMoment: [ Abs: 0.96182  Tot: -0.86000 ]
SCF: Cycle: 25   F: -118.214489199823760   dF: -6.448e-09   |Residual|: 1.834e-05   |deigs|: 3.055e-04  t[s]:    502.32
	FillingsUpdate:  mu: -0.075567357  nElectrons: 73.000000  magneticMoment: [ Abs: 0.96179  Tot: -0.86000 ]
SCF: Cycle: 26   F: -118.214489202072599   dF: -2.249e-09   |Residual|: 1.114e-05   |deigs|: 1.447e-04  t[s]:    518.62
SCF: Converged (|Delta E|<1.000000e-08 for 2 iters).


# Ionic positions in lattice coordinates:
ion C  -0.000000000000000   0.000000000000000   0.000000000000000 1
ion N   0.108900118656067   0.217800237312134   0.000000000000000 1
ion N   0.111440932313158   0.555720466156579   0.000000000000000 1
ion N   0.108900118656067   0.891099881343933   0.000000000000000 1
ion N   0.444600551142632   0.222300275571316   0.000000000000000 1
ion N   0.444279533843421   0.555720466156579   0.000000000000000 1
ion N   0.444279533843421   0.888559067686842   0.000000000000000 1
ion N   0.777699724428684   0.222300275571316   0.000000000000000 1
ion N   0.777699724428684   0.555399448857368   0.000000000000000 1
ion N   0.782199762687866   0.891099881343933   0.000000000000000 1
ion B  -0.000409163333578   0.332352225367090   0.000000000000000 1
ion B  -0.000409163333578   0.667238611299332   0.000000000000000 1
ion B   0.332761388700668   0.000409163333578   0.000000000000000 1
ion B   0.332761388700668   0.332352225367090   0.000000000000000 1
ion B   0.333333333333333   0.666666666666667   0.000000000000000 1
ion B   0.667647774632910   0.000409163333578   0.000000000000000 1
ion B   0.666666666666667   0.333333333333333   0.000000000000000 1
ion B   0.667647774632910   0.667238611299332   0.000000000000000 1

# Forces in Lattice coordinates:
force C   0.000000000000000   0.000000000000000   0.000000000000000 1
force N  -0.000000000000000  -0.029884337341502  -0.000000000000000 1
force N   0.003881089870502   0.000000000000000   0.000000000000000 1
force N  -0.029884337341502   0.029884337341500   0.000000000000000 1
force N  -0.004242068239101  -0.000000000000000   0.000000000000000 1
force N  -0.003881089870502   0.003881089870502   0.000000000000000 1
force N   0.000000000000000  -0.003881089870502   0.000000000000000 1
force N   0.004242068239101  -0.004242068239101   0.000000000000000 1
force N   0.000000000000000   0.004242068239101   0.000000000000000 1
force N   0.029884337341499   0.000000000000000   0.000000000000000 1
force B  -0.012591849079177   0.008510762607785   0.000000000000000 1
force B  -0.004081086471391  -0.008510762607786  -0.000000000000000 1
force B   0.008510762607786   0.004081086471392  -0.000000000000000 1
force B   0.012591849079177  -0.004081086471391   0.000000000000000 1
force B   0.000000000000000  -0.000000000000000   0.000000000000000 1
force B  -0.008510762607785   0.012591849079177  -0.000000000000000 1
force B  -0.000000000000000  -0.000000000000000   0.000000000000000 1
force B   0.004081086471392  -0.012591849079177   0.000000000000000 1

# Energy components:
   Eewald =     -185.5884594997991428
       EH =      -93.0084068127926571
     Eloc =      115.4348550430904936
      Enl =       -5.2805686551518018
   Epulay =       -0.0000011688465181
      Exc =      -33.7585838530855753
       KE =       83.9866762994013669
-------------------------------------
     Etot =     -118.2144886471838703
       TS =        0.0000005548887269
-------------------------------------
        F =     -118.2144892020725990

IonicMinimize: Iter:   0  F: -118.214489202072599  |grad|_K:  6.605e-04  t[s]:    520.02
IonicMinimize: None of the convergence criteria satisfied after 0 iterations.

#--- Lowdin population analysis ---
# oxidation-state C +0.273
# magnetic-moments C -0.499
# oxidation-state N -0.268 -0.373 -0.268 -0.378 -0.373 -0.373 -0.378 -0.378 -0.268
# magnetic-moments N -0.003 +0.004 -0.003 -0.020 +0.004 +0.004 -0.020 -0.020 -0.003
# oxidation-state B +0.431 +0.431 +0.431 +0.431 +0.433 +0.431 +0.430 +0.431
# magnetic-moments B -0.040 -0.040 -0.040 -0.040 -0.017 -0.040 -0.022 -0.040

End date and time: Sun Feb  6 19:24:09 2022  (Duration: 0-0:08:40.35)
Done!
