magnetization is 0.4
--------------------------------------------------------------------------
The library attempted to open the following supporting CUDA libraries,
but each of them failed.  CUDA-aware support is disabled.
libcuda.so.1: cannot open shared object file: No such file or directory
libcuda.dylib: cannot open shared object file: No such file or directory
/usr/lib64/libcuda.so.1: cannot open shared object file: No such file or directory
/usr/lib64/libcuda.dylib: cannot open shared object file: No such file or directory
If you are not interested in CUDA-aware support, then run with
--mca opal_warn_on_missing_libcuda 0 to suppress this message.  If you are interested
in CUDA-aware support, then try setting LD_LIBRARY_PATH to the location
of libcuda.so.1 to get passed this issue.
--------------------------------------------------------------------------
--------------------------------------------------------------------------
No OpenFabrics connection schemes reported that they were able to be
used on a specific port.  As such, the openib BTL (OpenFabrics
support) will be disabled for this port.

  Local host:           d-3-4-2
  Local device:         mlx5_1
  Local port:           1
  CPCs attempted:       rdmacm, udcm
--------------------------------------------------------------------------

*************** JDFTx 1.6.0 (git hash 42ebbcc2) ***************

Start date and time: Sun Feb  6 19:41:04 2022
Executable jdftx with command-line: -i BN33BC.in
Running on hosts (process indices):  d-3-4-2 (0-37)
Divided in process groups (process indices):  0 (0)  1 (1)  2 (2)  3 (3)  4 (4)  5 (5)  6 (6)  7 (7)  8 (8)  9 (9)  10 (10)  11 (11)  12 (12)  13 (13)  14 (14)  15 (15)  16 (16)  17 (17)  18 (18)  19 (19)  20 (20)  21 (21)  22 (22)  23 (23)  24 (24)  25 (25)  26 (26)  27 (27)  28 (28)  29 (29)  30 (30)  31 (31)  32 (32)  33 (33)  34 (34)  35 (35)  36 (36)  37 (37)
Resource initialization completed at t[s]:      0.00
Run totals: 38 processes, 48 threads, 0 GPUs


Input parsed successfully to the following command list (including defaults):

basis kpoint-dependent
coords-type Lattice
core-overlap-check vector
coulomb-interaction Slab 001
davidson-band-ratio 1.1
dump End None
dump-name $INPUT.$VAR
elec-cutoff 20
elec-eigen-algo Davidson
elec-ex-corr gga-PBE
elec-initial-magnetization 0.400000 yes
elec-smearing Fermi 1e-05
electronic-minimize  \
	dirUpdateScheme      FletcherReeves \
	linminMethod         DirUpdateRecommended \
	nIterations          100 \
	history              15 \
	knormThreshold       0 \
	energyDiffThreshold  1e-08 \
	nEnergyDiff          2 \
	alphaTstart          1 \
	alphaTmin            1e-10 \
	updateTestStepSize   yes \
	alphaTreduceFactor   0.1 \
	alphaTincreaseFactor 3 \
	nAlphaAdjustMax      3 \
	wolfeEnergy          0.0001 \
	wolfeGradient        0.9 \
	fdTest               no
electronic-scf  \
	nIterations	1000 \
	energyDiffThreshold	1e-08 \
	residualThreshold	1e-07 \
	mixFraction	0.5 \
	qMetric	0.8 \
	history	10 \
	nEigSteps	2 \
	eigDiffThreshold	1e-08 \
	mixedVariable	Density \
	qKerker	0.8 \
	qKappa	-1 \
	verbose	no \
	mixFractionMag	1.5
exchange-regularization WignerSeitzTruncated
fluid None
fluid-ex-corr (null) lda-PZ
fluid-gummel-loop 10 1.000000e-05
fluid-minimize  \
	dirUpdateScheme      PolakRibiere \
	linminMethod         DirUpdateRecommended \
	nIterations          100 \
	history              15 \
	knormThreshold       0 \
	energyDiffThreshold  0 \
	nEnergyDiff          2 \
	alphaTstart          1 \
	alphaTmin            1e-10 \
	updateTestStepSize   yes \
	alphaTreduceFactor   0.1 \
	alphaTincreaseFactor 3 \
	nAlphaAdjustMax      3 \
	wolfeEnergy          0.0001 \
	wolfeGradient        0.9 \
	fdTest               no
fluid-solvent H2O 55.338 ScalarEOS \
	epsBulk 78.4 \
	pMol 0.92466 \
	epsInf 1.77 \
	Pvap 1.06736e-10 \
	sigmaBulk 4.62e-05 \
	Rvdw 2.61727 \
	Res 1.42 \
	tauNuc 343133 \
	poleEl 15 7 1
forces-output-coords Positions
ion C   0.000000000000000  -0.000000000000000   0.000000000000000 1
ion N   0.108900118656067   0.217800237312134   0.000000000000000 1
ion N   0.111440932313158   0.555720466156579   0.000000000000000 1
ion N   0.108900118656067   0.891099881343933   0.000000000000000 1
ion N   0.444600551142632   0.222300275571316   0.000000000000000 1
ion N   0.444279533843421   0.555720466156579   0.000000000000000 1
ion N   0.444279533843421   0.888559067686842   0.000000000000000 1
ion N   0.777699724428684   0.222300275571316   0.000000000000000 1
ion N   0.777699724428684   0.555399448857368   0.000000000000000 1
ion N   0.782199762687866   0.891099881343933   0.000000000000000 1
ion B  -0.000409163333578   0.332352225367090  -0.000000000000000 1
ion B  -0.000409163333578   0.667238611299332  -0.000000000000000 1
ion B   0.332761388700668   0.000409163333578   0.000000000000000 1
ion B   0.332761388700668   0.332352225367090  -0.000000000000000 1
ion B   0.333333333333333   0.666666666666667   0.000000000000000 1
ion B   0.667647774632910   0.000409163333578   0.000000000000000 1
ion B   0.666666666666667   0.333333333333333   0.000000000000000 1
ion B   0.667647774632910   0.667238611299332   0.000000000000000 1
ion-species SG15/$ID_ONCV_PBE.upf
ion-width 0
ionic-minimize  \
	dirUpdateScheme      L-BFGS \
	linminMethod         DirUpdateRecommended \
	nIterations          0 \
	history              15 \
	knormThreshold       0.0001 \
	energyDiffThreshold  1e-06 \
	nEnergyDiff          2 \
	alphaTstart          1 \
	alphaTmin            1e-10 \
	updateTestStepSize   yes \
	alphaTreduceFactor   0.1 \
	alphaTincreaseFactor 3 \
	nAlphaAdjustMax      3 \
	wolfeEnergy          0.0001 \
	wolfeGradient        0.9 \
	fdTest               no
kpoint   0.000000000000   0.000000000000   0.000000000000  1.00000000000000
kpoint-folding 12 12 1 
latt-move-scale 1 1 1
latt-scale 1 1 1 
lattice  \
	  14.116397090998559   -7.058198545499275    0.000000000000000  \
	  -0.000000000000000   12.225158490713497    0.000000000000000  \
	   0.000000000000000    0.000000000000000   40.000000000000000 
lattice-minimize  \
	dirUpdateScheme      L-BFGS \
	linminMethod         DirUpdateRecommended \
	nIterations          0 \
	history              15 \
	knormThreshold       0 \
	energyDiffThreshold  1e-06 \
	nEnergyDiff          2 \
	alphaTstart          1 \
	alphaTmin            1e-10 \
	updateTestStepSize   yes \
	alphaTreduceFactor   0.1 \
	alphaTincreaseFactor 3 \
	nAlphaAdjustMax      3 \
	wolfeEnergy          0.0001 \
	wolfeGradient        0.9 \
	fdTest               no
lcao-params -1 1e-06 1e-05
pcm-variant GLSSA13
spintype z-spin
subspace-rotation-factor 1 yes
symmetries automatic
symmetry-threshold 0.0001



---------- Setting up symmetries ----------

Found 24 point-group symmetries of the bravais lattice
Found 12 space-group symmetries with basis
Applied RMS atom displacement 2.54347e-15 bohrs to make symmetries exact.

---------- Initializing the Grid ----------
R = 
[      14.1164      -7.0582            0  ]
[            0      12.2252            0  ]
[            0            0           40  ]
unit cell volume = 6903.01
G =
[   0.445098   0.256978         -0  ]
[          0   0.513955         -0  ]
[         -0         -0    0.15708  ]
Minimum fftbox size, Smin = [  60  60  164  ]
Chosen fftbox size, S = [  60  60  168  ]

---------- Exchange Correlation functional ----------
Initalized PBE GGA exchange.
Initalized PBE GGA correlation.

---------- Setting up pseudopotentials ----------
Width of ionic core gaussian charges (only for fluid interactions / plotting) set to 0

Reading pseudopotential file '/home/gridsan/aligho/DFT/build-Nov24/pseudopotentials/SG15/C_ONCV_PBE.upf':
  'C' pseudopotential, 'PBE' functional
  Generated using ONCVPSP code by D. R. Hamann
  Author: Martin Schlipf and Francois Gygi  Date: 150915.
  4 valence electrons, 2 orbitals, 4 projectors, 1248 radial grid points, with lMax = 1
  Transforming local potential to a uniform radial grid of dG=0.02 with 1495 points.
  Transforming nonlocal projectors to a uniform radial grid of dG=0.02 with 432 points.
    2S    l: 0   occupation:  2.0   eigenvalue: -0.505335
    2P    l: 1   occupation:  2.0   eigenvalue: -0.194238
  Transforming atomic orbitals to a uniform radial grid of dG=0.02 with 432 points.
  Core radius for overlap checks: 1.23 bohrs.
  Reading pulay file /home/gridsan/aligho/DFT/build-Nov24/pseudopotentials/SG15/C_ONCV_PBE.pulay ... using dE_dnG = -9.239532e-03 computed for Ecut = 20.

Reading pseudopotential file '/home/gridsan/aligho/DFT/build-Nov24/pseudopotentials/SG15/N_ONCV_PBE.upf':
  'N' pseudopotential, 'PBE' functional
  Generated using ONCVPSP code by D. R. Hamann
  Author: Martin Schlipf and Francois Gygi  Date: 150915.
  5 valence electrons, 2 orbitals, 4 projectors, 1058 radial grid points, with lMax = 1
  Transforming local potential to a uniform radial grid of dG=0.02 with 1495 points.
  Transforming nonlocal projectors to a uniform radial grid of dG=0.02 with 432 points.
    2S    l: 0   occupation:  2.0   eigenvalue: -0.682907
    2P    l: 1   occupation:  3.0   eigenvalue: -0.260548
  Transforming atomic orbitals to a uniform radial grid of dG=0.02 with 432 points.
  Core radius for overlap checks: 1.35 bohrs.
  Reading pulay file /home/gridsan/aligho/DFT/build-Nov24/pseudopotentials/SG15/N_ONCV_PBE.pulay ... using dE_dnG = -2.956256e-02 computed for Ecut = 20.

Reading pseudopotential file '/home/gridsan/aligho/DFT/build-Nov24/pseudopotentials/SG15/B_ONCV_PBE.upf':
  'B' pseudopotential, 'PBE' functional
  Generated using ONCVPSP code by D. R. Hamann
  Author: Martin Schlipf and Francois Gygi  Date: 150915.
  3 valence electrons, 2 orbitals, 4 projectors, 1534 radial grid points, with lMax = 1
  Transforming local potential to a uniform radial grid of dG=0.02 with 1495 points.
  Transforming nonlocal projectors to a uniform radial grid of dG=0.02 with 432 points.
    2S    l: 0   occupation:  2.0   eigenvalue: -0.347027
    2P    l: 1   occupation:  1.0   eigenvalue: -0.132548
  Transforming atomic orbitals to a uniform radial grid of dG=0.02 with 432 points.
  Core radius for overlap checks: 1.60 bohrs.
  Reading pulay file /home/gridsan/aligho/DFT/build-Nov24/pseudopotentials/SG15/B_ONCV_PBE.pulay ... using dE_dnG = -3.748568e-04 computed for Ecut = 20.

Initialized 3 species with 18 total atoms.

Folded 1 k-points by 12x12x1 to 144 k-points.

---------- Setting up k-points, bands, fillings ----------
Adding inversion symmetry to k-mesh for non-inversion-symmetric unit cell.
Reduced to 19 k-points under symmetry. 
Computing the number of bands and number of electrons
Calculating initial fillings.
nElectrons:  73.000000   nBands: 72   nStates: 38

----- Setting up reduced wavefunction bases (one per k-point) -----
average nbasis = 29490.146 , ideal nbasis = 29490.175

---------- Setting up coulomb interaction ----------
Initialized slab truncation along lattice direction 001

---------- Setting up 2D ewald sum ----------
Optimum gaussian width for ewald sums = 7.836854 bohr.
Real space sums over 289 unit cells with max indices [  8  8  0  ]
Reciprocal space sums over 81 terms with max indices [  4  4  0  ]

---------- Allocating electronic variables ----------
Initializing wave functions:  linear combination of atomic orbitals
C pseudo-atom occupations:   s ( 2 )  p ( 2 )
N pseudo-atom occupations:   s ( 2 )  p ( 3 )
B pseudo-atom occupations:   s ( 2 )  p ( 1 )
[d-3-4-2:69942] 37 more processes have sent help message help-mpi-common-cuda.txt / dlopen failed
[d-3-4-2:69942] Set MCA parameter "orte_base_help_aggregate" to 0 to see all help / error messages
[d-3-4-2:69942] 37 more processes have sent help message help-mpi-btl-openib-cpc-base.txt / no cpcs for port
	FillingsUpdate:  mu: -0.192823467  nElectrons: 73.000000  magneticMoment: [ Abs: 0.41557  Tot: +0.40000 ]
LCAOMinimize: Iter:   0  F: -116.5133512334321040  |grad|_K:  4.491e-03  alpha:  1.000e+00
	FillingsUpdate:  mu: -0.222641153  nElectrons: 73.000000  magneticMoment: [ Abs: 0.41914  Tot: +0.40000 ]
LCAOMinimize: Iter:   1  F: -117.1852061290367573  |grad|_K:  1.051e-03  alpha:  3.998e-01  linmin:  1.718e-01  cgtest: -5.905e-01  t[s]:     25.24
	FillingsUpdate:  mu: -0.184205993  nElectrons: 73.000000  magneticMoment: [ Abs: 0.42046  Tot: +0.40000 ]
LCAOMinimize: Iter:   2  F: -117.2013872537882122  |grad|_K:  6.375e-04  alpha:  2.513e-01  linmin:  1.808e-03  cgtest:  7.528e-01  t[s]:     32.93
LCAOMinimize: Encountered beta<0, resetting CG.
	FillingsUpdate:  mu: -0.168737568  nElectrons: 73.000000  magneticMoment: [ Abs: 0.42128  Tot: +0.40000 ]
LCAOMinimize: Iter:   3  F: -117.2154383683152759  |grad|_K:  1.191e-04  alpha:  3.426e-01  linmin:  1.146e-02  cgtest: -7.291e-02  t[s]:     40.65
	FillingsUpdate:  mu: -0.173630712  nElectrons: 73.000000  magneticMoment: [ Abs: 0.42163  Tot: +0.40000 ]
LCAOMinimize: Iter:   4  F: -117.2159309215383729  |grad|_K:  1.318e-05  alpha:  3.477e-01  linmin:  1.387e-02  cgtest:  1.606e-01  t[s]:     48.32
LCAOMinimize: Encountered beta<0, resetting CG.
	FillingsUpdate:  mu: -0.173982188  nElectrons: 73.000000  magneticMoment: [ Abs: 0.42209  Tot: +0.40000 ]
LCAOMinimize: Iter:   5  F: -117.2159388069323711  |grad|_K:  6.960e-06  alpha:  4.483e-01  linmin:  2.082e-04  cgtest: -1.638e-03  t[s]:     56.08
	FillingsUpdate:  mu: -0.173683003  nElectrons: 73.000000  magneticMoment: [ Abs: 0.42347  Tot: +0.40000 ]
LCAOMinimize: Iter:   6  F: -117.2159426498973147  |grad|_K:  3.834e-06  alpha:  7.823e-01  linmin: -1.552e-03  cgtest:  1.164e-02  t[s]:     63.86
	FillingsUpdate:  mu: -0.173815248  nElectrons: 73.000000  magneticMoment: [ Abs: 0.42456  Tot: +0.40000 ]
LCAOMinimize: Iter:   7  F: -117.2159434002978173  |grad|_K:  9.827e-07  alpha:  5.019e-01  linmin: -9.570e-05  cgtest: -1.973e-02  t[s]:     71.61
	FillingsUpdate:  mu: -0.173802696  nElectrons: 73.000000  magneticMoment: [ Abs: 0.42480  Tot: +0.40000 ]
LCAOMinimize: Iter:   8  F: -117.2159434731315599  |grad|_K:  4.985e-07  alpha:  7.441e-01  linmin: -1.246e-03  cgtest:  4.678e-03  t[s]:     79.30
LCAOMinimize: Converged (|Delta F|<1.000000e-06 for 2 iters).


---- Citations for features of the code used in this run ----

   Software package:
      R. Sundararaman, K. Letchworth-Weaver, K.A. Schwarz, D. Gunceler, Y. Ozhabes and T.A. Arias, 'JDFTx: software for joint density-functional theory', SoftwareX 6, 278 (2017)

   gga-PBE exchange-correlation functional:
      J.P. Perdew, K. Burke and M. Ernzerhof, Phys. Rev. Lett. 77, 3865 (1996)

   Pseudopotentials:
      M Schlipf and F Gygi, Comput. Phys. Commun. 196, 36 (2015)

   Truncated Coulomb potentials:
      R. Sundararaman and T.A. Arias, Phys. Rev. B 87, 165122 (2013)

This list may not be complete. Please suggest additional citations or
report any other bugs at https://github.com/shankar1729/jdftx/issues

Initialization completed successfully at t[s]:     80.09


-------- Electronic minimization -----------
Will mix electronic density at each iteration.
	FillingsUpdate:  mu: -0.173802696  nElectrons: 73.000000  magneticMoment: [ Abs: 0.42480  Tot: +0.40000 ]
	FillingsUpdate:  mu: -0.191804816  nElectrons: 73.000000  magneticMoment: [ Abs: 0.42480  Tot: +0.40000 ]
SCF: Cycle:  0   F: -118.141887218525099   dF: -9.259e-01   |Residual|: 3.366e-01   |deigs|: 1.137e-01  t[s]:    101.06
	FillingsUpdate:  mu: -0.170482359  nElectrons: 73.000000  magneticMoment: [ Abs: 0.44292  Tot: +0.40000 ]
SCF: Cycle:  1   F: -118.181221037916544   dF: -3.933e-02   |Residual|: 1.877e-01   |deigs|: 2.534e-02  t[s]:    116.55
	FillingsUpdate:  mu: -0.141109643  nElectrons: 73.000000  magneticMoment: [ Abs: 0.45307  Tot: +0.40000 ]
SCF: Cycle:  2   F: -118.206908079693378   dF: -2.569e-02   |Residual|: 4.082e-02   |deigs|: 2.999e-02  t[s]:    132.25
	FillingsUpdate:  mu: -0.137712999  nElectrons: 73.000000  magneticMoment: [ Abs: 0.45499  Tot: +0.40000 ]
SCF: Cycle:  3   F: -118.207697070728699   dF: -7.890e-04   |Residual|: 2.271e-02   |deigs|: 7.964e-03  t[s]:    147.92
	FillingsUpdate:  mu: -0.125887688  nElectrons: 73.000000  magneticMoment: [ Abs: 0.44877  Tot: +0.40000 ]
SCF: Cycle:  4   F: -118.209151470571356   dF: -1.454e-03   |Residual|: 1.201e-02   |deigs|: 1.054e-02  t[s]:    163.69
	FillingsUpdate:  mu: -0.120869863  nElectrons: 73.000000  magneticMoment: [ Abs: 0.45282  Tot: +0.40000 ]
SCF: Cycle:  5   F: -118.209451415704763   dF: -2.999e-04   |Residual|: 8.742e-03   |deigs|: 4.302e-03  t[s]:    179.45
	FillingsUpdate:  mu: -0.114707445  nElectrons: 73.000000  magneticMoment: [ Abs: 0.44891  Tot: +0.40000 ]
SCF: Cycle:  6   F: -118.209543150056930   dF: -9.173e-05   |Residual|: 5.897e-03   |deigs|: 5.803e-03  t[s]:    195.30
	FillingsUpdate:  mu: -0.110348812  nElectrons: 73.000000  magneticMoment: [ Abs: 0.44805  Tot: +0.40000 ]
SCF: Cycle:  7   F: -118.209529200586289   dF: +1.395e-05   |Residual|: 4.784e-03   |deigs|: 5.330e-03  t[s]:    211.25
	FillingsUpdate:  mu: -0.105862715  nElectrons: 73.000000  magneticMoment: [ Abs: 0.44918  Tot: +0.40000 ]
SCF: Cycle:  8   F: -118.209597872032859   dF: -6.867e-05   |Residual|: 3.872e-03   |deigs|: 4.503e-03  t[s]:    227.16
	FillingsUpdate:  mu: -0.103309365  nElectrons: 73.000000  magneticMoment: [ Abs: 0.44696  Tot: +0.40000 ]
SCF: Cycle:  9   F: -118.209636951589033   dF: -3.908e-05   |Residual|: 3.017e-03   |deigs|: 2.748e-03  t[s]:    243.32
	FillingsUpdate:  mu: -0.100735793  nElectrons: 73.000000  magneticMoment: [ Abs: 0.44880  Tot: +0.40000 ]
SCF: Cycle: 10   F: -118.209664050994149   dF: -2.710e-05   |Residual|: 2.635e-03   |deigs|: 2.700e-03  t[s]:    259.51
	FillingsUpdate:  mu: -0.097849286  nElectrons: 73.000000  magneticMoment: [ Abs: 0.44826  Tot: +0.40000 ]
SCF: Cycle: 11   F: -118.209679541912578   dF: -1.549e-05   |Residual|: 2.141e-03   |deigs|: 2.700e-03  t[s]:    275.65
	FillingsUpdate:  mu: -0.095427612  nElectrons: 73.000000  magneticMoment: [ Abs: 0.44715  Tot: +0.40000 ]
SCF: Cycle: 12   F: -118.209685524063531   dF: -5.982e-06   |Residual|: 1.918e-03   |deigs|: 2.250e-03  t[s]:    291.80
	FillingsUpdate:  mu: -0.091471032  nElectrons: 73.000000  magneticMoment: [ Abs: 0.44875  Tot: +0.40000 ]
SCF: Cycle: 13   F: -118.209687837261939   dF: -2.313e-06   |Residual|: 1.668e-03   |deigs|: 3.708e-03  t[s]:    307.99
	FillingsUpdate:  mu: -0.088334903  nElectrons: 73.000000  magneticMoment: [ Abs: 0.44711  Tot: +0.40000 ]
SCF: Cycle: 14   F: -118.209687345284081   dF: +4.920e-07   |Residual|: 1.643e-03   |deigs|: 2.745e-03  t[s]:    324.20
	FillingsUpdate:  mu: -0.083943178  nElectrons: 73.000000  magneticMoment: [ Abs: 0.44866  Tot: +0.40000 ]
SCF: Cycle: 15   F: -118.209687455297939   dF: -1.100e-07   |Residual|: 1.441e-03   |deigs|: 4.121e-03  t[s]:    340.36
	FillingsUpdate:  mu: -0.080626886  nElectrons: 73.000000  magneticMoment: [ Abs: 0.44765  Tot: +0.40000 ]
SCF: Cycle: 16   F: -118.209691814136903   dF: -4.359e-06   |Residual|: 1.164e-03   |deigs|: 3.011e-03  t[s]:    356.29
	FillingsUpdate:  mu: -0.078586589  nElectrons: 73.000000  magneticMoment: [ Abs: 0.44669  Tot: +0.40000 ]
SCF: Cycle: 17   F: -118.209696839331414   dF: -5.025e-06   |Residual|: 8.425e-04   |deigs|: 1.777e-03  t[s]:    372.36
	FillingsUpdate:  mu: -0.077632465  nElectrons: 73.000000  magneticMoment: [ Abs: 0.44640  Tot: +0.40000 ]
SCF: Cycle: 18   F: -118.209699116310347   dF: -2.277e-06   |Residual|: 5.370e-04   |deigs|: 1.169e-03  t[s]:    388.53
	FillingsUpdate:  mu: -0.077162324  nElectrons: 73.000000  magneticMoment: [ Abs: 0.44631  Tot: +0.40000 ]
SCF: Cycle: 19   F: -118.209699768307914   dF: -6.520e-07   |Residual|: 3.094e-04   |deigs|: 5.150e-04  t[s]:    404.58
	FillingsUpdate:  mu: -0.076913938  nElectrons: 73.000000  magneticMoment: [ Abs: 0.44620  Tot: +0.40000 ]
SCF: Cycle: 20   F: -118.209700062192454   dF: -2.939e-07   |Residual|: 2.057e-04   |deigs|: 4.210e-04  t[s]:    420.75
	FillingsUpdate:  mu: -0.076703124  nElectrons: 73.000000  magneticMoment: [ Abs: 0.44605  Tot: +0.40000 ]
SCF: Cycle: 21   F: -118.209700232133741   dF: -1.699e-07   |Residual|: 1.276e-04   |deigs|: 4.793e-04  t[s]:    436.74
	FillingsUpdate:  mu: -0.076547143  nElectrons: 73.000000  magneticMoment: [ Abs: 0.44597  Tot: +0.40000 ]
SCF: Cycle: 22   F: -118.209700311355206   dF: -7.922e-08   |Residual|: 7.493e-05   |deigs|: 7.843e-04  t[s]:    452.88
	FillingsUpdate:  mu: -0.076485273  nElectrons: 73.000000  magneticMoment: [ Abs: 0.44589  Tot: +0.40000 ]
SCF: Cycle: 23   F: -118.209700332318661   dF: -2.096e-08   |Residual|: 4.946e-05   |deigs|: 1.563e-04  t[s]:    468.97
	FillingsUpdate:  mu: -0.076441106  nElectrons: 73.000000  magneticMoment: [ Abs: 0.44587  Tot: +0.40000 ]
SCF: Cycle: 24   F: -118.209700344553141   dF: -1.223e-08   |Residual|: 2.985e-05   |deigs|: 2.207e-04  t[s]:    485.04
	FillingsUpdate:  mu: -0.076425049  nElectrons: 73.000000  magneticMoment: [ Abs: 0.44584  Tot: +0.40000 ]
SCF: Cycle: 25   F: -118.209700348699030   dF: -4.146e-09   |Residual|: 1.853e-05   |deigs|: 3.481e-04  t[s]:    501.10
	FillingsUpdate:  mu: -0.076417391  nElectrons: 73.000000  magneticMoment: [ Abs: 0.44584  Tot: +0.40000 ]
SCF: Cycle: 26   F: -118.209700350362866   dF: -1.664e-09   |Residual|: 1.089e-05   |deigs|: 1.346e-04  t[s]:    517.22
SCF: Converged (|Delta E|<1.000000e-08 for 2 iters).


# Ionic positions in lattice coordinates:
ion C  -0.000000000000000   0.000000000000000   0.000000000000000 1
ion N   0.108900118656067   0.217800237312134   0.000000000000000 1
ion N   0.111440932313158   0.555720466156579   0.000000000000000 1
ion N   0.108900118656067   0.891099881343933   0.000000000000000 1
ion N   0.444600551142632   0.222300275571316   0.000000000000000 1
ion N   0.444279533843421   0.555720466156579   0.000000000000000 1
ion N   0.444279533843421   0.888559067686842   0.000000000000000 1
ion N   0.777699724428684   0.222300275571316   0.000000000000000 1
ion N   0.777699724428684   0.555399448857368   0.000000000000000 1
ion N   0.782199762687866   0.891099881343933   0.000000000000000 1
ion B  -0.000409163333578   0.332352225367090   0.000000000000000 1
ion B  -0.000409163333578   0.667238611299332   0.000000000000000 1
ion B   0.332761388700668   0.000409163333578   0.000000000000000 1
ion B   0.332761388700668   0.332352225367090   0.000000000000000 1
ion B   0.333333333333333   0.666666666666667   0.000000000000000 1
ion B   0.667647774632910   0.000409163333578   0.000000000000000 1
ion B   0.666666666666667   0.333333333333333   0.000000000000000 1
ion B   0.667647774632910   0.667238611299332   0.000000000000000 1

# Forces in Lattice coordinates:
force C   0.000000000000000   0.000000000000000   0.000000000000000 1
force N   0.000000000000000  -0.089097264053888  -0.000000000000000 1
force N   0.008625182224837   0.000000000000000   0.000000000000000 1
force N  -0.089097264053888   0.089097264053890   0.000000000000000 1
force N  -0.010866438615241  -0.000000000000000  -0.000000000000000 1
force N  -0.008625182224837   0.008625182224837   0.000000000000000 1
force N   0.000000000000000  -0.008625182224837   0.000000000000000 1
force N   0.010866438615240  -0.010866438615241   0.000000000000000 1
force N   0.000000000000000   0.010866438615241   0.000000000000000 1
force N   0.089097264053886  -0.000000000000000  -0.000000000000000 1
force B  -0.030199588973806   0.025287192774863   0.000000000000000 1
force B  -0.004912396198944  -0.025287192774863   0.000000000000000 1
force B   0.025287192774863   0.004912396198944  -0.000000000000000 1
force B   0.030199588973806  -0.004912396198944  -0.000000000000000 1
force B  -0.000000000000000  -0.000000000000000   0.000000000000000 1
force B  -0.025287192774862   0.030199588973806   0.000000000000000 1
force B   0.000000000000000  -0.000000000000000   0.000000000000000 1
force B   0.004912396198944  -0.030199588973806  -0.000000000000000 1

# Energy components:
   Eewald =     -185.5884594997991428
       EH =      -93.0460179843903319
     Eloc =      115.4845430472271914
      Enl =       -5.2719887315347300
   Epulay =       -0.0000011688465181
      Exc =      -33.7454694602768654
       KE =       83.9576943390551094
-------------------------------------
     Etot =     -118.2096994585652681
       TS =        0.0000008917975954
-------------------------------------
        F =     -118.2097003503628656

IonicMinimize: Iter:   0  F: -118.209700350362866  |grad|_K:  1.899e-03  t[s]:    518.60
IonicMinimize: None of the convergence criteria satisfied after 0 iterations.

#--- Lowdin population analysis ---
# oxidation-state C +0.266
# magnetic-moments C +0.239
# oxidation-state N -0.261 -0.371 -0.261 -0.375 -0.371 -0.371 -0.375 -0.375 -0.261
# magnetic-moments N +0.003 -0.001 +0.003 +0.012 -0.001 -0.001 +0.012 +0.012 +0.003
# oxidation-state B +0.429 +0.429 +0.429 +0.429 +0.429 +0.429 +0.424 +0.429
# magnetic-moments B +0.018 +0.018 +0.018 +0.018 +0.001 +0.018 +0.002 +0.018

End date and time: Sun Feb  6 19:49:43 2022  (Duration: 0-0:08:38.92)
Done!
