magnetization is 0.44
--------------------------------------------------------------------------
The library attempted to open the following supporting CUDA libraries,
but each of them failed.  CUDA-aware support is disabled.
libcuda.so.1: cannot open shared object file: No such file or directory
libcuda.dylib: cannot open shared object file: No such file or directory
/usr/lib64/libcuda.so.1: cannot open shared object file: No such file or directory
/usr/lib64/libcuda.dylib: cannot open shared object file: No such file or directory
If you are not interested in CUDA-aware support, then run with
--mca opal_warn_on_missing_libcuda 0 to suppress this message.  If you are interested
in CUDA-aware support, then try setting LD_LIBRARY_PATH to the location
of libcuda.so.1 to get passed this issue.
--------------------------------------------------------------------------
--------------------------------------------------------------------------
No OpenFabrics connection schemes reported that they were able to be
used on a specific port.  As such, the openib BTL (OpenFabrics
support) will be disabled for this port.

  Local host:           d-4-1-1
  Local device:         mlx5_1
  Local port:           1
  CPCs attempted:       rdmacm, udcm
--------------------------------------------------------------------------

*************** JDFTx 1.6.0 (git hash 42ebbcc2) ***************

Start date and time: Sun Feb  6 19:41:04 2022
Executable jdftx with command-line: -i BN33BC.in
Running on hosts (process indices):  d-4-1-1 (0-37)
Divided in process groups (process indices):  0 (0)  1 (1)  2 (2)  3 (3)  4 (4)  5 (5)  6 (6)  7 (7)  8 (8)  9 (9)  10 (10)  11 (11)  12 (12)  13 (13)  14 (14)  15 (15)  16 (16)  17 (17)  18 (18)  19 (19)  20 (20)  21 (21)  22 (22)  23 (23)  24 (24)  25 (25)  26 (26)  27 (27)  28 (28)  29 (29)  30 (30)  31 (31)  32 (32)  33 (33)  34 (34)  35 (35)  36 (36)  37 (37)
Resource initialization completed at t[s]:      0.00
Run totals: 38 processes, 48 threads, 0 GPUs


Input parsed successfully to the following command list (including defaults):

basis kpoint-dependent
coords-type Lattice
core-overlap-check vector
coulomb-interaction Slab 001
davidson-band-ratio 1.1
dump End None
dump-name $INPUT.$VAR
elec-cutoff 20
elec-eigen-algo Davidson
elec-ex-corr gga-PBE
elec-initial-magnetization 0.440000 yes
elec-smearing Fermi 1e-05
electronic-minimize  \
	dirUpdateScheme      FletcherReeves \
	linminMethod         DirUpdateRecommended \
	nIterations          100 \
	history              15 \
	knormThreshold       0 \
	energyDiffThreshold  1e-08 \
	nEnergyDiff          2 \
	alphaTstart          1 \
	alphaTmin            1e-10 \
	updateTestStepSize   yes \
	alphaTreduceFactor   0.1 \
	alphaTincreaseFactor 3 \
	nAlphaAdjustMax      3 \
	wolfeEnergy          0.0001 \
	wolfeGradient        0.9 \
	fdTest               no
electronic-scf  \
	nIterations	1000 \
	energyDiffThreshold	1e-08 \
	residualThreshold	1e-07 \
	mixFraction	0.5 \
	qMetric	0.8 \
	history	10 \
	nEigSteps	2 \
	eigDiffThreshold	1e-08 \
	mixedVariable	Density \
	qKerker	0.8 \
	qKappa	-1 \
	verbose	no \
	mixFractionMag	1.5
exchange-regularization WignerSeitzTruncated
fluid None
fluid-ex-corr (null) lda-PZ
fluid-gummel-loop 10 1.000000e-05
fluid-minimize  \
	dirUpdateScheme      PolakRibiere \
	linminMethod         DirUpdateRecommended \
	nIterations          100 \
	history              15 \
	knormThreshold       0 \
	energyDiffThreshold  0 \
	nEnergyDiff          2 \
	alphaTstart          1 \
	alphaTmin            1e-10 \
	updateTestStepSize   yes \
	alphaTreduceFactor   0.1 \
	alphaTincreaseFactor 3 \
	nAlphaAdjustMax      3 \
	wolfeEnergy          0.0001 \
	wolfeGradient        0.9 \
	fdTest               no
fluid-solvent H2O 55.338 ScalarEOS \
	epsBulk 78.4 \
	pMol 0.92466 \
	epsInf 1.77 \
	Pvap 1.06736e-10 \
	sigmaBulk 4.62e-05 \
	Rvdw 2.61727 \
	Res 1.42 \
	tauNuc 343133 \
	poleEl 15 7 1
forces-output-coords Positions
ion C   0.000000000000000  -0.000000000000000   0.000000000000000 1
ion N   0.108900118656067   0.217800237312134   0.000000000000000 1
ion N   0.111440932313158   0.555720466156579   0.000000000000000 1
ion N   0.108900118656067   0.891099881343933   0.000000000000000 1
ion N   0.444600551142632   0.222300275571316   0.000000000000000 1
ion N   0.444279533843421   0.555720466156579   0.000000000000000 1
ion N   0.444279533843421   0.888559067686842   0.000000000000000 1
ion N   0.777699724428684   0.222300275571316   0.000000000000000 1
ion N   0.777699724428684   0.555399448857368   0.000000000000000 1
ion N   0.782199762687866   0.891099881343933   0.000000000000000 1
ion B  -0.000409163333578   0.332352225367090  -0.000000000000000 1
ion B  -0.000409163333578   0.667238611299332  -0.000000000000000 1
ion B   0.332761388700668   0.000409163333578   0.000000000000000 1
ion B   0.332761388700668   0.332352225367090  -0.000000000000000 1
ion B   0.333333333333333   0.666666666666667   0.000000000000000 1
ion B   0.667647774632910   0.000409163333578   0.000000000000000 1
ion B   0.666666666666667   0.333333333333333   0.000000000000000 1
ion B   0.667647774632910   0.667238611299332   0.000000000000000 1
ion-species SG15/$ID_ONCV_PBE.upf
ion-width 0
ionic-minimize  \
	dirUpdateScheme      L-BFGS \
	linminMethod         DirUpdateRecommended \
	nIterations          0 \
	history              15 \
	knormThreshold       0.0001 \
	energyDiffThreshold  1e-06 \
	nEnergyDiff          2 \
	alphaTstart          1 \
	alphaTmin            1e-10 \
	updateTestStepSize   yes \
	alphaTreduceFactor   0.1 \
	alphaTincreaseFactor 3 \
	nAlphaAdjustMax      3 \
	wolfeEnergy          0.0001 \
	wolfeGradient        0.9 \
	fdTest               no
kpoint   0.000000000000   0.000000000000   0.000000000000  1.00000000000000
kpoint-folding 12 12 1 
latt-move-scale 1 1 1
latt-scale 1 1 1 
lattice  \
	  14.116397090998559   -7.058198545499275    0.000000000000000  \
	  -0.000000000000000   12.225158490713497    0.000000000000000  \
	   0.000000000000000    0.000000000000000   40.000000000000000 
lattice-minimize  \
	dirUpdateScheme      L-BFGS \
	linminMethod         DirUpdateRecommended \
	nIterations          0 \
	history              15 \
	knormThreshold       0 \
	energyDiffThreshold  1e-06 \
	nEnergyDiff          2 \
	alphaTstart          1 \
	alphaTmin            1e-10 \
	updateTestStepSize   yes \
	alphaTreduceFactor   0.1 \
	alphaTincreaseFactor 3 \
	nAlphaAdjustMax      3 \
	wolfeEnergy          0.0001 \
	wolfeGradient        0.9 \
	fdTest               no
lcao-params -1 1e-06 1e-05
pcm-variant GLSSA13
spintype z-spin
subspace-rotation-factor 1 yes
symmetries automatic
symmetry-threshold 0.0001



---------- Setting up symmetries ----------

Found 24 point-group symmetries of the bravais lattice
Found 12 space-group symmetries with basis
Applied RMS atom displacement 2.54347e-15 bohrs to make symmetries exact.

---------- Initializing the Grid ----------
R = 
[      14.1164      -7.0582            0  ]
[            0      12.2252            0  ]
[            0            0           40  ]
unit cell volume = 6903.01
G =
[   0.445098   0.256978         -0  ]
[          0   0.513955         -0  ]
[         -0         -0    0.15708  ]
Minimum fftbox size, Smin = [  60  60  164  ]
Chosen fftbox size, S = [  60  60  168  ]

---------- Exchange Correlation functional ----------
Initalized PBE GGA exchange.
Initalized PBE GGA correlation.

---------- Setting up pseudopotentials ----------
Width of ionic core gaussian charges (only for fluid interactions / plotting) set to 0

Reading pseudopotential file '/home/gridsan/aligho/DFT/build-Nov24/pseudopotentials/SG15/C_ONCV_PBE.upf':
  'C' pseudopotential, 'PBE' functional
  Generated using ONCVPSP code by D. R. Hamann
  Author: Martin Schlipf and Francois Gygi  Date: 150915.
  4 valence electrons, 2 orbitals, 4 projectors, 1248 radial grid points, with lMax = 1
  Transforming local potential to a uniform radial grid of dG=0.02 with 1495 points.
  Transforming nonlocal projectors to a uniform radial grid of dG=0.02 with 432 points.
    2S    l: 0   occupation:  2.0   eigenvalue: -0.505335
    2P    l: 1   occupation:  2.0   eigenvalue: -0.194238
  Transforming atomic orbitals to a uniform radial grid of dG=0.02 with 432 points.
  Core radius for overlap checks: 1.23 bohrs.
  Reading pulay file /home/gridsan/aligho/DFT/build-Nov24/pseudopotentials/SG15/C_ONCV_PBE.pulay ... using dE_dnG = -9.239532e-03 computed for Ecut = 20.

Reading pseudopotential file '/home/gridsan/aligho/DFT/build-Nov24/pseudopotentials/SG15/N_ONCV_PBE.upf':
  'N' pseudopotential, 'PBE' functional
  Generated using ONCVPSP code by D. R. Hamann
  Author: Martin Schlipf and Francois Gygi  Date: 150915.
  5 valence electrons, 2 orbitals, 4 projectors, 1058 radial grid points, with lMax = 1
  Transforming local potential to a uniform radial grid of dG=0.02 with 1495 points.
  Transforming nonlocal projectors to a uniform radial grid of dG=0.02 with 432 points.
    2S    l: 0   occupation:  2.0   eigenvalue: -0.682907
    2P    l: 1   occupation:  3.0   eigenvalue: -0.260548
  Transforming atomic orbitals to a uniform radial grid of dG=0.02 with 432 points.
  Core radius for overlap checks: 1.35 bohrs.
  Reading pulay file /home/gridsan/aligho/DFT/build-Nov24/pseudopotentials/SG15/N_ONCV_PBE.pulay ... using dE_dnG = -2.956256e-02 computed for Ecut = 20.

Reading pseudopotential file '/home/gridsan/aligho/DFT/build-Nov24/pseudopotentials/SG15/B_ONCV_PBE.upf':
  'B' pseudopotential, 'PBE' functional
  Generated using ONCVPSP code by D. R. Hamann
  Author: Martin Schlipf and Francois Gygi  Date: 150915.
  3 valence electrons, 2 orbitals, 4 projectors, 1534 radial grid points, with lMax = 1
  Transforming local potential to a uniform radial grid of dG=0.02 with 1495 points.
  Transforming nonlocal projectors to a uniform radial grid of dG=0.02 with 432 points.
    2S    l: 0   occupation:  2.0   eigenvalue: -0.347027
    2P    l: 1   occupation:  1.0   eigenvalue: -0.132548
  Transforming atomic orbitals to a uniform radial grid of dG=0.02 with 432 points.
  Core radius for overlap checks: 1.60 bohrs.
  Reading pulay file /home/gridsan/aligho/DFT/build-Nov24/pseudopotentials/SG15/B_ONCV_PBE.pulay ... using dE_dnG = -3.748568e-04 computed for Ecut = 20.

Initialized 3 species with 18 total atoms.

Folded 1 k-points by 12x12x1 to 144 k-points.

---------- Setting up k-points, bands, fillings ----------
Adding inversion symmetry to k-mesh for non-inversion-symmetric unit cell.
Reduced to 19 k-points under symmetry. 
Computing the number of bands and number of electrons
Calculating initial fillings.
nElectrons:  73.000000   nBands: 72   nStates: 38

----- Setting up reduced wavefunction bases (one per k-point) -----
average nbasis = 29490.146 , ideal nbasis = 29490.175

---------- Setting up coulomb interaction ----------
Initialized slab truncation along lattice direction 001

---------- Setting up 2D ewald sum ----------
Optimum gaussian width for ewald sums = 7.836854 bohr.
Real space sums over 289 unit cells with max indices [  8  8  0  ]
Reciprocal space sums over 81 terms with max indices [  4  4  0  ]

---------- Allocating electronic variables ----------
Initializing wave functions:  linear combination of atomic orbitals
C pseudo-atom occupations:   s ( 2 )  p ( 2 )
N pseudo-atom occupations:   s ( 2 )  p ( 3 )
B pseudo-atom occupations:   s ( 2 )  p ( 1 )
[d-4-1-1:90248] 37 more processes have sent help message help-mpi-common-cuda.txt / dlopen failed
[d-4-1-1:90248] Set MCA parameter "orte_base_help_aggregate" to 0 to see all help / error messages
[d-4-1-1:90248] 37 more processes have sent help message help-mpi-btl-openib-cpc-base.txt / no cpcs for port
	FillingsUpdate:  mu: -0.192573988  nElectrons: 73.000000  magneticMoment: [ Abs: 0.45690  Tot: +0.44000 ]
LCAOMinimize: Iter:   0  F: -116.5143893934725412  |grad|_K:  4.488e-03  alpha:  1.000e+00
	FillingsUpdate:  mu: -0.222021311  nElectrons: 73.000000  magneticMoment: [ Abs: 0.46100  Tot: +0.44000 ]
LCAOMinimize: Iter:   1  F: -117.1858197103802723  |grad|_K:  1.043e-03  alpha:  3.998e-01  linmin:  1.716e-01  cgtest: -5.918e-01  t[s]:     24.88
	FillingsUpdate:  mu: -0.184431091  nElectrons: 73.000000  magneticMoment: [ Abs: 0.46241  Tot: +0.44000 ]
LCAOMinimize: Iter:   2  F: -117.2018169011743822  |grad|_K:  6.335e-04  alpha:  2.520e-01  linmin:  1.707e-03  cgtest:  7.527e-01  t[s]:     32.45
LCAOMinimize: Encountered beta<0, resetting CG.
	FillingsUpdate:  mu: -0.169464678  nElectrons: 73.000000  magneticMoment: [ Abs: 0.46336  Tot: +0.44000 ]
LCAOMinimize: Iter:   3  F: -117.2157203653523680  |grad|_K:  1.176e-04  alpha:  3.433e-01  linmin:  8.783e-03  cgtest: -7.303e-02  t[s]:     40.08
	FillingsUpdate:  mu: -0.174159602  nElectrons: 73.000000  magneticMoment: [ Abs: 0.46379  Tot: +0.44000 ]
LCAOMinimize: Iter:   4  F: -117.2162017215109984  |grad|_K:  1.336e-05  alpha:  3.484e-01  linmin:  1.257e-02  cgtest:  1.585e-01  t[s]:     47.67
LCAOMinimize: Encountered beta<0, resetting CG.
	FillingsUpdate:  mu: -0.174508525  nElectrons: 73.000000  magneticMoment: [ Abs: 0.46432  Tot: +0.44000 ]
LCAOMinimize: Iter:   5  F: -117.2162101485418475  |grad|_K:  7.400e-06  alpha:  4.661e-01  linmin:  1.992e-04  cgtest: -1.520e-03  t[s]:     55.23
	FillingsUpdate:  mu: -0.174207497  nElectrons: 73.000000  magneticMoment: [ Abs: 0.46561  Tot: +0.44000 ]
LCAOMinimize: Iter:   6  F: -117.2162144560554538  |grad|_K:  3.925e-06  alpha:  7.758e-01  linmin: -1.565e-03  cgtest:  1.246e-02  t[s]:     62.87
	FillingsUpdate:  mu: -0.174339821  nElectrons: 73.000000  magneticMoment: [ Abs: 0.46607  Tot: +0.44000 ]
LCAOMinimize: Iter:   7  F: -117.2162152259273000  |grad|_K:  9.806e-07  alpha:  4.911e-01  linmin: -5.794e-05  cgtest: -2.057e-02  t[s]:     70.47
	FillingsUpdate:  mu: -0.174328080  nElectrons: 73.000000  magneticMoment: [ Abs: 0.46608  Tot: +0.44000 ]
LCAOMinimize: Iter:   8  F: -117.2162152995582858  |grad|_K:  4.907e-07  alpha:  7.555e-01  linmin: -1.193e-03  cgtest:  4.731e-03  t[s]:     78.07
LCAOMinimize: Converged (|Delta F|<1.000000e-06 for 2 iters).


---- Citations for features of the code used in this run ----

   Software package:
      R. Sundararaman, K. Letchworth-Weaver, K.A. Schwarz, D. Gunceler, Y. Ozhabes and T.A. Arias, 'JDFTx: software for joint density-functional theory', SoftwareX 6, 278 (2017)

   gga-PBE exchange-correlation functional:
      J.P. Perdew, K. Burke and M. Ernzerhof, Phys. Rev. Lett. 77, 3865 (1996)

   Pseudopotentials:
      M Schlipf and F Gygi, Comput. Phys. Commun. 196, 36 (2015)

   Truncated Coulomb potentials:
      R. Sundararaman and T.A. Arias, Phys. Rev. B 87, 165122 (2013)

This list may not be complete. Please suggest additional citations or
report any other bugs at https://github.com/shankar1729/jdftx/issues

Initialization completed successfully at t[s]:     78.83


-------- Electronic minimization -----------
Will mix electronic density at each iteration.
	FillingsUpdate:  mu: -0.174328080  nElectrons: 73.000000  magneticMoment: [ Abs: 0.46608  Tot: +0.44000 ]
	FillingsUpdate:  mu: -0.191647187  nElectrons: 73.000000  magneticMoment: [ Abs: 0.46608  Tot: +0.44000 ]
SCF: Cycle:  0   F: -118.142209204894513   dF: -9.260e-01   |Residual|: 3.366e-01   |deigs|: 1.137e-01  t[s]:     99.31
	FillingsUpdate:  mu: -0.170391021  nElectrons: 73.000000  magneticMoment: [ Abs: 0.48707  Tot: +0.44000 ]
SCF: Cycle:  1   F: -118.181502011811830   dF: -3.929e-02   |Residual|: 1.877e-01   |deigs|: 2.533e-02  t[s]:    114.51
	FillingsUpdate:  mu: -0.140927533  nElectrons: 73.000000  magneticMoment: [ Abs: 0.49802  Tot: +0.44000 ]
SCF: Cycle:  2   F: -118.207202836297057   dF: -2.570e-02   |Residual|: 4.090e-02   |deigs|: 3.000e-02  t[s]:    129.82
	FillingsUpdate:  mu: -0.137605707  nElectrons: 73.000000  magneticMoment: [ Abs: 0.50280  Tot: +0.44000 ]
SCF: Cycle:  3   F: -118.207988240941532   dF: -7.854e-04   |Residual|: 2.272e-02   |deigs|: 7.950e-03  t[s]:    145.20
	FillingsUpdate:  mu: -0.125955024  nElectrons: 73.000000  magneticMoment: [ Abs: 0.49528  Tot: +0.44000 ]
SCF: Cycle:  4   F: -118.209427709617671   dF: -1.439e-03   |Residual|: 1.204e-02   |deigs|: 1.038e-02  t[s]:    160.62
	FillingsUpdate:  mu: -0.120943581  nElectrons: 73.000000  magneticMoment: [ Abs: 0.49712  Tot: +0.44000 ]
SCF: Cycle:  5   F: -118.209737853723624   dF: -3.101e-04   |Residual|: 8.921e-03   |deigs|: 4.300e-03  t[s]:    176.14
	FillingsUpdate:  mu: -0.114763272  nElectrons: 73.000000  magneticMoment: [ Abs: 0.49452  Tot: +0.44000 ]
SCF: Cycle:  6   F: -118.209840558612186   dF: -1.027e-04   |Residual|: 5.915e-03   |deigs|: 5.703e-03  t[s]:    191.77
	FillingsUpdate:  mu: -0.110365463  nElectrons: 73.000000  magneticMoment: [ Abs: 0.49333  Tot: +0.44000 ]
SCF: Cycle:  7   F: -118.209820716312095   dF: +1.984e-05   |Residual|: 4.811e-03   |deigs|: 5.486e-03  t[s]:    207.35
	FillingsUpdate:  mu: -0.106023750  nElectrons: 73.000000  magneticMoment: [ Abs: 0.49364  Tot: +0.44000 ]
SCF: Cycle:  8   F: -118.209886195596724   dF: -6.548e-05   |Residual|: 3.861e-03   |deigs|: 4.379e-03  t[s]:    223.04
	FillingsUpdate:  mu: -0.103205977  nElectrons: 73.000000  magneticMoment: [ Abs: 0.49211  Tot: +0.44000 ]
SCF: Cycle:  9   F: -118.209929063269286   dF: -4.287e-05   |Residual|: 3.020e-03   |deigs|: 2.970e-03  t[s]:    238.82
	FillingsUpdate:  mu: -0.100756723  nElectrons: 73.000000  magneticMoment: [ Abs: 0.49344  Tot: +0.44000 ]
SCF: Cycle: 10   F: -118.209956093817027   dF: -2.703e-05   |Residual|: 2.606e-03   |deigs|: 2.577e-03  t[s]:    254.63
	FillingsUpdate:  mu: -0.097814866  nElectrons: 73.000000  magneticMoment: [ Abs: 0.49350  Tot: +0.44000 ]
SCF: Cycle: 11   F: -118.209971669565277   dF: -1.558e-05   |Residual|: 2.139e-03   |deigs|: 2.780e-03  t[s]:    270.61
	FillingsUpdate:  mu: -0.095408681  nElectrons: 73.000000  magneticMoment: [ Abs: 0.49222  Tot: +0.44000 ]
SCF: Cycle: 12   F: -118.209977931382781   dF: -6.262e-06   |Residual|: 1.931e-03   |deigs|: 2.204e-03  t[s]:    286.49
	FillingsUpdate:  mu: -0.091599359  nElectrons: 73.000000  magneticMoment: [ Abs: 0.49332  Tot: +0.44000 ]
SCF: Cycle: 13   F: -118.209980562686937   dF: -2.631e-06   |Residual|: 1.663e-03   |deigs|: 3.560e-03  t[s]:    302.45
	FillingsUpdate:  mu: -0.088271142  nElectrons: 73.000000  magneticMoment: [ Abs: 0.49215  Tot: +0.44000 ]
SCF: Cycle: 14   F: -118.209979791370699   dF: +7.713e-07   |Residual|: 1.647e-03   |deigs|: 2.943e-03  t[s]:    318.37
	FillingsUpdate:  mu: -0.084042019  nElectrons: 73.000000  magneticMoment: [ Abs: 0.49334  Tot: +0.44000 ]
SCF: Cycle: 15   F: -118.209980075352419   dF: -2.840e-07   |Residual|: 1.439e-03   |deigs|: 3.916e-03  t[s]:    334.25
	FillingsUpdate:  mu: -0.080536014  nElectrons: 73.000000  magneticMoment: [ Abs: 0.49277  Tot: +0.44000 ]
SCF: Cycle: 16   F: -118.209983997763501   dF: -3.922e-06   |Residual|: 1.171e-03   |deigs|: 3.237e-03  t[s]:    350.04
	FillingsUpdate:  mu: -0.078549815  nElectrons: 73.000000  magneticMoment: [ Abs: 0.49145  Tot: +0.44000 ]
SCF: Cycle: 17   F: -118.209989195188328   dF: -5.197e-06   |Residual|: 8.641e-04   |deigs|: 1.736e-03  t[s]:    366.00
	FillingsUpdate:  mu: -0.077567563  nElectrons: 73.000000  magneticMoment: [ Abs: 0.49110  Tot: +0.44000 ]
SCF: Cycle: 18   F: -118.209991570654253   dF: -2.375e-06   |Residual|: 5.569e-04   |deigs|: 1.138e-03  t[s]:    381.91
	FillingsUpdate:  mu: -0.077112483  nElectrons: 73.000000  magneticMoment: [ Abs: 0.49088  Tot: +0.44000 ]
SCF: Cycle: 19   F: -118.209992237400854   dF: -6.667e-07   |Residual|: 3.325e-04   |deigs|: 4.971e-04  t[s]:    397.84
	FillingsUpdate:  mu: -0.076856602  nElectrons: 73.000000  magneticMoment: [ Abs: 0.49088  Tot: +0.44000 ]
SCF: Cycle: 20   F: -118.209992552430691   dF: -3.150e-07   |Residual|: 2.227e-04   |deigs|: 4.488e-04  t[s]:    413.78
	FillingsUpdate:  mu: -0.076649677  nElectrons: 73.000000  magneticMoment: [ Abs: 0.49065  Tot: +0.44000 ]
SCF: Cycle: 21   F: -118.209992739421082   dF: -1.870e-07   |Residual|: 1.451e-04   |deigs|: 4.747e-04  t[s]:    429.60
	FillingsUpdate:  mu: -0.076452182  nElectrons: 73.000000  magneticMoment: [ Abs: 0.49062  Tot: +0.44000 ]
SCF: Cycle: 22   F: -118.209992845793352   dF: -1.064e-07   |Residual|: 7.935e-05   |deigs|: 9.138e-04  t[s]:    445.56
	FillingsUpdate:  mu: -0.076386938  nElectrons: 73.000000  magneticMoment: [ Abs: 0.49051  Tot: +0.44000 ]
SCF: Cycle: 23   F: -118.209992870754220   dF: -2.496e-08   |Residual|: 5.518e-05   |deigs|: 1.535e-04  t[s]:    461.35
	FillingsUpdate:  mu: -0.076333881  nElectrons: 73.000000  magneticMoment: [ Abs: 0.49047  Tot: +0.44000 ]
SCF: Cycle: 24   F: -118.209992885931470   dF: -1.518e-08   |Residual|: 3.224e-05   |deigs|: 2.873e-04  t[s]:    477.30
	FillingsUpdate:  mu: -0.076314247  nElectrons: 73.000000  magneticMoment: [ Abs: 0.49044  Tot: +0.44000 ]
SCF: Cycle: 25   F: -118.209992890613805   dF: -4.682e-09   |Residual|: 2.047e-05   |deigs|: 2.685e-04  t[s]:    493.11
	FillingsUpdate:  mu: -0.076305459  nElectrons: 73.000000  magneticMoment: [ Abs: 0.49043  Tot: +0.44000 ]
SCF: Cycle: 26   F: -118.209992892680930   dF: -2.067e-09   |Residual|: 1.215e-05   |deigs|: 1.656e-04  t[s]:    509.00
SCF: Converged (|Delta E|<1.000000e-08 for 2 iters).


# Ionic positions in lattice coordinates:
ion C  -0.000000000000000   0.000000000000000   0.000000000000000 1
ion N   0.108900118656067   0.217800237312134   0.000000000000000 1
ion N   0.111440932313158   0.555720466156579   0.000000000000000 1
ion N   0.108900118656067   0.891099881343933   0.000000000000000 1
ion N   0.444600551142632   0.222300275571316   0.000000000000000 1
ion N   0.444279533843421   0.555720466156579   0.000000000000000 1
ion N   0.444279533843421   0.888559067686842   0.000000000000000 1
ion N   0.777699724428684   0.222300275571316   0.000000000000000 1
ion N   0.777699724428684   0.555399448857368   0.000000000000000 1
ion N   0.782199762687866   0.891099881343933   0.000000000000000 1
ion B  -0.000409163333578   0.332352225367090   0.000000000000000 1
ion B  -0.000409163333578   0.667238611299332   0.000000000000000 1
ion B   0.332761388700668   0.000409163333578   0.000000000000000 1
ion B   0.332761388700668   0.332352225367090   0.000000000000000 1
ion B   0.333333333333333   0.666666666666667   0.000000000000000 1
ion B   0.667647774632910   0.000409163333578   0.000000000000000 1
ion B   0.666666666666667   0.333333333333333   0.000000000000000 1
ion B   0.667647774632910   0.667238611299332   0.000000000000000 1

# Forces in Lattice coordinates:
force C   0.000000000000000  -0.000000000000000   0.000000000000000 1
force N   0.000000000000000  -0.084849161446629   0.000000000000000 1
force N   0.007390416995732  -0.000000000000000   0.000000000000000 1
force N  -0.084849161446629   0.084849161446629   0.000000000000000 1
force N  -0.009865497850656   0.000000000000000   0.000000000000000 1
force N  -0.007390416995732   0.007390416995732  -0.000000000000000 1
force N   0.000000000000000  -0.007390416995732   0.000000000000000 1
force N   0.009865497850656  -0.009865497850656  -0.000000000000000 1
force N  -0.000000000000000   0.009865497850656   0.000000000000000 1
force N   0.084849161446627   0.000000000000000   0.000000000000000 1
force B  -0.028391593296334   0.024535418555265  -0.000000000000000 1
force B  -0.003856174741069  -0.024535418555265   0.000000000000000 1
force B   0.024535418555265   0.003856174741068  -0.000000000000000 1
force B   0.028391593296334  -0.003856174741069  -0.000000000000000 1
force B   0.000000000000000  -0.000000000000000   0.000000000000000 1
force B  -0.024535418555266   0.028391593296334   0.000000000000000 1
force B   0.000000000000000   0.000000000000000   0.000000000000000 1
force B   0.003856174741069  -0.028391593296334   0.000000000000000 1

# Energy components:
   Eewald =     -185.5884594997991428
       EH =      -93.0444793097363601
     Eloc =      115.4825847310617490
      Enl =       -5.2724433779702009
   Epulay =       -0.0000011688465181
      Exc =      -33.7462019159845710
       KE =       83.9590084946470085
-------------------------------------
     Etot =     -118.2099920466280594
       TS =        0.0000008460528640
-------------------------------------
        F =     -118.2099928926809298

IonicMinimize: Iter:   0  F: -118.209992892680930  |grad|_K:  1.806e-03  t[s]:    510.38
IonicMinimize: None of the convergence criteria satisfied after 0 iterations.

#--- Lowdin population analysis ---
# oxidation-state C +0.266
# magnetic-moments C +0.263
# oxidation-state N -0.262 -0.371 -0.262 -0.376 -0.371 -0.371 -0.376 -0.376 -0.262
# magnetic-moments N +0.003 -0.001 +0.003 +0.012 -0.001 -0.001 +0.012 +0.012 +0.003
# oxidation-state B +0.429 +0.429 +0.429 +0.429 +0.430 +0.429 +0.425 +0.429
# magnetic-moments B +0.019 +0.019 +0.019 +0.019 +0.003 +0.019 +0.004 +0.019

End date and time: Sun Feb  6 19:49:35 2022  (Duration: 0-0:08:30.72)
Done!
