magnetization is 0.6
--------------------------------------------------------------------------
The library attempted to open the following supporting CUDA libraries,
but each of them failed.  CUDA-aware support is disabled.
libcuda.so.1: cannot open shared object file: No such file or directory
libcuda.dylib: cannot open shared object file: No such file or directory
/usr/lib64/libcuda.so.1: cannot open shared object file: No such file or directory
/usr/lib64/libcuda.dylib: cannot open shared object file: No such file or directory
If you are not interested in CUDA-aware support, then run with
--mca opal_warn_on_missing_libcuda 0 to suppress this message.  If you are interested
in CUDA-aware support, then try setting LD_LIBRARY_PATH to the location
of libcuda.so.1 to get passed this issue.
--------------------------------------------------------------------------
--------------------------------------------------------------------------
No OpenFabrics connection schemes reported that they were able to be
used on a specific port.  As such, the openib BTL (OpenFabrics
support) will be disabled for this port.

  Local host:           d-3-14-4
  Local device:         mlx5_1
  Local port:           1
  CPCs attempted:       rdmacm, udcm
--------------------------------------------------------------------------

*************** JDFTx 1.6.0 (git hash 42ebbcc2) ***************

Start date and time: Sun Feb  6 19:41:04 2022
Executable jdftx with command-line: -i BN33BC.in
Running on hosts (process indices):  d-3-14-4 (0-37)
Divided in process groups (process indices):  0 (0)  1 (1)  2 (2)  3 (3)  4 (4)  5 (5)  6 (6)  7 (7)  8 (8)  9 (9)  10 (10)  11 (11)  12 (12)  13 (13)  14 (14)  15 (15)  16 (16)  17 (17)  18 (18)  19 (19)  20 (20)  21 (21)  22 (22)  23 (23)  24 (24)  25 (25)  26 (26)  27 (27)  28 (28)  29 (29)  30 (30)  31 (31)  32 (32)  33 (33)  34 (34)  35 (35)  36 (36)  37 (37)
Resource initialization completed at t[s]:      0.00
Run totals: 38 processes, 48 threads, 0 GPUs


Input parsed successfully to the following command list (including defaults):

basis kpoint-dependent
coords-type Lattice
core-overlap-check vector
coulomb-interaction Slab 001
davidson-band-ratio 1.1
dump End None
dump-name $INPUT.$VAR
elec-cutoff 20
elec-eigen-algo Davidson
elec-ex-corr gga-PBE
elec-initial-magnetization 0.600000 yes
elec-smearing Fermi 1e-05
electronic-minimize  \
	dirUpdateScheme      FletcherReeves \
	linminMethod         DirUpdateRecommended \
	nIterations          100 \
	history              15 \
	knormThreshold       0 \
	energyDiffThreshold  1e-08 \
	nEnergyDiff          2 \
	alphaTstart          1 \
	alphaTmin            1e-10 \
	updateTestStepSize   yes \
	alphaTreduceFactor   0.1 \
	alphaTincreaseFactor 3 \
	nAlphaAdjustMax      3 \
	wolfeEnergy          0.0001 \
	wolfeGradient        0.9 \
	fdTest               no
electronic-scf  \
	nIterations	1000 \
	energyDiffThreshold	1e-08 \
	residualThreshold	1e-07 \
	mixFraction	0.5 \
	qMetric	0.8 \
	history	10 \
	nEigSteps	2 \
	eigDiffThreshold	1e-08 \
	mixedVariable	Density \
	qKerker	0.8 \
	qKappa	-1 \
	verbose	no \
	mixFractionMag	1.5
exchange-regularization WignerSeitzTruncated
fluid None
fluid-ex-corr (null) lda-PZ
fluid-gummel-loop 10 1.000000e-05
fluid-minimize  \
	dirUpdateScheme      PolakRibiere \
	linminMethod         DirUpdateRecommended \
	nIterations          100 \
	history              15 \
	knormThreshold       0 \
	energyDiffThreshold  0 \
	nEnergyDiff          2 \
	alphaTstart          1 \
	alphaTmin            1e-10 \
	updateTestStepSize   yes \
	alphaTreduceFactor   0.1 \
	alphaTincreaseFactor 3 \
	nAlphaAdjustMax      3 \
	wolfeEnergy          0.0001 \
	wolfeGradient        0.9 \
	fdTest               no
fluid-solvent H2O 55.338 ScalarEOS \
	epsBulk 78.4 \
	pMol 0.92466 \
	epsInf 1.77 \
	Pvap 1.06736e-10 \
	sigmaBulk 4.62e-05 \
	Rvdw 2.61727 \
	Res 1.42 \
	tauNuc 343133 \
	poleEl 15 7 1
forces-output-coords Positions
ion C   0.000000000000000  -0.000000000000000   0.000000000000000 1
ion N   0.108900118656067   0.217800237312134   0.000000000000000 1
ion N   0.111440932313158   0.555720466156579   0.000000000000000 1
ion N   0.108900118656067   0.891099881343933   0.000000000000000 1
ion N   0.444600551142632   0.222300275571316   0.000000000000000 1
ion N   0.444279533843421   0.555720466156579   0.000000000000000 1
ion N   0.444279533843421   0.888559067686842   0.000000000000000 1
ion N   0.777699724428684   0.222300275571316   0.000000000000000 1
ion N   0.777699724428684   0.555399448857368   0.000000000000000 1
ion N   0.782199762687866   0.891099881343933   0.000000000000000 1
ion B  -0.000409163333578   0.332352225367090  -0.000000000000000 1
ion B  -0.000409163333578   0.667238611299332  -0.000000000000000 1
ion B   0.332761388700668   0.000409163333578   0.000000000000000 1
ion B   0.332761388700668   0.332352225367090  -0.000000000000000 1
ion B   0.333333333333333   0.666666666666667   0.000000000000000 1
ion B   0.667647774632910   0.000409163333578   0.000000000000000 1
ion B   0.666666666666667   0.333333333333333   0.000000000000000 1
ion B   0.667647774632910   0.667238611299332   0.000000000000000 1
ion-species SG15/$ID_ONCV_PBE.upf
ion-width 0
ionic-minimize  \
	dirUpdateScheme      L-BFGS \
	linminMethod         DirUpdateRecommended \
	nIterations          0 \
	history              15 \
	knormThreshold       0.0001 \
	energyDiffThreshold  1e-06 \
	nEnergyDiff          2 \
	alphaTstart          1 \
	alphaTmin            1e-10 \
	updateTestStepSize   yes \
	alphaTreduceFactor   0.1 \
	alphaTincreaseFactor 3 \
	nAlphaAdjustMax      3 \
	wolfeEnergy          0.0001 \
	wolfeGradient        0.9 \
	fdTest               no
kpoint   0.000000000000   0.000000000000   0.000000000000  1.00000000000000
kpoint-folding 12 12 1 
latt-move-scale 1 1 1
latt-scale 1 1 1 
lattice  \
	  14.116397090998559   -7.058198545499275    0.000000000000000  \
	  -0.000000000000000   12.225158490713497    0.000000000000000  \
	   0.000000000000000    0.000000000000000   40.000000000000000 
lattice-minimize  \
	dirUpdateScheme      L-BFGS \
	linminMethod         DirUpdateRecommended \
	nIterations          0 \
	history              15 \
	knormThreshold       0 \
	energyDiffThreshold  1e-06 \
	nEnergyDiff          2 \
	alphaTstart          1 \
	alphaTmin            1e-10 \
	updateTestStepSize   yes \
	alphaTreduceFactor   0.1 \
	alphaTincreaseFactor 3 \
	nAlphaAdjustMax      3 \
	wolfeEnergy          0.0001 \
	wolfeGradient        0.9 \
	fdTest               no
lcao-params -1 1e-06 1e-05
pcm-variant GLSSA13
spintype z-spin
subspace-rotation-factor 1 yes
symmetries automatic
symmetry-threshold 0.0001



---------- Setting up symmetries ----------

Found 24 point-group symmetries of the bravais lattice
Found 12 space-group symmetries with basis
Applied RMS atom displacement 2.54347e-15 bohrs to make symmetries exact.

---------- Initializing the Grid ----------
R = 
[      14.1164      -7.0582            0  ]
[            0      12.2252            0  ]
[            0            0           40  ]
unit cell volume = 6903.01
G =
[   0.445098   0.256978         -0  ]
[          0   0.513955         -0  ]
[         -0         -0    0.15708  ]
Minimum fftbox size, Smin = [  60  60  164  ]
Chosen fftbox size, S = [  60  60  168  ]

---------- Exchange Correlation functional ----------
Initalized PBE GGA exchange.
Initalized PBE GGA correlation.

---------- Setting up pseudopotentials ----------
Width of ionic core gaussian charges (only for fluid interactions / plotting) set to 0

Reading pseudopotential file '/home/gridsan/aligho/DFT/build-Nov24/pseudopotentials/SG15/C_ONCV_PBE.upf':
  'C' pseudopotential, 'PBE' functional
  Generated using ONCVPSP code by D. R. Hamann
  Author: Martin Schlipf and Francois Gygi  Date: 150915.
  4 valence electrons, 2 orbitals, 4 projectors, 1248 radial grid points, with lMax = 1
  Transforming local potential to a uniform radial grid of dG=0.02 with 1495 points.
  Transforming nonlocal projectors to a uniform radial grid of dG=0.02 with 432 points.
    2S    l: 0   occupation:  2.0   eigenvalue: -0.505335
    2P    l: 1   occupation:  2.0   eigenvalue: -0.194238
  Transforming atomic orbitals to a uniform radial grid of dG=0.02 with 432 points.
  Core radius for overlap checks: 1.23 bohrs.
  Reading pulay file /home/gridsan/aligho/DFT/build-Nov24/pseudopotentials/SG15/C_ONCV_PBE.pulay ... using dE_dnG = -9.239532e-03 computed for Ecut = 20.

Reading pseudopotential file '/home/gridsan/aligho/DFT/build-Nov24/pseudopotentials/SG15/N_ONCV_PBE.upf':
  'N' pseudopotential, 'PBE' functional
  Generated using ONCVPSP code by D. R. Hamann
  Author: Martin Schlipf and Francois Gygi  Date: 150915.
  5 valence electrons, 2 orbitals, 4 projectors, 1058 radial grid points, with lMax = 1
  Transforming local potential to a uniform radial grid of dG=0.02 with 1495 points.
  Transforming nonlocal projectors to a uniform radial grid of dG=0.02 with 432 points.
    2S    l: 0   occupation:  2.0   eigenvalue: -0.682907
    2P    l: 1   occupation:  3.0   eigenvalue: -0.260548
  Transforming atomic orbitals to a uniform radial grid of dG=0.02 with 432 points.
  Core radius for overlap checks: 1.35 bohrs.
  Reading pulay file /home/gridsan/aligho/DFT/build-Nov24/pseudopotentials/SG15/N_ONCV_PBE.pulay ... using dE_dnG = -2.956256e-02 computed for Ecut = 20.

Reading pseudopotential file '/home/gridsan/aligho/DFT/build-Nov24/pseudopotentials/SG15/B_ONCV_PBE.upf':
  'B' pseudopotential, 'PBE' functional
  Generated using ONCVPSP code by D. R. Hamann
  Author: Martin Schlipf and Francois Gygi  Date: 150915.
  3 valence electrons, 2 orbitals, 4 projectors, 1534 radial grid points, with lMax = 1
  Transforming local potential to a uniform radial grid of dG=0.02 with 1495 points.
  Transforming nonlocal projectors to a uniform radial grid of dG=0.02 with 432 points.
    2S    l: 0   occupation:  2.0   eigenvalue: -0.347027
    2P    l: 1   occupation:  1.0   eigenvalue: -0.132548
  Transforming atomic orbitals to a uniform radial grid of dG=0.02 with 432 points.
  Core radius for overlap checks: 1.60 bohrs.
  Reading pulay file /home/gridsan/aligho/DFT/build-Nov24/pseudopotentials/SG15/B_ONCV_PBE.pulay ... using dE_dnG = -3.748568e-04 computed for Ecut = 20.

Initialized 3 species with 18 total atoms.

Folded 1 k-points by 12x12x1 to 144 k-points.

---------- Setting up k-points, bands, fillings ----------
Adding inversion symmetry to k-mesh for non-inversion-symmetric unit cell.
Reduced to 19 k-points under symmetry. 
Computing the number of bands and number of electrons
Calculating initial fillings.
nElectrons:  73.000000   nBands: 72   nStates: 38

----- Setting up reduced wavefunction bases (one per k-point) -----
average nbasis = 29490.146 , ideal nbasis = 29490.175

---------- Setting up coulomb interaction ----------
Initialized slab truncation along lattice direction 001

---------- Setting up 2D ewald sum ----------
Optimum gaussian width for ewald sums = 7.836854 bohr.
Real space sums over 289 unit cells with max indices [  8  8  0  ]
Reciprocal space sums over 81 terms with max indices [  4  4  0  ]

---------- Allocating electronic variables ----------
Initializing wave functions:  linear combination of atomic orbitals
C pseudo-atom occupations:   s ( 2 )  p ( 2 )
N pseudo-atom occupations:   s ( 2 )  p ( 3 )
B pseudo-atom occupations:   s ( 2 )  p ( 1 )
[d-3-14-4:61325] 37 more processes have sent help message help-mpi-common-cuda.txt / dlopen failed
[d-3-14-4:61325] Set MCA parameter "orte_base_help_aggregate" to 0 to see all help / error messages
[d-3-14-4:61325] 37 more processes have sent help message help-mpi-btl-openib-cpc-base.txt / no cpcs for port
	FillingsUpdate:  mu: -0.192162049  nElectrons: 73.000000  magneticMoment: [ Abs: 0.62316  Tot: +0.60000 ]
LCAOMinimize: Iter:   0  F: -116.5199071088297273  |grad|_K:  4.476e-03  alpha:  1.000e+00
	FillingsUpdate:  mu: -0.220065078  nElectrons: 73.000000  magneticMoment: [ Abs: 0.62823  Tot: +0.60000 ]
LCAOMinimize: Iter:   1  F: -117.1883496409639633  |grad|_K:  1.016e-03  alpha:  4.003e-01  linmin:  1.709e-01  cgtest: -5.951e-01  t[s]:     24.97
	FillingsUpdate:  mu: -0.184872334  nElectrons: 73.000000  magneticMoment: [ Abs: 0.63097  Tot: +0.60000 ]
LCAOMinimize: Iter:   2  F: -117.2036990638796254  |grad|_K:  6.165e-04  alpha:  2.541e-01  linmin:  2.560e-03  cgtest:  7.509e-01  t[s]:     32.58
LCAOMinimize: Encountered beta<0, resetting CG.
	FillingsUpdate:  mu: -0.171439195  nElectrons: 73.000000  magneticMoment: [ Abs: 0.63246  Tot: +0.60000 ]
LCAOMinimize: Iter:   3  F: -117.2169894912141928  |grad|_K:  1.114e-04  alpha:  3.466e-01  linmin:  1.487e-02  cgtest: -7.308e-02  t[s]:     40.26
	FillingsUpdate:  mu: -0.175544710  nElectrons: 73.000000  magneticMoment: [ Abs: 0.63336  Tot: +0.60000 ]
LCAOMinimize: Iter:   4  F: -117.2174250962147681  |grad|_K:  1.386e-05  alpha:  3.516e-01  linmin:  1.137e-02  cgtest:  1.433e-01  t[s]:     48.01
LCAOMinimize: Encountered beta<0, resetting CG.
	FillingsUpdate:  mu: -0.175876672  nElectrons: 73.000000  magneticMoment: [ Abs: 0.63428  Tot: +0.60000 ]
LCAOMinimize: Iter:   5  F: -117.2174355660549026  |grad|_K:  8.710e-06  alpha:  5.385e-01  linmin:  1.142e-04  cgtest: -2.528e-04  t[s]:     55.75
	FillingsUpdate:  mu: -0.175572034  nElectrons: 73.000000  magneticMoment: [ Abs: 0.63570  Tot: +0.60000 ]
LCAOMinimize: Iter:   6  F: -117.2174411464636279  |grad|_K:  4.011e-06  alpha:  7.256e-01  linmin: -2.129e-03  cgtest:  1.207e-02  t[s]:     63.50
	FillingsUpdate:  mu: -0.175695638  nElectrons: 73.000000  magneticMoment: [ Abs: 0.63590  Tot: +0.60000 ]
LCAOMinimize: Iter:   7  F: -117.2174419019505365  |grad|_K:  9.211e-07  alpha:  4.615e-01  linmin: -1.249e-04  cgtest: -2.202e-02  t[s]:     71.20
	FillingsUpdate:  mu: -0.175687265  nElectrons: 73.000000  magneticMoment: [ Abs: 0.63570  Tot: +0.60000 ]
LCAOMinimize: Iter:   8  F: -117.2174419728295902  |grad|_K:  4.099e-07  alpha:  8.251e-01  linmin: -1.084e-03  cgtest:  4.206e-03  t[s]:     78.86
LCAOMinimize: Converged (|Delta F|<1.000000e-06 for 2 iters).


---- Citations for features of the code used in this run ----

   Software package:
      R. Sundararaman, K. Letchworth-Weaver, K.A. Schwarz, D. Gunceler, Y. Ozhabes and T.A. Arias, 'JDFTx: software for joint density-functional theory', SoftwareX 6, 278 (2017)

   gga-PBE exchange-correlation functional:
      J.P. Perdew, K. Burke and M. Ernzerhof, Phys. Rev. Lett. 77, 3865 (1996)

   Pseudopotentials:
      M Schlipf and F Gygi, Comput. Phys. Commun. 196, 36 (2015)

   Truncated Coulomb potentials:
      R. Sundararaman and T.A. Arias, Phys. Rev. B 87, 165122 (2013)

This list may not be complete. Please suggest additional citations or
report any other bugs at https://github.com/shankar1729/jdftx/issues

Initialization completed successfully at t[s]:     79.65


-------- Electronic minimization -----------
Will mix electronic density at each iteration.
	FillingsUpdate:  mu: -0.175687265  nElectrons: 73.000000  magneticMoment: [ Abs: 0.63570  Tot: +0.60000 ]
	FillingsUpdate:  mu: -0.190969801  nElectrons: 73.000000  magneticMoment: [ Abs: 0.63570  Tot: +0.60000 ]
SCF: Cycle:  0   F: -118.143751401344502   dF: -9.263e-01   |Residual|: 3.369e-01   |deigs|: 1.137e-01  t[s]:    100.53
	FillingsUpdate:  mu: -0.169679305  nElectrons: 73.000000  magneticMoment: [ Abs: 0.66553  Tot: +0.60000 ]
SCF: Cycle:  1   F: -118.182856113978389   dF: -3.910e-02   |Residual|: 1.878e-01   |deigs|: 2.534e-02  t[s]:    116.03
	FillingsUpdate:  mu: -0.140921369  nElectrons: 73.000000  magneticMoment: [ Abs: 0.68094  Tot: +0.60000 ]
SCF: Cycle:  2   F: -118.208621305909318   dF: -2.577e-02   |Residual|: 4.095e-02   |deigs|: 2.999e-02  t[s]:    131.73
	FillingsUpdate:  mu: -0.137570557  nElectrons: 73.000000  magneticMoment: [ Abs: 0.68087  Tot: +0.60000 ]
SCF: Cycle:  3   F: -118.209405682703334   dF: -7.844e-04   |Residual|: 2.287e-02   |deigs|: 7.893e-03  t[s]:    147.45
	FillingsUpdate:  mu: -0.126101839  nElectrons: 73.000000  magneticMoment: [ Abs: 0.67088  Tot: +0.60000 ]
SCF: Cycle:  4   F: -118.210824659673037   dF: -1.419e-03   |Residual|: 1.219e-02   |deigs|: 1.027e-02  t[s]:    163.31
	FillingsUpdate:  mu: -0.121216610  nElectrons: 73.000000  magneticMoment: [ Abs: 0.67809  Tot: +0.60000 ]
SCF: Cycle:  5   F: -118.211144275486831   dF: -3.196e-04   |Residual|: 9.235e-03   |deigs|: 4.259e-03  t[s]:    179.26
	FillingsUpdate:  mu: -0.115006834  nElectrons: 73.000000  magneticMoment: [ Abs: 0.67338  Tot: +0.60000 ]
SCF: Cycle:  6   F: -118.211256383046518   dF: -1.121e-04   |Residual|: 5.918e-03   |deigs|: 5.653e-03  t[s]:    195.28
	FillingsUpdate:  mu: -0.110528222  nElectrons: 73.000000  magneticMoment: [ Abs: 0.67139  Tot: +0.60000 ]
SCF: Cycle:  7   F: -118.211233345438458   dF: +2.304e-05   |Residual|: 4.837e-03   |deigs|: 5.638e-03  t[s]:    211.39
	FillingsUpdate:  mu: -0.106064614  nElectrons: 73.000000  magneticMoment: [ Abs: 0.67309  Tot: +0.60000 ]
SCF: Cycle:  8   F: -118.211300217056476   dF: -6.687e-05   |Residual|: 3.899e-03   |deigs|: 4.510e-03  t[s]:    227.51
	FillingsUpdate:  mu: -0.103319436  nElectrons: 73.000000  magneticMoment: [ Abs: 0.67065  Tot: +0.60000 ]
SCF: Cycle:  9   F: -118.211342664670084   dF: -4.245e-05   |Residual|: 3.037e-03   |deigs|: 2.903e-03  t[s]:    243.70
	FillingsUpdate:  mu: -0.101013996  nElectrons: 73.000000  magneticMoment: [ Abs: 0.67160  Tot: +0.60000 ]
SCF: Cycle: 10   F: -118.211368665803718   dF: -2.600e-05   |Residual|: 2.645e-03   |deigs|: 2.402e-03  t[s]:    259.96
	FillingsUpdate:  mu: -0.097980071  nElectrons: 73.000000  magneticMoment: [ Abs: 0.67152  Tot: +0.60000 ]
SCF: Cycle: 11   F: -118.211385350894503   dF: -1.669e-05   |Residual|: 2.151e-03   |deigs|: 2.891e-03  t[s]:    276.13
	FillingsUpdate:  mu: -0.095589002  nElectrons: 73.000000  magneticMoment: [ Abs: 0.67058  Tot: +0.60000 ]
SCF: Cycle: 12   F: -118.211391795496652   dF: -6.445e-06   |Residual|: 1.949e-03   |deigs|: 2.185e-03  t[s]:    292.31
	FillingsUpdate:  mu: -0.091859270  nElectrons: 73.000000  magneticMoment: [ Abs: 0.67176  Tot: +0.60000 ]
SCF: Cycle: 13   F: -118.211394775097261   dF: -2.980e-06   |Residual|: 1.670e-03   |deigs|: 3.529e-03  t[s]:    308.45
	FillingsUpdate:  mu: -0.088452909  nElectrons: 73.000000  magneticMoment: [ Abs: 0.66986  Tot: +0.60000 ]
SCF: Cycle: 14   F: -118.211393901221157   dF: +8.739e-07   |Residual|: 1.659e-03   |deigs|: 2.982e-03  t[s]:    324.61
	FillingsUpdate:  mu: -0.084333254  nElectrons: 73.000000  magneticMoment: [ Abs: 0.67162  Tot: +0.60000 ]
SCF: Cycle: 15   F: -118.211394374168833   dF: -4.729e-07   |Residual|: 1.450e-03   |deigs|: 3.792e-03  t[s]:    340.86
	FillingsUpdate:  mu: -0.080656107  nElectrons: 73.000000  magneticMoment: [ Abs: 0.67121  Tot: +0.60000 ]
SCF: Cycle: 16   F: -118.211397899062391   dF: -3.525e-06   |Residual|: 1.191e-03   |deigs|: 3.434e-03  t[s]:    357.03
	FillingsUpdate:  mu: -0.078745008  nElectrons: 73.000000  magneticMoment: [ Abs: 0.67002  Tot: +0.60000 ]
SCF: Cycle: 17   F: -118.211402977327751   dF: -5.078e-06   |Residual|: 8.982e-04   |deigs|: 1.659e-03  t[s]:    373.32
	FillingsUpdate:  mu: -0.077727162  nElectrons: 73.000000  magneticMoment: [ Abs: 0.66969  Tot: +0.60000 ]
SCF: Cycle: 18   F: -118.211405497256720   dF: -2.520e-06   |Residual|: 5.728e-04   |deigs|: 1.249e-03  t[s]:    389.48
	FillingsUpdate:  mu: -0.077259504  nElectrons: 73.000000  magneticMoment: [ Abs: 0.66967  Tot: +0.60000 ]
SCF: Cycle: 19   F: -118.211406198342473   dF: -7.011e-07   |Residual|: 3.582e-04   |deigs|: 5.098e-04  t[s]:    405.68
	FillingsUpdate:  mu: -0.076950132  nElectrons: 73.000000  magneticMoment: [ Abs: 0.66975  Tot: +0.60000 ]
SCF: Cycle: 20   F: -118.211406592397935   dF: -3.941e-07   |Residual|: 2.357e-04   |deigs|: 5.705e-04  t[s]:    421.79
	FillingsUpdate:  mu: -0.076694424  nElectrons: 73.000000  magneticMoment: [ Abs: 0.66960  Tot: +0.60000 ]
SCF: Cycle: 21   F: -118.211406819526417   dF: -2.271e-07   |Residual|: 1.486e-04   |deigs|: 6.021e-04  t[s]:    437.96
	FillingsUpdate:  mu: -0.076491122  nElectrons: 73.000000  magneticMoment: [ Abs: 0.66944  Tot: +0.60000 ]
SCF: Cycle: 22   F: -118.211406925051961   dF: -1.055e-07   |Residual|: 7.668e-05   |deigs|: 9.882e-04  t[s]:    454.20
	FillingsUpdate:  mu: -0.076417053  nElectrons: 73.000000  magneticMoment: [ Abs: 0.66939  Tot: +0.60000 ]
SCF: Cycle: 23   F: -118.211406951803198   dF: -2.675e-08   |Residual|: 5.019e-05   |deigs|: 1.708e-04  t[s]:    470.47
	FillingsUpdate:  mu: -0.076373078  nElectrons: 73.000000  magneticMoment: [ Abs: 0.66938  Tot: +0.60000 ]
SCF: Cycle: 24   F: -118.211406963642588   dF: -1.184e-08   |Residual|: 2.958e-05   |deigs|: 1.987e-04  t[s]:    486.69
	FillingsUpdate:  mu: -0.076353151  nElectrons: 73.000000  magneticMoment: [ Abs: 0.66936  Tot: +0.60000 ]
SCF: Cycle: 25   F: -118.211406968371904   dF: -4.729e-09   |Residual|: 1.665e-05   |deigs|: 3.295e-04  t[s]:    502.90
	FillingsUpdate:  mu: -0.076345913  nElectrons: 73.000000  magneticMoment: [ Abs: 0.66936  Tot: +0.60000 ]
SCF: Cycle: 26   F: -118.211406969884479   dF: -1.513e-09   |Residual|: 9.508e-06   |deigs|: 1.354e-04  t[s]:    519.09
SCF: Converged (|Delta E|<1.000000e-08 for 2 iters).


# Ionic positions in lattice coordinates:
ion C  -0.000000000000000   0.000000000000000   0.000000000000000 1
ion N   0.108900118656067   0.217800237312134   0.000000000000000 1
ion N   0.111440932313158   0.555720466156579   0.000000000000000 1
ion N   0.108900118656067   0.891099881343933   0.000000000000000 1
ion N   0.444600551142632   0.222300275571316   0.000000000000000 1
ion N   0.444279533843421   0.555720466156579   0.000000000000000 1
ion N   0.444279533843421   0.888559067686842   0.000000000000000 1
ion N   0.777699724428684   0.222300275571316   0.000000000000000 1
ion N   0.777699724428684   0.555399448857368   0.000000000000000 1
ion N   0.782199762687866   0.891099881343933   0.000000000000000 1
ion B  -0.000409163333578   0.332352225367090   0.000000000000000 1
ion B  -0.000409163333578   0.667238611299332   0.000000000000000 1
ion B   0.332761388700668   0.000409163333578   0.000000000000000 1
ion B   0.332761388700668   0.332352225367090   0.000000000000000 1
ion B   0.333333333333333   0.666666666666667   0.000000000000000 1
ion B   0.667647774632910   0.000409163333578   0.000000000000000 1
ion B   0.666666666666667   0.333333333333333   0.000000000000000 1
ion B   0.667647774632910   0.667238611299332   0.000000000000000 1

# Forces in Lattice coordinates:
force C   0.000000000000000   0.000000000000000   0.000000000000000 1
force N   0.000000000000000  -0.068588382258978   0.000000000000000 1
force N   0.006684374157701  -0.000000000000000   0.000000000000000 1
force N  -0.068588382258975   0.068588382258977   0.000000000000000 1
force N  -0.008427442355905   0.000000000000000   0.000000000000000 1
force N  -0.006684374157701   0.006684374157701  -0.000000000000000 1
force N   0.000000000000000  -0.006684374157701  -0.000000000000000 1
force N   0.008427442355905  -0.008427442355905  -0.000000000000000 1
force N   0.000000000000000   0.008427442355905  -0.000000000000000 1
force N   0.068588382258973   0.000000000000000   0.000000000000000 1
force B  -0.024075003213257   0.019759011137153  -0.000000000000000 1
force B  -0.004315992076103  -0.019759011137154   0.000000000000000 1
force B   0.019759011137153   0.004315992076103   0.000000000000000 1
force B   0.024075003213257  -0.004315992076103  -0.000000000000000 1
force B   0.000000000000000   0.000000000000000   0.000000000000000 1
force B  -0.019759011137153   0.024075003213257  -0.000000000000000 1
force B   0.000000000000000  -0.000000000000000   0.000000000000000 1
force B   0.004315992076103  -0.024075003213257   0.000000000000000 1

# Energy components:
   Eewald =     -185.5884594997991428
       EH =      -93.0334780072891618
     Eloc =      115.4679483157594433
      Enl =       -5.2749185074449976
   Epulay =       -0.0000011688465181
      Exc =      -33.7500193110652020
       KE =       83.9675221005975914
-------------------------------------
     Etot =     -118.2114060780880322
       TS =        0.0000008917964404
-------------------------------------
        F =     -118.2114069698844787

IonicMinimize: Iter:   0  F: -118.211406969884479  |grad|_K:  1.469e-03  t[s]:    520.49
IonicMinimize: None of the convergence criteria satisfied after 0 iterations.

#--- Lowdin population analysis ---
# oxidation-state C +0.269
# magnetic-moments C +0.354
# oxidation-state N -0.264 -0.372 -0.264 -0.376 -0.372 -0.372 -0.376 -0.376 -0.264
# magnetic-moments N +0.003 -0.002 +0.003 +0.015 -0.002 -0.002 +0.015 +0.015 +0.003
# oxidation-state B +0.430 +0.430 +0.430 +0.430 +0.431 +0.430 +0.427 +0.430
# magnetic-moments B +0.027 +0.027 +0.027 +0.027 +0.009 +0.027 +0.012 +0.027

End date and time: Sun Feb  6 19:49:45 2022  (Duration: 0-0:08:40.85)
Done!
