magnetization is 0.32
--------------------------------------------------------------------------
The library attempted to open the following supporting CUDA libraries,
but each of them failed.  CUDA-aware support is disabled.
libcuda.so.1: cannot open shared object file: No such file or directory
libcuda.dylib: cannot open shared object file: No such file or directory
/usr/lib64/libcuda.so.1: cannot open shared object file: No such file or directory
/usr/lib64/libcuda.dylib: cannot open shared object file: No such file or directory
If you are not interested in CUDA-aware support, then run with
--mca opal_warn_on_missing_libcuda 0 to suppress this message.  If you are interested
in CUDA-aware support, then try setting LD_LIBRARY_PATH to the location
of libcuda.so.1 to get passed this issue.
--------------------------------------------------------------------------
--------------------------------------------------------------------------
No OpenFabrics connection schemes reported that they were able to be
used on a specific port.  As such, the openib BTL (OpenFabrics
support) will be disabled for this port.

  Local host:           d-3-1-3
  Local device:         mlx5_1
  Local port:           1
  CPCs attempted:       rdmacm, udcm
--------------------------------------------------------------------------

*************** JDFTx 1.6.0 (git hash 42ebbcc2) ***************

Start date and time: Sun Feb  6 19:33:22 2022
Executable jdftx with command-line: -i BN33BC.in
Running on hosts (process indices):  d-3-1-3 (0-37)
Divided in process groups (process indices):  0 (0)  1 (1)  2 (2)  3 (3)  4 (4)  5 (5)  6 (6)  7 (7)  8 (8)  9 (9)  10 (10)  11 (11)  12 (12)  13 (13)  14 (14)  15 (15)  16 (16)  17 (17)  18 (18)  19 (19)  20 (20)  21 (21)  22 (22)  23 (23)  24 (24)  25 (25)  26 (26)  27 (27)  28 (28)  29 (29)  30 (30)  31 (31)  32 (32)  33 (33)  34 (34)  35 (35)  36 (36)  37 (37)
Resource initialization completed at t[s]:      0.00
Run totals: 38 processes, 48 threads, 0 GPUs


Input parsed successfully to the following command list (including defaults):

basis kpoint-dependent
coords-type Lattice
core-overlap-check vector
coulomb-interaction Slab 001
davidson-band-ratio 1.1
dump End None
dump-name $INPUT.$VAR
elec-cutoff 20
elec-eigen-algo Davidson
elec-ex-corr gga-PBE
elec-initial-magnetization 0.320000 yes
elec-smearing Fermi 1e-05
electronic-minimize  \
	dirUpdateScheme      FletcherReeves \
	linminMethod         DirUpdateRecommended \
	nIterations          100 \
	history              15 \
	knormThreshold       0 \
	energyDiffThreshold  1e-08 \
	nEnergyDiff          2 \
	alphaTstart          1 \
	alphaTmin            1e-10 \
	updateTestStepSize   yes \
	alphaTreduceFactor   0.1 \
	alphaTincreaseFactor 3 \
	nAlphaAdjustMax      3 \
	wolfeEnergy          0.0001 \
	wolfeGradient        0.9 \
	fdTest               no
electronic-scf  \
	nIterations	1000 \
	energyDiffThreshold	1e-08 \
	residualThreshold	1e-07 \
	mixFraction	0.5 \
	qMetric	0.8 \
	history	10 \
	nEigSteps	2 \
	eigDiffThreshold	1e-08 \
	mixedVariable	Density \
	qKerker	0.8 \
	qKappa	-1 \
	verbose	no \
	mixFractionMag	1.5
exchange-regularization WignerSeitzTruncated
fluid None
fluid-ex-corr (null) lda-PZ
fluid-gummel-loop 10 1.000000e-05
fluid-minimize  \
	dirUpdateScheme      PolakRibiere \
	linminMethod         DirUpdateRecommended \
	nIterations          100 \
	history              15 \
	knormThreshold       0 \
	energyDiffThreshold  0 \
	nEnergyDiff          2 \
	alphaTstart          1 \
	alphaTmin            1e-10 \
	updateTestStepSize   yes \
	alphaTreduceFactor   0.1 \
	alphaTincreaseFactor 3 \
	nAlphaAdjustMax      3 \
	wolfeEnergy          0.0001 \
	wolfeGradient        0.9 \
	fdTest               no
fluid-solvent H2O 55.338 ScalarEOS \
	epsBulk 78.4 \
	pMol 0.92466 \
	epsInf 1.77 \
	Pvap 1.06736e-10 \
	sigmaBulk 4.62e-05 \
	Rvdw 2.61727 \
	Res 1.42 \
	tauNuc 343133 \
	poleEl 15 7 1
forces-output-coords Positions
ion C   0.000000000000000  -0.000000000000000   0.000000000000000 1
ion N   0.108900118656067   0.217800237312134   0.000000000000000 1
ion N   0.111440932313158   0.555720466156579   0.000000000000000 1
ion N   0.108900118656067   0.891099881343933   0.000000000000000 1
ion N   0.444600551142632   0.222300275571316   0.000000000000000 1
ion N   0.444279533843421   0.555720466156579   0.000000000000000 1
ion N   0.444279533843421   0.888559067686842   0.000000000000000 1
ion N   0.777699724428684   0.222300275571316   0.000000000000000 1
ion N   0.777699724428684   0.555399448857368   0.000000000000000 1
ion N   0.782199762687866   0.891099881343933   0.000000000000000 1
ion B  -0.000409163333578   0.332352225367090  -0.000000000000000 1
ion B  -0.000409163333578   0.667238611299332  -0.000000000000000 1
ion B   0.332761388700668   0.000409163333578   0.000000000000000 1
ion B   0.332761388700668   0.332352225367090  -0.000000000000000 1
ion B   0.333333333333333   0.666666666666667   0.000000000000000 1
ion B   0.667647774632910   0.000409163333578   0.000000000000000 1
ion B   0.666666666666667   0.333333333333333   0.000000000000000 1
ion B   0.667647774632910   0.667238611299332   0.000000000000000 1
ion-species SG15/$ID_ONCV_PBE.upf
ion-width 0
ionic-minimize  \
	dirUpdateScheme      L-BFGS \
	linminMethod         DirUpdateRecommended \
	nIterations          0 \
	history              15 \
	knormThreshold       0.0001 \
	energyDiffThreshold  1e-06 \
	nEnergyDiff          2 \
	alphaTstart          1 \
	alphaTmin            1e-10 \
	updateTestStepSize   yes \
	alphaTreduceFactor   0.1 \
	alphaTincreaseFactor 3 \
	nAlphaAdjustMax      3 \
	wolfeEnergy          0.0001 \
	wolfeGradient        0.9 \
	fdTest               no
kpoint   0.000000000000   0.000000000000   0.000000000000  1.00000000000000
kpoint-folding 12 12 1 
latt-move-scale 1 1 1
latt-scale 1 1 1 
lattice  \
	  14.116397090998559   -7.058198545499275    0.000000000000000  \
	  -0.000000000000000   12.225158490713497    0.000000000000000  \
	   0.000000000000000    0.000000000000000   40.000000000000000 
lattice-minimize  \
	dirUpdateScheme      L-BFGS \
	linminMethod         DirUpdateRecommended \
	nIterations          0 \
	history              15 \
	knormThreshold       0 \
	energyDiffThreshold  1e-06 \
	nEnergyDiff          2 \
	alphaTstart          1 \
	alphaTmin            1e-10 \
	updateTestStepSize   yes \
	alphaTreduceFactor   0.1 \
	alphaTincreaseFactor 3 \
	nAlphaAdjustMax      3 \
	wolfeEnergy          0.0001 \
	wolfeGradient        0.9 \
	fdTest               no
lcao-params -1 1e-06 1e-05
pcm-variant GLSSA13
spintype z-spin
subspace-rotation-factor 1 yes
symmetries automatic
symmetry-threshold 0.0001



---------- Setting up symmetries ----------

Found 24 point-group symmetries of the bravais lattice
Found 12 space-group symmetries with basis
Applied RMS atom displacement 2.54347e-15 bohrs to make symmetries exact.

---------- Initializing the Grid ----------
R = 
[      14.1164      -7.0582            0  ]
[            0      12.2252            0  ]
[            0            0           40  ]
unit cell volume = 6903.01
G =
[   0.445098   0.256978         -0  ]
[          0   0.513955         -0  ]
[         -0         -0    0.15708  ]
Minimum fftbox size, Smin = [  60  60  164  ]
Chosen fftbox size, S = [  60  60  168  ]

---------- Exchange Correlation functional ----------
Initalized PBE GGA exchange.
Initalized PBE GGA correlation.

---------- Setting up pseudopotentials ----------
Width of ionic core gaussian charges (only for fluid interactions / plotting) set to 0

Reading pseudopotential file '/home/gridsan/aligho/DFT/build-Nov24/pseudopotentials/SG15/C_ONCV_PBE.upf':
  'C' pseudopotential, 'PBE' functional
  Generated using ONCVPSP code by D. R. Hamann
  Author: Martin Schlipf and Francois Gygi  Date: 150915.
  4 valence electrons, 2 orbitals, 4 projectors, 1248 radial grid points, with lMax = 1
  Transforming local potential to a uniform radial grid of dG=0.02 with 1495 points.
  Transforming nonlocal projectors to a uniform radial grid of dG=0.02 with 432 points.
    2S    l: 0   occupation:  2.0   eigenvalue: -0.505335
    2P    l: 1   occupation:  2.0   eigenvalue: -0.194238
  Transforming atomic orbitals to a uniform radial grid of dG=0.02 with 432 points.
  Core radius for overlap checks: 1.23 bohrs.
  Reading pulay file /home/gridsan/aligho/DFT/build-Nov24/pseudopotentials/SG15/C_ONCV_PBE.pulay ... using dE_dnG = -9.239532e-03 computed for Ecut = 20.

Reading pseudopotential file '/home/gridsan/aligho/DFT/build-Nov24/pseudopotentials/SG15/N_ONCV_PBE.upf':
  'N' pseudopotential, 'PBE' functional
  Generated using ONCVPSP code by D. R. Hamann
  Author: Martin Schlipf and Francois Gygi  Date: 150915.
  5 valence electrons, 2 orbitals, 4 projectors, 1058 radial grid points, with lMax = 1
  Transforming local potential to a uniform radial grid of dG=0.02 with 1495 points.
  Transforming nonlocal projectors to a uniform radial grid of dG=0.02 with 432 points.
    2S    l: 0   occupation:  2.0   eigenvalue: -0.682907
    2P    l: 1   occupation:  3.0   eigenvalue: -0.260548
  Transforming atomic orbitals to a uniform radial grid of dG=0.02 with 432 points.
  Core radius for overlap checks: 1.35 bohrs.
  Reading pulay file /home/gridsan/aligho/DFT/build-Nov24/pseudopotentials/SG15/N_ONCV_PBE.pulay ... using dE_dnG = -2.956256e-02 computed for Ecut = 20.

Reading pseudopotential file '/home/gridsan/aligho/DFT/build-Nov24/pseudopotentials/SG15/B_ONCV_PBE.upf':
  'B' pseudopotential, 'PBE' functional
  Generated using ONCVPSP code by D. R. Hamann
  Author: Martin Schlipf and Francois Gygi  Date: 150915.
  3 valence electrons, 2 orbitals, 4 projectors, 1534 radial grid points, with lMax = 1
  Transforming local potential to a uniform radial grid of dG=0.02 with 1495 points.
  Transforming nonlocal projectors to a uniform radial grid of dG=0.02 with 432 points.
    2S    l: 0   occupation:  2.0   eigenvalue: -0.347027
    2P    l: 1   occupation:  1.0   eigenvalue: -0.132548
  Transforming atomic orbitals to a uniform radial grid of dG=0.02 with 432 points.
  Core radius for overlap checks: 1.60 bohrs.
  Reading pulay file /home/gridsan/aligho/DFT/build-Nov24/pseudopotentials/SG15/B_ONCV_PBE.pulay ... using dE_dnG = -3.748568e-04 computed for Ecut = 20.

Initialized 3 species with 18 total atoms.

Folded 1 k-points by 12x12x1 to 144 k-points.

---------- Setting up k-points, bands, fillings ----------
Adding inversion symmetry to k-mesh for non-inversion-symmetric unit cell.
Reduced to 19 k-points under symmetry. 
Computing the number of bands and number of electrons
Calculating initial fillings.
nElectrons:  73.000000   nBands: 72   nStates: 38

----- Setting up reduced wavefunction bases (one per k-point) -----
average nbasis = 29490.146 , ideal nbasis = 29490.175

---------- Setting up coulomb interaction ----------
Initialized slab truncation along lattice direction 001

---------- Setting up 2D ewald sum ----------
Optimum gaussian width for ewald sums = 7.836854 bohr.
Real space sums over 289 unit cells with max indices [  8  8  0  ]
Reciprocal space sums over 81 terms with max indices [  4  4  0  ]

---------- Allocating electronic variables ----------
Initializing wave functions:  linear combination of atomic orbitals
C pseudo-atom occupations:   s ( 2 )  p ( 2 )
N pseudo-atom occupations:   s ( 2 )  p ( 3 )
B pseudo-atom occupations:   s ( 2 )  p ( 1 )
[d-3-1-3:95550] 37 more processes have sent help message help-mpi-common-cuda.txt / dlopen failed
[d-3-1-3:95550] Set MCA parameter "orte_base_help_aggregate" to 0 to see all help / error messages
[d-3-1-3:95550] 37 more processes have sent help message help-mpi-btl-openib-cpc-base.txt / no cpcs for port
	FillingsUpdate:  mu: -0.192974772  nElectrons: 73.000000  magneticMoment: [ Abs: 0.33309  Tot: +0.32000 ]
LCAOMinimize: Iter:   0  F: -116.5115427169706663  |grad|_K:  4.495e-03  alpha:  1.000e+00
	FillingsUpdate:  mu: -0.223787398  nElectrons: 73.000000  magneticMoment: [ Abs: 0.33569  Tot: +0.32000 ]
LCAOMinimize: Iter:   1  F: -117.1841292192052606  |grad|_K:  1.064e-03  alpha:  3.995e-01  linmin:  1.709e-01  cgtest: -5.871e-01  t[s]:     25.15
	FillingsUpdate:  mu: -0.184675991  nElectrons: 73.000000  magneticMoment: [ Abs: 0.33685  Tot: +0.32000 ]
LCAOMinimize: Iter:   2  F: -117.2006794959790454  |grad|_K:  6.431e-04  alpha:  2.504e-01  linmin:  2.011e-03  cgtest:  7.522e-01  t[s]:     32.72
LCAOMinimize: Encountered beta<0, resetting CG.
	FillingsUpdate:  mu: -0.168782061  nElectrons: 73.000000  magneticMoment: [ Abs: 0.33750  Tot: +0.32000 ]
LCAOMinimize: Iter:   3  F: -117.2149268024351727  |grad|_K:  1.215e-04  alpha:  3.414e-01  linmin:  1.244e-02  cgtest: -7.240e-02  t[s]:     40.41
	FillingsUpdate:  mu: -0.173836020  nElectrons: 73.000000  magneticMoment: [ Abs: 0.33777  Tot: +0.32000 ]
LCAOMinimize: Iter:   4  F: -117.2154373508456189  |grad|_K:  1.273e-05  alpha:  3.465e-01  linmin:  1.684e-02  cgtest:  1.651e-01  t[s]:     48.11
LCAOMinimize: Encountered beta<0, resetting CG.
	FillingsUpdate:  mu: -0.174178688  nElectrons: 73.000000  magneticMoment: [ Abs: 0.33814  Tot: +0.32000 ]
LCAOMinimize: Iter:   5  F: -117.2154441488346635  |grad|_K:  5.973e-06  alpha:  4.143e-01  linmin:  1.878e-04  cgtest: -1.660e-03  t[s]:     55.80
	FillingsUpdate:  mu: -0.173910213  nElectrons: 73.000000  magneticMoment: [ Abs: 0.34125  Tot: +0.32000 ]
LCAOMinimize: Iter:   6  F: -117.2154469646244763  |grad|_K:  3.507e-06  alpha:  7.786e-01  linmin: -1.191e-03  cgtest:  8.961e-03  t[s]:     63.46
	FillingsUpdate:  mu: -0.174032377  nElectrons: 73.000000  magneticMoment: [ Abs: 0.34350  Tot: +0.32000 ]
LCAOMinimize: Iter:   7  F: -117.2154476272613977  |grad|_K:  9.670e-07  alpha:  5.300e-01  linmin:  1.666e-05  cgtest: -1.629e-02  t[s]:     71.17
	FillingsUpdate:  mu: -0.174019798  nElectrons: 73.000000  magneticMoment: [ Abs: 0.34413  Tot: +0.32000 ]
LCAOMinimize: Iter:   8  F: -117.2154476957554152  |grad|_K:  5.063e-07  alpha:  7.241e-01  linmin:  1.463e-04  cgtest:  5.715e-04  t[s]:     78.85
LCAOMinimize: Converged (|Delta F|<1.000000e-06 for 2 iters).


---- Citations for features of the code used in this run ----

   Software package:
      R. Sundararaman, K. Letchworth-Weaver, K.A. Schwarz, D. Gunceler, Y. Ozhabes and T.A. Arias, 'JDFTx: software for joint density-functional theory', SoftwareX 6, 278 (2017)

   gga-PBE exchange-correlation functional:
      J.P. Perdew, K. Burke and M. Ernzerhof, Phys. Rev. Lett. 77, 3865 (1996)

   Pseudopotentials:
      M Schlipf and F Gygi, Comput. Phys. Commun. 196, 36 (2015)

   Truncated Coulomb potentials:
      R. Sundararaman and T.A. Arias, Phys. Rev. B 87, 165122 (2013)

This list may not be complete. Please suggest additional citations or
report any other bugs at https://github.com/shankar1729/jdftx/issues

Initialization completed successfully at t[s]:     79.64


-------- Electronic minimization -----------
Will mix electronic density at each iteration.
	FillingsUpdate:  mu: -0.174019798  nElectrons: 73.000000  magneticMoment: [ Abs: 0.34413  Tot: +0.32000 ]
	FillingsUpdate:  mu: -0.191686092  nElectrons: 73.000000  magneticMoment: [ Abs: 0.34413  Tot: +0.32000 ]
SCF: Cycle:  0   F: -118.141330809370189   dF: -9.259e-01   |Residual|: 3.365e-01   |deigs|: 1.136e-01  t[s]:    100.55
	FillingsUpdate:  mu: -0.170001681  nElectrons: 73.000000  magneticMoment: [ Abs: 0.35494  Tot: +0.32000 ]
SCF: Cycle:  1   F: -118.180725961156227   dF: -3.940e-02   |Residual|: 1.876e-01   |deigs|: 2.533e-02  t[s]:    115.97
	FillingsUpdate:  mu: -0.141129321  nElectrons: 73.000000  magneticMoment: [ Abs: 0.36274  Tot: +0.32000 ]
SCF: Cycle:  2   F: -118.206412179668305   dF: -2.569e-02   |Residual|: 4.080e-02   |deigs|: 2.998e-02  t[s]:    131.62
	FillingsUpdate:  mu: -0.137670405  nElectrons: 73.000000  magneticMoment: [ Abs: 0.36331  Tot: +0.32000 ]
SCF: Cycle:  3   F: -118.207199170396578   dF: -7.870e-04   |Residual|: 2.261e-02   |deigs|: 7.946e-03  t[s]:    147.32
	FillingsUpdate:  mu: -0.125806122  nElectrons: 73.000000  magneticMoment: [ Abs: 0.35809  Tot: +0.32000 ]
SCF: Cycle:  4   F: -118.208668198378092   dF: -1.469e-03   |Residual|: 1.197e-02   |deigs|: 1.063e-02  t[s]:    163.12
	FillingsUpdate:  mu: -0.120628809  nElectrons: 73.000000  magneticMoment: [ Abs: 0.36374  Tot: +0.32000 ]
SCF: Cycle:  5   F: -118.208963358480688   dF: -2.952e-04   |Residual|: 8.414e-03   |deigs|: 4.417e-03  t[s]:    179.03
	FillingsUpdate:  mu: -0.114573047  nElectrons: 73.000000  magneticMoment: [ Abs: 0.35889  Tot: +0.32000 ]
SCF: Cycle:  6   F: -118.209039499066009   dF: -7.614e-05   |Residual|: 5.889e-03   |deigs|: 5.871e-03  t[s]:    194.81
	FillingsUpdate:  mu: -0.110240515  nElectrons: 73.000000  magneticMoment: [ Abs: 0.35849  Tot: +0.32000 ]
SCF: Cycle:  7   F: -118.209035233865436   dF: +4.265e-06   |Residual|: 4.747e-03   |deigs|: 5.171e-03  t[s]:    210.73
	FillingsUpdate:  mu: -0.105884271  nElectrons: 73.000000  magneticMoment: [ Abs: 0.35935  Tot: +0.32000 ]
SCF: Cycle:  8   F: -118.209103030325764   dF: -6.780e-05   |Residual|: 3.857e-03   |deigs|: 4.421e-03  t[s]:    226.62
	FillingsUpdate:  mu: -0.103411702  nElectrons: 73.000000  magneticMoment: [ Abs: 0.35733  Tot: +0.32000 ]
SCF: Cycle:  9   F: -118.209140461358857   dF: -3.743e-05   |Residual|: 3.012e-03   |deigs|: 2.646e-03  t[s]:    242.69
	FillingsUpdate:  mu: -0.100635821  nElectrons: 73.000000  magneticMoment: [ Abs: 0.35948  Tot: +0.32000 ]
SCF: Cycle: 10   F: -118.209168674837144   dF: -2.821e-05   |Residual|: 2.619e-03   |deigs|: 2.846e-03  t[s]:    258.98
	FillingsUpdate:  mu: -0.097904955  nElectrons: 73.000000  magneticMoment: [ Abs: 0.35815  Tot: +0.32000 ]
SCF: Cycle: 11   F: -118.209183315539207   dF: -1.464e-05   |Residual|: 2.120e-03   |deigs|: 2.566e-03  t[s]:    275.06
	FillingsUpdate:  mu: -0.095379385  nElectrons: 73.000000  magneticMoment: [ Abs: 0.35759  Tot: +0.32000 ]
SCF: Cycle: 12   F: -118.209189167632488   dF: -5.852e-06   |Residual|: 1.893e-03   |deigs|: 2.336e-03  t[s]:    291.09
	FillingsUpdate:  mu: -0.091530173  nElectrons: 73.000000  magneticMoment: [ Abs: 0.35878  Tot: +0.32000 ]
SCF: Cycle: 13   F: -118.209191026938171   dF: -1.859e-06   |Residual|: 1.675e-03   |deigs|: 3.606e-03  t[s]:    307.24
	FillingsUpdate:  mu: -0.088346525  nElectrons: 73.000000  magneticMoment: [ Abs: 0.35747  Tot: +0.32000 ]
SCF: Cycle: 14   F: -118.209191000812069   dF: +2.613e-08   |Residual|: 1.623e-03   |deigs|: 2.824e-03  t[s]:    323.42
	FillingsUpdate:  mu: -0.084025209  nElectrons: 73.000000  magneticMoment: [ Abs: 0.35871  Tot: +0.32000 ]
SCF: Cycle: 15   F: -118.209190723547309   dF: +2.773e-07   |Residual|: 1.461e-03   |deigs|: 4.032e-03  t[s]:    339.51
	FillingsUpdate:  mu: -0.080700490  nElectrons: 73.000000  magneticMoment: [ Abs: 0.35773  Tot: +0.32000 ]
SCF: Cycle: 16   F: -118.209195685282197   dF: -4.962e-06   |Residual|: 1.120e-03   |deigs|: 3.019e-03  t[s]:    355.65
	FillingsUpdate:  mu: -0.078505214  nElectrons: 73.000000  magneticMoment: [ Abs: 0.35726  Tot: +0.32000 ]
SCF: Cycle: 17   F: -118.209200422819080   dF: -4.738e-06   |Residual|: 8.088e-04   |deigs|: 1.934e-03  t[s]:    371.90
	FillingsUpdate:  mu: -0.077525645  nElectrons: 73.000000  magneticMoment: [ Abs: 0.35714  Tot: +0.32000 ]
SCF: Cycle: 18   F: -118.209202770250613   dF: -2.347e-06   |Residual|: 4.781e-04   |deigs|: 9.441e-04  t[s]:    388.17
	FillingsUpdate:  mu: -0.077038351  nElectrons: 73.000000  magneticMoment: [ Abs: 0.35699  Tot: +0.32000 ]
SCF: Cycle: 19   F: -118.209203434401161   dF: -6.642e-07   |Residual|: 2.491e-04   |deigs|: 5.755e-04  t[s]:    404.44
	FillingsUpdate:  mu: -0.076852304  nElectrons: 73.000000  magneticMoment: [ Abs: 0.35679  Tot: +0.32000 ]
SCF: Cycle: 20   F: -118.209203605585941   dF: -1.712e-07   |Residual|: 1.567e-04   |deigs|: 3.611e-04  t[s]:    420.66
	FillingsUpdate:  mu: -0.076707496  nElectrons: 73.000000  magneticMoment: [ Abs: 0.35671  Tot: +0.32000 ]
SCF: Cycle: 21   F: -118.209203697473342   dF: -9.189e-08   |Residual|: 8.809e-05   |deigs|: 7.012e-04  t[s]:    436.78
	FillingsUpdate:  mu: -0.076624065  nElectrons: 73.000000  magneticMoment: [ Abs: 0.35666  Tot: +0.32000 ]
SCF: Cycle: 22   F: -118.209203730603079   dF: -3.313e-08   |Residual|: 5.386e-05   |deigs|: 5.959e-04  t[s]:    453.00
	FillingsUpdate:  mu: -0.076588312  nElectrons: 73.000000  magneticMoment: [ Abs: 0.35662  Tot: +0.32000 ]
SCF: Cycle: 23   F: -118.209203743145935   dF: -1.254e-08   |Residual|: 3.377e-05   |deigs|: 1.615e-04  t[s]:    469.27
	FillingsUpdate:  mu: -0.076558064  nElectrons: 73.000000  magneticMoment: [ Abs: 0.35661  Tot: +0.32000 ]
SCF: Cycle: 24   F: -118.209203751274856   dF: -8.129e-09   |Residual|: 2.047e-05   |deigs|: 1.644e-04  t[s]:    485.39
	FillingsUpdate:  mu: -0.076550376  nElectrons: 73.000000  magneticMoment: [ Abs: 0.35660  Tot: +0.32000 ]
SCF: Cycle: 25   F: -118.209203754167220   dF: -2.892e-09   |Residual|: 1.279e-05   |deigs|: 3.866e-04  t[s]:    501.52
SCF: Converged (|Delta E|<1.000000e-08 for 2 iters).


# Ionic positions in lattice coordinates:
ion C  -0.000000000000000   0.000000000000000   0.000000000000000 1
ion N   0.108900118656067   0.217800237312134   0.000000000000000 1
ion N   0.111440932313158   0.555720466156579   0.000000000000000 1
ion N   0.108900118656067   0.891099881343933   0.000000000000000 1
ion N   0.444600551142632   0.222300275571316   0.000000000000000 1
ion N   0.444279533843421   0.555720466156579   0.000000000000000 1
ion N   0.444279533843421   0.888559067686842   0.000000000000000 1
ion N   0.777699724428684   0.222300275571316   0.000000000000000 1
ion N   0.777699724428684   0.555399448857368   0.000000000000000 1
ion N   0.782199762687866   0.891099881343933   0.000000000000000 1
ion B  -0.000409163333578   0.332352225367090   0.000000000000000 1
ion B  -0.000409163333578   0.667238611299332   0.000000000000000 1
ion B   0.332761388700668   0.000409163333578   0.000000000000000 1
ion B   0.332761388700668   0.332352225367090   0.000000000000000 1
ion B   0.333333333333333   0.666666666666667   0.000000000000000 1
ion B   0.667647774632910   0.000409163333578   0.000000000000000 1
ion B   0.666666666666667   0.333333333333333   0.000000000000000 1
ion B   0.667647774632910   0.667238611299332   0.000000000000000 1

# Forces in Lattice coordinates:
force C   0.000000000000000   0.000000000000000   0.000000000000000 1
force N   0.000000000000000  -0.094973798073492  -0.000000000000000 1
force N   0.009599129253417  -0.000000000000000  -0.000000000000000 1
force N  -0.094973798073492   0.094973798073492   0.000000000000000 1
force N  -0.011661665739103   0.000000000000000   0.000000000000000 1
force N  -0.009599129253417   0.009599129253417  -0.000000000000000 1
force N  -0.000000000000000  -0.009599129253417   0.000000000000000 1
force N   0.011661665739103  -0.011661665739103  -0.000000000000000 1
force N   0.000000000000000   0.011661665739103  -0.000000000000000 1
force N   0.094973798073488  -0.000000000000000   0.000000000000000 1
force B  -0.031761101099239   0.026613431480215   0.000000000000000 1
force B  -0.005147669619024  -0.026613431480216   0.000000000000000 1
force B   0.026613431480215   0.005147669619024  -0.000000000000000 1
force B   0.031761101099239  -0.005147669619024  -0.000000000000000 1
force B   0.000000000000000  -0.000000000000000   0.000000000000000 1
force B  -0.026613431480215   0.031761101099239   0.000000000000000 1
force B   0.000000000000000   0.000000000000000   0.000000000000000 1
force B   0.005147669619024  -0.031761101099239   0.000000000000000 1

# Energy components:
   Eewald =     -185.5884594997991428
       EH =      -93.0496083852918616
     Eloc =      115.4892720067045104
      Enl =       -5.2711358867157561
   Epulay =       -0.0000011688465181
      Exc =      -33.7441378465403119
       KE =       83.9548679165940257
-------------------------------------
     Etot =     -118.2092028638950865
       TS =        0.0000008902721365
-------------------------------------
        F =     -118.2092037541672198

IonicMinimize: Iter:   0  F: -118.209203754167220  |grad|_K:  2.021e-03  t[s]:    502.97
IonicMinimize: None of the convergence criteria satisfied after 0 iterations.

#--- Lowdin population analysis ---
# oxidation-state C +0.265
# magnetic-moments C +0.192
# oxidation-state N -0.261 -0.371 -0.261 -0.375 -0.371 -0.371 -0.375 -0.375 -0.261
# magnetic-moments N +0.002 -0.001 +0.002 +0.009 -0.001 -0.001 +0.009 +0.009 +0.002
# oxidation-state B +0.429 +0.429 +0.429 +0.429 +0.428 +0.429 +0.424 +0.429
# magnetic-moments B +0.014 +0.014 +0.014 +0.014 +0.001 +0.014 +0.002 +0.014

End date and time: Sun Feb  6 19:41:46 2022  (Duration: 0-0:08:23.29)
Done!
