magnetization is 0.06
--------------------------------------------------------------------------
The library attempted to open the following supporting CUDA libraries,
but each of them failed.  CUDA-aware support is disabled.
libcuda.so.1: cannot open shared object file: No such file or directory
libcuda.dylib: cannot open shared object file: No such file or directory
/usr/lib64/libcuda.so.1: cannot open shared object file: No such file or directory
/usr/lib64/libcuda.dylib: cannot open shared object file: No such file or directory
If you are not interested in CUDA-aware support, then run with
--mca opal_warn_on_missing_libcuda 0 to suppress this message.  If you are interested
in CUDA-aware support, then try setting LD_LIBRARY_PATH to the location
of libcuda.so.1 to get passed this issue.
--------------------------------------------------------------------------
--------------------------------------------------------------------------
No OpenFabrics connection schemes reported that they were able to be
used on a specific port.  As such, the openib BTL (OpenFabrics
support) will be disabled for this port.

  Local host:           d-17-14-3
  Local device:         mlx5_1
  Local port:           1
  CPCs attempted:       rdmacm, udcm
--------------------------------------------------------------------------

*************** JDFTx 1.6.0 (git hash 42ebbcc2) ***************

Start date and time: Sun Feb  6 19:32:52 2022
Executable jdftx with command-line: -i BN33BC.in
Running on hosts (process indices):  d-17-14-3 (0-37)
Divided in process groups (process indices):  0 (0)  1 (1)  2 (2)  3 (3)  4 (4)  5 (5)  6 (6)  7 (7)  8 (8)  9 (9)  10 (10)  11 (11)  12 (12)  13 (13)  14 (14)  15 (15)  16 (16)  17 (17)  18 (18)  19 (19)  20 (20)  21 (21)  22 (22)  23 (23)  24 (24)  25 (25)  26 (26)  27 (27)  28 (28)  29 (29)  30 (30)  31 (31)  32 (32)  33 (33)  34 (34)  35 (35)  36 (36)  37 (37)
Resource initialization completed at t[s]:      0.00
Run totals: 38 processes, 48 threads, 0 GPUs


Input parsed successfully to the following command list (including defaults):

basis kpoint-dependent
coords-type Lattice
core-overlap-check vector
coulomb-interaction Slab 001
davidson-band-ratio 1.1
dump End None
dump-name $INPUT.$VAR
elec-cutoff 20
elec-eigen-algo Davidson
elec-ex-corr gga-PBE
elec-initial-magnetization 0.060000 yes
elec-smearing Fermi 1e-05
electronic-minimize  \
	dirUpdateScheme      FletcherReeves \
	linminMethod         DirUpdateRecommended \
	nIterations          100 \
	history              15 \
	knormThreshold       0 \
	energyDiffThreshold  1e-08 \
	nEnergyDiff          2 \
	alphaTstart          1 \
	alphaTmin            1e-10 \
	updateTestStepSize   yes \
	alphaTreduceFactor   0.1 \
	alphaTincreaseFactor 3 \
	nAlphaAdjustMax      3 \
	wolfeEnergy          0.0001 \
	wolfeGradient        0.9 \
	fdTest               no
electronic-scf  \
	nIterations	1000 \
	energyDiffThreshold	1e-08 \
	residualThreshold	1e-07 \
	mixFraction	0.5 \
	qMetric	0.8 \
	history	10 \
	nEigSteps	2 \
	eigDiffThreshold	1e-08 \
	mixedVariable	Density \
	qKerker	0.8 \
	qKappa	-1 \
	verbose	no \
	mixFractionMag	1.5
exchange-regularization WignerSeitzTruncated
fluid None
fluid-ex-corr (null) lda-PZ
fluid-gummel-loop 10 1.000000e-05
fluid-minimize  \
	dirUpdateScheme      PolakRibiere \
	linminMethod         DirUpdateRecommended \
	nIterations          100 \
	history              15 \
	knormThreshold       0 \
	energyDiffThreshold  0 \
	nEnergyDiff          2 \
	alphaTstart          1 \
	alphaTmin            1e-10 \
	updateTestStepSize   yes \
	alphaTreduceFactor   0.1 \
	alphaTincreaseFactor 3 \
	nAlphaAdjustMax      3 \
	wolfeEnergy          0.0001 \
	wolfeGradient        0.9 \
	fdTest               no
fluid-solvent H2O 55.338 ScalarEOS \
	epsBulk 78.4 \
	pMol 0.92466 \
	epsInf 1.77 \
	Pvap 1.06736e-10 \
	sigmaBulk 4.62e-05 \
	Rvdw 2.61727 \
	Res 1.42 \
	tauNuc 343133 \
	poleEl 15 7 1
forces-output-coords Positions
ion C   0.000000000000000  -0.000000000000000   0.000000000000000 1
ion N   0.108900118656067   0.217800237312134   0.000000000000000 1
ion N   0.111440932313158   0.555720466156579   0.000000000000000 1
ion N   0.108900118656067   0.891099881343933   0.000000000000000 1
ion N   0.444600551142632   0.222300275571316   0.000000000000000 1
ion N   0.444279533843421   0.555720466156579   0.000000000000000 1
ion N   0.444279533843421   0.888559067686842   0.000000000000000 1
ion N   0.777699724428684   0.222300275571316   0.000000000000000 1
ion N   0.777699724428684   0.555399448857368   0.000000000000000 1
ion N   0.782199762687866   0.891099881343933   0.000000000000000 1
ion B  -0.000409163333578   0.332352225367090  -0.000000000000000 1
ion B  -0.000409163333578   0.667238611299332  -0.000000000000000 1
ion B   0.332761388700668   0.000409163333578   0.000000000000000 1
ion B   0.332761388700668   0.332352225367090  -0.000000000000000 1
ion B   0.333333333333333   0.666666666666667   0.000000000000000 1
ion B   0.667647774632910   0.000409163333578   0.000000000000000 1
ion B   0.666666666666667   0.333333333333333   0.000000000000000 1
ion B   0.667647774632910   0.667238611299332   0.000000000000000 1
ion-species SG15/$ID_ONCV_PBE.upf
ion-width 0
ionic-minimize  \
	dirUpdateScheme      L-BFGS \
	linminMethod         DirUpdateRecommended \
	nIterations          0 \
	history              15 \
	knormThreshold       0.0001 \
	energyDiffThreshold  1e-06 \
	nEnergyDiff          2 \
	alphaTstart          1 \
	alphaTmin            1e-10 \
	updateTestStepSize   yes \
	alphaTreduceFactor   0.1 \
	alphaTincreaseFactor 3 \
	nAlphaAdjustMax      3 \
	wolfeEnergy          0.0001 \
	wolfeGradient        0.9 \
	fdTest               no
kpoint   0.000000000000   0.000000000000   0.000000000000  1.00000000000000
kpoint-folding 12 12 1 
latt-move-scale 1 1 1
latt-scale 1 1 1 
lattice  \
	  14.116397090998559   -7.058198545499275    0.000000000000000  \
	  -0.000000000000000   12.225158490713497    0.000000000000000  \
	   0.000000000000000    0.000000000000000   40.000000000000000 
lattice-minimize  \
	dirUpdateScheme      L-BFGS \
	linminMethod         DirUpdateRecommended \
	nIterations          0 \
	history              15 \
	knormThreshold       0 \
	energyDiffThreshold  1e-06 \
	nEnergyDiff          2 \
	alphaTstart          1 \
	alphaTmin            1e-10 \
	updateTestStepSize   yes \
	alphaTreduceFactor   0.1 \
	alphaTincreaseFactor 3 \
	nAlphaAdjustMax      3 \
	wolfeEnergy          0.0001 \
	wolfeGradient        0.9 \
	fdTest               no
lcao-params -1 1e-06 1e-05
pcm-variant GLSSA13
spintype z-spin
subspace-rotation-factor 1 yes
symmetries automatic
symmetry-threshold 0.0001



---------- Setting up symmetries ----------

Found 24 point-group symmetries of the bravais lattice
Found 12 space-group symmetries with basis
Applied RMS atom displacement 2.54347e-15 bohrs to make symmetries exact.

---------- Initializing the Grid ----------
R = 
[      14.1164      -7.0582            0  ]
[            0      12.2252            0  ]
[            0            0           40  ]
unit cell volume = 6903.01
G =
[   0.445098   0.256978         -0  ]
[          0   0.513955         -0  ]
[         -0         -0    0.15708  ]
Minimum fftbox size, Smin = [  60  60  164  ]
Chosen fftbox size, S = [  60  60  168  ]

---------- Exchange Correlation functional ----------
Initalized PBE GGA exchange.
Initalized PBE GGA correlation.

---------- Setting up pseudopotentials ----------
Width of ionic core gaussian charges (only for fluid interactions / plotting) set to 0

Reading pseudopotential file '/home/gridsan/aligho/DFT/build-Nov24/pseudopotentials/SG15/C_ONCV_PBE.upf':
  'C' pseudopotential, 'PBE' functional
  Generated using ONCVPSP code by D. R. Hamann
  Author: Martin Schlipf and Francois Gygi  Date: 150915.
  4 valence electrons, 2 orbitals, 4 projectors, 1248 radial grid points, with lMax = 1
  Transforming local potential to a uniform radial grid of dG=0.02 with 1495 points.
  Transforming nonlocal projectors to a uniform radial grid of dG=0.02 with 432 points.
    2S    l: 0   occupation:  2.0   eigenvalue: -0.505335
    2P    l: 1   occupation:  2.0   eigenvalue: -0.194238
  Transforming atomic orbitals to a uniform radial grid of dG=0.02 with 432 points.
  Core radius for overlap checks: 1.23 bohrs.
  Reading pulay file /home/gridsan/aligho/DFT/build-Nov24/pseudopotentials/SG15/C_ONCV_PBE.pulay ... using dE_dnG = -9.239532e-03 computed for Ecut = 20.

Reading pseudopotential file '/home/gridsan/aligho/DFT/build-Nov24/pseudopotentials/SG15/N_ONCV_PBE.upf':
  'N' pseudopotential, 'PBE' functional
  Generated using ONCVPSP code by D. R. Hamann
  Author: Martin Schlipf and Francois Gygi  Date: 150915.
  5 valence electrons, 2 orbitals, 4 projectors, 1058 radial grid points, with lMax = 1
  Transforming local potential to a uniform radial grid of dG=0.02 with 1495 points.
  Transforming nonlocal projectors to a uniform radial grid of dG=0.02 with 432 points.
    2S    l: 0   occupation:  2.0   eigenvalue: -0.682907
    2P    l: 1   occupation:  3.0   eigenvalue: -0.260548
  Transforming atomic orbitals to a uniform radial grid of dG=0.02 with 432 points.
  Core radius for overlap checks: 1.35 bohrs.
  Reading pulay file /home/gridsan/aligho/DFT/build-Nov24/pseudopotentials/SG15/N_ONCV_PBE.pulay ... using dE_dnG = -2.956256e-02 computed for Ecut = 20.

Reading pseudopotential file '/home/gridsan/aligho/DFT/build-Nov24/pseudopotentials/SG15/B_ONCV_PBE.upf':
  'B' pseudopotential, 'PBE' functional
  Generated using ONCVPSP code by D. R. Hamann
  Author: Martin Schlipf and Francois Gygi  Date: 150915.
  3 valence electrons, 2 orbitals, 4 projectors, 1534 radial grid points, with lMax = 1
  Transforming local potential to a uniform radial grid of dG=0.02 with 1495 points.
  Transforming nonlocal projectors to a uniform radial grid of dG=0.02 with 432 points.
    2S    l: 0   occupation:  2.0   eigenvalue: -0.347027
    2P    l: 1   occupation:  1.0   eigenvalue: -0.132548
  Transforming atomic orbitals to a uniform radial grid of dG=0.02 with 432 points.
  Core radius for overlap checks: 1.60 bohrs.
  Reading pulay file /home/gridsan/aligho/DFT/build-Nov24/pseudopotentials/SG15/B_ONCV_PBE.pulay ... using dE_dnG = -3.748568e-04 computed for Ecut = 20.

Initialized 3 species with 18 total atoms.

Folded 1 k-points by 12x12x1 to 144 k-points.

---------- Setting up k-points, bands, fillings ----------
Adding inversion symmetry to k-mesh for non-inversion-symmetric unit cell.
Reduced to 19 k-points under symmetry. 
Computing the number of bands and number of electrons
Calculating initial fillings.
nElectrons:  73.000000   nBands: 72   nStates: 38

----- Setting up reduced wavefunction bases (one per k-point) -----
average nbasis = 29490.146 , ideal nbasis = 29490.175

---------- Setting up coulomb interaction ----------
Initialized slab truncation along lattice direction 001

---------- Setting up 2D ewald sum ----------
Optimum gaussian width for ewald sums = 7.836854 bohr.
Real space sums over 289 unit cells with max indices [  8  8  0  ]
Reciprocal space sums over 81 terms with max indices [  4  4  0  ]

---------- Allocating electronic variables ----------
Initializing wave functions:  linear combination of atomic orbitals
C pseudo-atom occupations:   s ( 2 )  p ( 2 )
N pseudo-atom occupations:   s ( 2 )  p ( 3 )
B pseudo-atom occupations:   s ( 2 )  p ( 1 )
[d-17-14-3:68592] 37 more processes have sent help message help-mpi-common-cuda.txt / dlopen failed
[d-17-14-3:68592] Set MCA parameter "orte_base_help_aggregate" to 0 to see all help / error messages
[d-17-14-3:68592] 37 more processes have sent help message help-mpi-btl-openib-cpc-base.txt / no cpcs for port
	FillingsUpdate:  mu: -0.193351810  nElectrons: 73.000000  magneticMoment: [ Abs: 0.06282  Tot: +0.06000 ]
LCAOMinimize: Iter:   0  F: -116.5074913477836418  |grad|_K:  4.505e-03  alpha:  1.000e+00
	FillingsUpdate:  mu: -0.226113903  nElectrons: 73.000000  magneticMoment: [ Abs: 0.06281  Tot: +0.06000 ]
LCAOMinimize: Iter:   1  F: -117.1817172518063614  |grad|_K:  1.119e-03  alpha:  3.989e-01  linmin:  3.413e-02  cgtest: -5.669e-01  t[s]:     25.01
	FillingsUpdate:  mu: -0.185283985  nElectrons: 73.000000  magneticMoment: [ Abs: 0.06309  Tot: +0.06000 ]
LCAOMinimize: Iter:   2  F: -117.1990838064059801  |grad|_K:  6.612e-04  alpha:  2.424e-01  linmin: -4.823e-05  cgtest:  7.615e-01  t[s]:     32.58
LCAOMinimize: Encountered beta<0, resetting CG.
	FillingsUpdate:  mu: -0.168419390  nElectrons: 73.000000  magneticMoment: [ Abs: 0.06309  Tot: +0.06000 ]
LCAOMinimize: Iter:   3  F: -117.2139720820220958  |grad|_K:  1.235e-04  alpha:  3.361e-01  linmin:  3.977e-04  cgtest: -4.113e-02  t[s]:     40.08
	FillingsUpdate:  mu: -0.173789181  nElectrons: 73.000000  magneticMoment: [ Abs: 0.06320  Tot: +0.06000 ]
LCAOMinimize: Iter:   4  F: -117.2145114028674868  |grad|_K:  7.975e-06  alpha:  3.493e-01  linmin:  3.496e-02  cgtest:  9.778e-02  t[s]:     47.66
LCAOMinimize: Encountered beta<0, resetting CG.
	FillingsUpdate:  mu: -0.173957762  nElectrons: 73.000000  magneticMoment: [ Abs: 0.06330  Tot: +0.06000 ]
LCAOMinimize: Iter:   5  F: -117.2145138246913092  |grad|_K:  2.771e-06  alpha:  3.761e-01  linmin:  1.423e-04  cgtest: -8.266e-04  t[s]:     55.17
	FillingsUpdate:  mu: -0.173827170  nElectrons: 73.000000  magneticMoment: [ Abs: 0.06346  Tot: +0.06000 ]
LCAOMinimize: Iter:   6  F: -117.2145143066377386  |grad|_K:  1.240e-06  alpha:  6.204e-01  linmin:  1.660e-04  cgtest: -1.389e-04  t[s]:     62.64
	FillingsUpdate:  mu: -0.173871694  nElectrons: 73.000000  magneticMoment: [ Abs: 0.06355  Tot: +0.06000 ]
LCAOMinimize: Iter:   7  F: -117.2145143802731297  |grad|_K:  3.538e-07  alpha:  4.731e-01  linmin:  3.029e-04  cgtest:  5.780e-04  t[s]:     70.17
LCAOMinimize: Converged (|Delta F|<1.000000e-06 for 2 iters).


---- Citations for features of the code used in this run ----

   Software package:
      R. Sundararaman, K. Letchworth-Weaver, K.A. Schwarz, D. Gunceler, Y. Ozhabes and T.A. Arias, 'JDFTx: software for joint density-functional theory', SoftwareX 6, 278 (2017)

   gga-PBE exchange-correlation functional:
      J.P. Perdew, K. Burke and M. Ernzerhof, Phys. Rev. Lett. 77, 3865 (1996)

   Pseudopotentials:
      M Schlipf and F Gygi, Comput. Phys. Commun. 196, 36 (2015)

   Truncated Coulomb potentials:
      R. Sundararaman and T.A. Arias, Phys. Rev. B 87, 165122 (2013)

This list may not be complete. Please suggest additional citations or
report any other bugs at https://github.com/shankar1729/jdftx/issues

Initialization completed successfully at t[s]:     70.93


-------- Electronic minimization -----------
Will mix electronic density at each iteration.
	FillingsUpdate:  mu: -0.173871694  nElectrons: 73.000000  magneticMoment: [ Abs: 0.06355  Tot: +0.06000 ]
	FillingsUpdate:  mu: -0.191753049  nElectrons: 73.000000  magneticMoment: [ Abs: 0.06355  Tot: +0.06000 ]
SCF: Cycle:  0   F: -118.140475969510078   dF: -9.260e-01   |Residual|: 3.365e-01   |deigs|: 1.136e-01  t[s]:     91.43
	FillingsUpdate:  mu: -0.170295867  nElectrons: 73.000000  magneticMoment: [ Abs: 0.06804  Tot: +0.06000 ]
SCF: Cycle:  1   F: -118.179895380328148   dF: -3.942e-02   |Residual|: 1.876e-01   |deigs|: 2.531e-02  t[s]:    106.91
	FillingsUpdate:  mu: -0.141361184  nElectrons: 73.000000  magneticMoment: [ Abs: 0.07149  Tot: +0.06000 ]
SCF: Cycle:  2   F: -118.205601575328942   dF: -2.571e-02   |Residual|: 4.077e-02   |deigs|: 3.001e-02  t[s]:    122.58
	FillingsUpdate:  mu: -0.137855046  nElectrons: 73.000000  magneticMoment: [ Abs: 0.07002  Tot: +0.06000 ]
SCF: Cycle:  3   F: -118.206383983401096   dF: -7.824e-04   |Residual|: 2.257e-02   |deigs|: 7.926e-03  t[s]:    138.31
	FillingsUpdate:  mu: -0.125737306  nElectrons: 73.000000  magneticMoment: [ Abs: 0.07001  Tot: +0.06000 ]
SCF: Cycle:  4   F: -118.207872670581963   dF: -1.489e-03   |Residual|: 1.192e-02   |deigs|: 1.082e-02  t[s]:    153.94
	FillingsUpdate:  mu: -0.120106351  nElectrons: 73.000000  magneticMoment: [ Abs: 0.07176  Tot: +0.06000 ]
SCF: Cycle:  5   F: -118.208163114929178   dF: -2.904e-04   |Residual|: 7.551e-03   |deigs|: 4.738e-03  t[s]:    169.63
	FillingsUpdate:  mu: -0.113676391  nElectrons: 73.000000  magneticMoment: [ Abs: 0.06953  Tot: +0.06000 ]
SCF: Cycle:  6   F: -118.208189122686747   dF: -2.601e-05   |Residual|: 5.669e-03   |deigs|: 6.886e-03  t[s]:    185.53
	FillingsUpdate:  mu: -0.108993168  nElectrons: 73.000000  magneticMoment: [ Abs: 0.07146  Tot: +0.06000 ]
SCF: Cycle:  7   F: -118.208237186154690   dF: -4.806e-05   |Residual|: 4.601e-03   |deigs|: 4.973e-03  t[s]:    201.42
	FillingsUpdate:  mu: -0.105275041  nElectrons: 73.000000  magneticMoment: [ Abs: 0.07090  Tot: +0.06000 ]
SCF: Cycle:  8   F: -118.208298671473841   dF: -6.149e-05   |Residual|: 3.517e-03   |deigs|: 3.796e-03  t[s]:    217.49
	FillingsUpdate:  mu: -0.103339142  nElectrons: 73.000000  magneticMoment: [ Abs: 0.06874  Tot: +0.06000 ]
SCF: Cycle:  9   F: -118.208329412723941   dF: -3.074e-05   |Residual|: 3.020e-03   |deigs|: 2.069e-03  t[s]:    233.56
	FillingsUpdate:  mu: -0.099554231  nElectrons: 73.000000  magneticMoment: [ Abs: 0.06983  Tot: +0.06000 ]
SCF: Cycle: 10   F: -118.208361265944092   dF: -3.185e-05   |Residual|: 2.397e-03   |deigs|: 3.741e-03  t[s]:    249.52
	FillingsUpdate:  mu: -0.097306605  nElectrons: 73.000000  magneticMoment: [ Abs: 0.06952  Tot: +0.06000 ]
SCF: Cycle: 11   F: -118.208370295996048   dF: -9.030e-06   |Residual|: 2.058e-03   |deigs|: 2.065e-03  t[s]:    265.60
	FillingsUpdate:  mu: -0.094468889  nElectrons: 73.000000  magneticMoment: [ Abs: 0.07038  Tot: +0.06000 ]
SCF: Cycle: 12   F: -118.208373962477452   dF: -3.666e-06   |Residual|: 1.806e-03   |deigs|: 2.708e-03  t[s]:    281.53
	FillingsUpdate:  mu: -0.090858967  nElectrons: 73.000000  magneticMoment: [ Abs: 0.06875  Tot: +0.06000 ]
SCF: Cycle: 13   F: -118.208374784056517   dF: -8.216e-07   |Residual|: 1.694e-03   |deigs|: 3.260e-03  t[s]:    297.64
	FillingsUpdate:  mu: -0.086886332  nElectrons: 73.000000  magneticMoment: [ Abs: 0.06996  Tot: +0.06000 ]
SCF: Cycle: 14   F: -118.208376163055021   dF: -1.379e-06   |Residual|: 1.595e-03   |deigs|: 3.528e-03  t[s]:    313.71
	FillingsUpdate:  mu: -0.083202567  nElectrons: 73.000000  magneticMoment: [ Abs: 0.07010  Tot: +0.06000 ]
SCF: Cycle: 15   F: -118.208375065508321   dF: +1.098e-06   |Residual|: 1.365e-03   |deigs|: 3.612e-03  t[s]:    329.63
	FillingsUpdate:  mu: -0.079726297  nElectrons: 73.000000  magneticMoment: [ Abs: 0.06888  Tot: +0.06000 ]
SCF: Cycle: 16   F: -118.208380877338655   dF: -5.812e-06   |Residual|: 9.860e-04   |deigs|: 3.122e-03  t[s]:    345.61
	FillingsUpdate:  mu: -0.078126212  nElectrons: 73.000000  magneticMoment: [ Abs: 0.06817  Tot: +0.06000 ]
SCF: Cycle: 17   F: -118.208384849808127   dF: -3.972e-06   |Residual|: 7.010e-04   |deigs|: 1.384e-03  t[s]:    361.60
	FillingsUpdate:  mu: -0.077288428  nElectrons: 73.000000  magneticMoment: [ Abs: 0.06782  Tot: +0.06000 ]
SCF: Cycle: 18   F: -118.208387181698640   dF: -2.332e-06   |Residual|: 3.466e-04   |deigs|: 9.027e-04  t[s]:    377.50
	FillingsUpdate:  mu: -0.077013132  nElectrons: 73.000000  magneticMoment: [ Abs: 0.06746  Tot: +0.06000 ]
SCF: Cycle: 19   F: -118.208387588278143   dF: -4.066e-07   |Residual|: 2.158e-04   |deigs|: 3.920e-04  t[s]:    393.41
	FillingsUpdate:  mu: -0.076869069  nElectrons: 73.000000  magneticMoment: [ Abs: 0.06739  Tot: +0.06000 ]
SCF: Cycle: 20   F: -118.208387696236201   dF: -1.080e-07   |Residual|: 1.229e-04   |deigs|: 2.265e-04  t[s]:    409.50
	FillingsUpdate:  mu: -0.076773559  nElectrons: 73.000000  magneticMoment: [ Abs: 0.06728  Tot: +0.06000 ]
SCF: Cycle: 21   F: -118.208387733510037   dF: -3.727e-08   |Residual|: 6.104e-05   |deigs|: 3.283e-04  t[s]:    425.64
	FillingsUpdate:  mu: -0.076729490  nElectrons: 73.000000  magneticMoment: [ Abs: 0.06724  Tot: +0.06000 ]
SCF: Cycle: 22   F: -118.208387746755278   dF: -1.325e-08   |Residual|: 3.650e-05   |deigs|: 4.714e-04  t[s]:    441.58
	FillingsUpdate:  mu: -0.076707105  nElectrons: 73.000000  magneticMoment: [ Abs: 0.06724  Tot: +0.06000 ]
SCF: Cycle: 23   F: -118.208387754665011   dF: -7.910e-09   |Residual|: 2.226e-05   |deigs|: 2.035e-04  t[s]:    457.83
	FillingsUpdate:  mu: -0.076686258  nElectrons: 73.000000  magneticMoment: [ Abs: 0.06721  Tot: +0.06000 ]
SCF: Cycle: 24   F: -118.208387759145026   dF: -4.480e-09   |Residual|: 1.458e-05   |deigs|: 1.584e-04  t[s]:    474.13
SCF: Converged (|Delta E|<1.000000e-08 for 2 iters).


# Ionic positions in lattice coordinates:
ion C  -0.000000000000000   0.000000000000000   0.000000000000000 1
ion N   0.108900118656067   0.217800237312134   0.000000000000000 1
ion N   0.111440932313158   0.555720466156579   0.000000000000000 1
ion N   0.108900118656067   0.891099881343933   0.000000000000000 1
ion N   0.444600551142632   0.222300275571316   0.000000000000000 1
ion N   0.444279533843421   0.555720466156579   0.000000000000000 1
ion N   0.444279533843421   0.888559067686842   0.000000000000000 1
ion N   0.777699724428684   0.222300275571316   0.000000000000000 1
ion N   0.777699724428684   0.555399448857368   0.000000000000000 1
ion N   0.782199762687866   0.891099881343933   0.000000000000000 1
ion B  -0.000409163333578   0.332352225367090   0.000000000000000 1
ion B  -0.000409163333578   0.667238611299332   0.000000000000000 1
ion B   0.332761388700668   0.000409163333578   0.000000000000000 1
ion B   0.332761388700668   0.332352225367090   0.000000000000000 1
ion B   0.333333333333333   0.666666666666667   0.000000000000000 1
ion B   0.667647774632910   0.000409163333578   0.000000000000000 1
ion B   0.666666666666667   0.333333333333333   0.000000000000000 1
ion B   0.667647774632910   0.667238611299332   0.000000000000000 1

# Forces in Lattice coordinates:
force C  -0.000000000000000  -0.000000000000000   0.000000000000000 1
force N   0.000000000000000  -0.101972370439156   0.000000000000000 1
force N   0.007334962024626   0.000000000000000  -0.000000000000000 1
force N  -0.101972370439156   0.101972370439156   0.000000000000000 1
force N  -0.010425188812489   0.000000000000000  -0.000000000000000 1
force N  -0.007334962024626   0.007334962024626   0.000000000000000 1
force N   0.000000000000000  -0.007334962024626   0.000000000000000 1
force N   0.010425188812489  -0.010425188812489   0.000000000000000 1
force N   0.000000000000000   0.010425188812489   0.000000000000000 1
force N   0.101972370439154   0.000000000000000   0.000000000000000 1
force B  -0.031219415825451   0.029677200143667  -0.000000000000000 1
force B  -0.001542215681785  -0.029677200143667  -0.000000000000000 1
force B   0.029677200143667   0.001542215681784  -0.000000000000000 1
force B   0.031219415825451  -0.001542215681784  -0.000000000000000 1
force B   0.000000000000000  -0.000000000000000   0.000000000000000 1
force B  -0.029677200143667   0.031219415825451  -0.000000000000000 1
force B   0.000000000000000   0.000000000000000   0.000000000000000 1
force B   0.001542215681785  -0.031219415825451   0.000000000000000 1

# Energy components:
   Eewald =     -185.5884594997991428
       EH =      -93.0582339392823030
     Eloc =      115.5009896500902897
      Enl =       -5.2694834934326469
   Epulay =       -0.0000011688465181
      Exc =      -33.7416759799534276
       KE =       83.9484771803888634
-------------------------------------
     Etot =     -118.2083872508349032
       TS =        0.0000005083101265
-------------------------------------
        F =     -118.2083877591450261

IonicMinimize: Iter:   0  F: -118.208387759145026  |grad|_K:  2.149e-03  t[s]:    475.54
IonicMinimize: None of the convergence criteria satisfied after 0 iterations.

#--- Lowdin population analysis ---
# oxidation-state C +0.263
# magnetic-moments C +0.036
# oxidation-state N -0.259 -0.371 -0.259 -0.375 -0.371 -0.371 -0.375 -0.375 -0.259
# magnetic-moments N +0.000 -0.000 +0.000 +0.001 -0.000 -0.000 +0.001 +0.001 +0.000
# oxidation-state B +0.428 +0.428 +0.428 +0.428 +0.430 +0.428 +0.426 +0.428
# magnetic-moments B +0.002 +0.002 +0.002 +0.002 +0.003 +0.002 +0.004 +0.002

End date and time: Sun Feb  6 19:40:48 2022  (Duration: 0-0:07:55.88)
Done!
