magnetization is -0.68
--------------------------------------------------------------------------
The library attempted to open the following supporting CUDA libraries,
but each of them failed.  CUDA-aware support is disabled.
libcuda.so.1: cannot open shared object file: No such file or directory
libcuda.dylib: cannot open shared object file: No such file or directory
/usr/lib64/libcuda.so.1: cannot open shared object file: No such file or directory
/usr/lib64/libcuda.dylib: cannot open shared object file: No such file or directory
If you are not interested in CUDA-aware support, then run with
--mca opal_warn_on_missing_libcuda 0 to suppress this message.  If you are interested
in CUDA-aware support, then try setting LD_LIBRARY_PATH to the location
of libcuda.so.1 to get passed this issue.
--------------------------------------------------------------------------
--------------------------------------------------------------------------
No OpenFabrics connection schemes reported that they were able to be
used on a specific port.  As such, the openib BTL (OpenFabrics
support) will be disabled for this port.

  Local host:           d-3-10-4
  Local device:         mlx5_1
  Local port:           1
  CPCs attempted:       rdmacm, udcm
--------------------------------------------------------------------------

*************** JDFTx 1.6.0 (git hash 42ebbcc2) ***************

Start date and time: Sun Feb  6 19:15:28 2022
Executable jdftx with command-line: -i BN33BC.in
Running on hosts (process indices):  d-3-10-4 (0-37)
Divided in process groups (process indices):  0 (0)  1 (1)  2 (2)  3 (3)  4 (4)  5 (5)  6 (6)  7 (7)  8 (8)  9 (9)  10 (10)  11 (11)  12 (12)  13 (13)  14 (14)  15 (15)  16 (16)  17 (17)  18 (18)  19 (19)  20 (20)  21 (21)  22 (22)  23 (23)  24 (24)  25 (25)  26 (26)  27 (27)  28 (28)  29 (29)  30 (30)  31 (31)  32 (32)  33 (33)  34 (34)  35 (35)  36 (36)  37 (37)
Resource initialization completed at t[s]:      0.00
Run totals: 38 processes, 48 threads, 0 GPUs


Input parsed successfully to the following command list (including defaults):

basis kpoint-dependent
coords-type Lattice
core-overlap-check vector
coulomb-interaction Slab 001
davidson-band-ratio 1.1
dump End None
dump-name $INPUT.$VAR
elec-cutoff 20
elec-eigen-algo Davidson
elec-ex-corr gga-PBE
elec-initial-magnetization -0.680000 yes
elec-smearing Fermi 1e-05
electronic-minimize  \
	dirUpdateScheme      FletcherReeves \
	linminMethod         DirUpdateRecommended \
	nIterations          100 \
	history              15 \
	knormThreshold       0 \
	energyDiffThreshold  1e-08 \
	nEnergyDiff          2 \
	alphaTstart          1 \
	alphaTmin            1e-10 \
	updateTestStepSize   yes \
	alphaTreduceFactor   0.1 \
	alphaTincreaseFactor 3 \
	nAlphaAdjustMax      3 \
	wolfeEnergy          0.0001 \
	wolfeGradient        0.9 \
	fdTest               no
electronic-scf  \
	nIterations	1000 \
	energyDiffThreshold	1e-08 \
	residualThreshold	1e-07 \
	mixFraction	0.5 \
	qMetric	0.8 \
	history	10 \
	nEigSteps	2 \
	eigDiffThreshold	1e-08 \
	mixedVariable	Density \
	qKerker	0.8 \
	qKappa	-1 \
	verbose	no \
	mixFractionMag	1.5
exchange-regularization WignerSeitzTruncated
fluid None
fluid-ex-corr (null) lda-PZ
fluid-gummel-loop 10 1.000000e-05
fluid-minimize  \
	dirUpdateScheme      PolakRibiere \
	linminMethod         DirUpdateRecommended \
	nIterations          100 \
	history              15 \
	knormThreshold       0 \
	energyDiffThreshold  0 \
	nEnergyDiff          2 \
	alphaTstart          1 \
	alphaTmin            1e-10 \
	updateTestStepSize   yes \
	alphaTreduceFactor   0.1 \
	alphaTincreaseFactor 3 \
	nAlphaAdjustMax      3 \
	wolfeEnergy          0.0001 \
	wolfeGradient        0.9 \
	fdTest               no
fluid-solvent H2O 55.338 ScalarEOS \
	epsBulk 78.4 \
	pMol 0.92466 \
	epsInf 1.77 \
	Pvap 1.06736e-10 \
	sigmaBulk 4.62e-05 \
	Rvdw 2.61727 \
	Res 1.42 \
	tauNuc 343133 \
	poleEl 15 7 1
forces-output-coords Positions
ion C   0.000000000000000  -0.000000000000000   0.000000000000000 1
ion N   0.108900118656067   0.217800237312134   0.000000000000000 1
ion N   0.111440932313158   0.555720466156579   0.000000000000000 1
ion N   0.108900118656067   0.891099881343933   0.000000000000000 1
ion N   0.444600551142632   0.222300275571316   0.000000000000000 1
ion N   0.444279533843421   0.555720466156579   0.000000000000000 1
ion N   0.444279533843421   0.888559067686842   0.000000000000000 1
ion N   0.777699724428684   0.222300275571316   0.000000000000000 1
ion N   0.777699724428684   0.555399448857368   0.000000000000000 1
ion N   0.782199762687866   0.891099881343933   0.000000000000000 1
ion B  -0.000409163333578   0.332352225367090  -0.000000000000000 1
ion B  -0.000409163333578   0.667238611299332  -0.000000000000000 1
ion B   0.332761388700668   0.000409163333578   0.000000000000000 1
ion B   0.332761388700668   0.332352225367090  -0.000000000000000 1
ion B   0.333333333333333   0.666666666666667   0.000000000000000 1
ion B   0.667647774632910   0.000409163333578   0.000000000000000 1
ion B   0.666666666666667   0.333333333333333   0.000000000000000 1
ion B   0.667647774632910   0.667238611299332   0.000000000000000 1
ion-species SG15/$ID_ONCV_PBE.upf
ion-width 0
ionic-minimize  \
	dirUpdateScheme      L-BFGS \
	linminMethod         DirUpdateRecommended \
	nIterations          0 \
	history              15 \
	knormThreshold       0.0001 \
	energyDiffThreshold  1e-06 \
	nEnergyDiff          2 \
	alphaTstart          1 \
	alphaTmin            1e-10 \
	updateTestStepSize   yes \
	alphaTreduceFactor   0.1 \
	alphaTincreaseFactor 3 \
	nAlphaAdjustMax      3 \
	wolfeEnergy          0.0001 \
	wolfeGradient        0.9 \
	fdTest               no
kpoint   0.000000000000   0.000000000000   0.000000000000  1.00000000000000
kpoint-folding 12 12 1 
latt-move-scale 1 1 1
latt-scale 1 1 1 
lattice  \
	  14.116397090998559   -7.058198545499275    0.000000000000000  \
	  -0.000000000000000   12.225158490713497    0.000000000000000  \
	   0.000000000000000    0.000000000000000   40.000000000000000 
lattice-minimize  \
	dirUpdateScheme      L-BFGS \
	linminMethod         DirUpdateRecommended \
	nIterations          0 \
	history              15 \
	knormThreshold       0 \
	energyDiffThreshold  1e-06 \
	nEnergyDiff          2 \
	alphaTstart          1 \
	alphaTmin            1e-10 \
	updateTestStepSize   yes \
	alphaTreduceFactor   0.1 \
	alphaTincreaseFactor 3 \
	nAlphaAdjustMax      3 \
	wolfeEnergy          0.0001 \
	wolfeGradient        0.9 \
	fdTest               no
lcao-params -1 1e-06 1e-05
pcm-variant GLSSA13
spintype z-spin
subspace-rotation-factor 1 yes
symmetries automatic
symmetry-threshold 0.0001



---------- Setting up symmetries ----------

Found 24 point-group symmetries of the bravais lattice
Found 12 space-group symmetries with basis
Applied RMS atom displacement 2.54347e-15 bohrs to make symmetries exact.

---------- Initializing the Grid ----------
R = 
[      14.1164      -7.0582            0  ]
[            0      12.2252            0  ]
[            0            0           40  ]
unit cell volume = 6903.01
G =
[   0.445098   0.256978         -0  ]
[          0   0.513955         -0  ]
[         -0         -0    0.15708  ]
Minimum fftbox size, Smin = [  60  60  164  ]
Chosen fftbox size, S = [  60  60  168  ]

---------- Exchange Correlation functional ----------
Initalized PBE GGA exchange.
Initalized PBE GGA correlation.

---------- Setting up pseudopotentials ----------
Width of ionic core gaussian charges (only for fluid interactions / plotting) set to 0

Reading pseudopotential file '/home/gridsan/aligho/DFT/build-Nov24/pseudopotentials/SG15/C_ONCV_PBE.upf':
  'C' pseudopotential, 'PBE' functional
  Generated using ONCVPSP code by D. R. Hamann
  Author: Martin Schlipf and Francois Gygi  Date: 150915.
  4 valence electrons, 2 orbitals, 4 projectors, 1248 radial grid points, with lMax = 1
  Transforming local potential to a uniform radial grid of dG=0.02 with 1495 points.
  Transforming nonlocal projectors to a uniform radial grid of dG=0.02 with 432 points.
    2S    l: 0   occupation:  2.0   eigenvalue: -0.505335
    2P    l: 1   occupation:  2.0   eigenvalue: -0.194238
  Transforming atomic orbitals to a uniform radial grid of dG=0.02 with 432 points.
  Core radius for overlap checks: 1.23 bohrs.
  Reading pulay file /home/gridsan/aligho/DFT/build-Nov24/pseudopotentials/SG15/C_ONCV_PBE.pulay ... using dE_dnG = -9.239532e-03 computed for Ecut = 20.

Reading pseudopotential file '/home/gridsan/aligho/DFT/build-Nov24/pseudopotentials/SG15/N_ONCV_PBE.upf':
  'N' pseudopotential, 'PBE' functional
  Generated using ONCVPSP code by D. R. Hamann
  Author: Martin Schlipf and Francois Gygi  Date: 150915.
  5 valence electrons, 2 orbitals, 4 projectors, 1058 radial grid points, with lMax = 1
  Transforming local potential to a uniform radial grid of dG=0.02 with 1495 points.
  Transforming nonlocal projectors to a uniform radial grid of dG=0.02 with 432 points.
    2S    l: 0   occupation:  2.0   eigenvalue: -0.682907
    2P    l: 1   occupation:  3.0   eigenvalue: -0.260548
  Transforming atomic orbitals to a uniform radial grid of dG=0.02 with 432 points.
  Core radius for overlap checks: 1.35 bohrs.
  Reading pulay file /home/gridsan/aligho/DFT/build-Nov24/pseudopotentials/SG15/N_ONCV_PBE.pulay ... using dE_dnG = -2.956256e-02 computed for Ecut = 20.

Reading pseudopotential file '/home/gridsan/aligho/DFT/build-Nov24/pseudopotentials/SG15/B_ONCV_PBE.upf':
  'B' pseudopotential, 'PBE' functional
  Generated using ONCVPSP code by D. R. Hamann
  Author: Martin Schlipf and Francois Gygi  Date: 150915.
  3 valence electrons, 2 orbitals, 4 projectors, 1534 radial grid points, with lMax = 1
  Transforming local potential to a uniform radial grid of dG=0.02 with 1495 points.
  Transforming nonlocal projectors to a uniform radial grid of dG=0.02 with 432 points.
    2S    l: 0   occupation:  2.0   eigenvalue: -0.347027
    2P    l: 1   occupation:  1.0   eigenvalue: -0.132548
  Transforming atomic orbitals to a uniform radial grid of dG=0.02 with 432 points.
  Core radius for overlap checks: 1.60 bohrs.
  Reading pulay file /home/gridsan/aligho/DFT/build-Nov24/pseudopotentials/SG15/B_ONCV_PBE.pulay ... using dE_dnG = -3.748568e-04 computed for Ecut = 20.

Initialized 3 species with 18 total atoms.

Folded 1 k-points by 12x12x1 to 144 k-points.

---------- Setting up k-points, bands, fillings ----------
Adding inversion symmetry to k-mesh for non-inversion-symmetric unit cell.
Reduced to 19 k-points under symmetry. 
Computing the number of bands and number of electrons
Calculating initial fillings.
nElectrons:  73.000000   nBands: 72   nStates: 38

----- Setting up reduced wavefunction bases (one per k-point) -----
average nbasis = 29490.146 , ideal nbasis = 29490.175

---------- Setting up coulomb interaction ----------
Initialized slab truncation along lattice direction 001

---------- Setting up 2D ewald sum ----------
Optimum gaussian width for ewald sums = 7.836854 bohr.
Real space sums over 289 unit cells with max indices [  8  8  0  ]
Reciprocal space sums over 81 terms with max indices [  4  4  0  ]

---------- Allocating electronic variables ----------
Initializing wave functions:  linear combination of atomic orbitals
C pseudo-atom occupations:   s ( 2 )  p ( 2 )
N pseudo-atom occupations:   s ( 2 )  p ( 3 )
B pseudo-atom occupations:   s ( 2 )  p ( 1 )
[d-3-10-4:56435] 37 more processes have sent help message help-mpi-common-cuda.txt / dlopen failed
[d-3-10-4:56435] Set MCA parameter "orte_base_help_aggregate" to 0 to see all help / error messages
[d-3-10-4:56435] 37 more processes have sent help message help-mpi-btl-openib-cpc-base.txt / no cpcs for port
	FillingsUpdate:  mu: -0.191968085  nElectrons: 73.000000  magneticMoment: [ Abs: 0.70645  Tot: -0.68000 ]
LCAOMinimize: Iter:   0  F: -116.5234231291764786  |grad|_K:  4.467e-03  alpha:  1.000e+00
	FillingsUpdate:  mu: -0.218143054  nElectrons: 73.000000  magneticMoment: [ Abs: 0.71278  Tot: -0.68000 ]
LCAOMinimize: Iter:   1  F: -117.1899182117150531  |grad|_K:  9.973e-04  alpha:  4.005e-01  linmin:  1.733e-01  cgtest: -5.965e-01  t[s]:     25.17
	FillingsUpdate:  mu: -0.184025648  nElectrons: 73.000000  magneticMoment: [ Abs: 0.71541  Tot: -0.68000 ]
LCAOMinimize: Iter:   2  F: -117.2048276108829867  |grad|_K:  6.052e-04  alpha:  2.556e-01  linmin:  1.652e-03  cgtest:  7.498e-01  t[s]:     32.80
LCAOMinimize: Encountered beta<0, resetting CG.
	FillingsUpdate:  mu: -0.171256930  nElectrons: 73.000000  magneticMoment: [ Abs: 0.71726  Tot: -0.68000 ]
LCAOMinimize: Iter:   3  F: -117.2176869221610644  |grad|_K:  1.080e-04  alpha:  3.479e-01  linmin:  1.526e-02  cgtest: -7.123e-02  t[s]:     40.46
	FillingsUpdate:  mu: -0.175155255  nElectrons: 73.000000  magneticMoment: [ Abs: 0.71849  Tot: -0.68000 ]
LCAOMinimize: Iter:   4  F: -117.2180982149654369  |grad|_K:  1.377e-05  alpha:  3.532e-01  linmin:  1.134e-02  cgtest:  1.339e-01  t[s]:     48.12
LCAOMinimize: Encountered beta<0, resetting CG.
	FillingsUpdate:  mu: -0.175464788  nElectrons: 73.000000  magneticMoment: [ Abs: 0.71978  Tot: -0.68000 ]
LCAOMinimize: Iter:   5  F: -117.2181092624703780  |grad|_K:  8.992e-06  alpha:  5.752e-01  linmin:  2.259e-05  cgtest:  6.611e-04  t[s]:     55.80
	FillingsUpdate:  mu: -0.175162705  nElectrons: 73.000000  magneticMoment: [ Abs: 0.72137  Tot: -0.68000 ]
LCAOMinimize: Iter:   6  F: -117.2181149555695185  |grad|_K:  3.878e-06  alpha:  6.947e-01  linmin: -2.050e-03  cgtest:  9.064e-03  t[s]:     63.68
	FillingsUpdate:  mu: -0.175279125  nElectrons: 73.000000  magneticMoment: [ Abs: 0.72156  Tot: -0.68000 ]
LCAOMinimize: Iter:   7  F: -117.2181156466232181  |grad|_K:  8.815e-07  alpha:  4.518e-01  linmin:  2.528e-05  cgtest: -1.982e-02  t[s]:     71.35
	FillingsUpdate:  mu: -0.175271537  nElectrons: 73.000000  magneticMoment: [ Abs: 0.72136  Tot: -0.68000 ]
LCAOMinimize: Iter:   8  F: -117.2181157130682578  |grad|_K:  3.569e-07  alpha:  8.441e-01  linmin: -2.169e-03  cgtest:  7.581e-03  t[s]:     78.99
LCAOMinimize: Converged (|Delta F|<1.000000e-06 for 2 iters).


---- Citations for features of the code used in this run ----

   Software package:
      R. Sundararaman, K. Letchworth-Weaver, K.A. Schwarz, D. Gunceler, Y. Ozhabes and T.A. Arias, 'JDFTx: software for joint density-functional theory', SoftwareX 6, 278 (2017)

   gga-PBE exchange-correlation functional:
      J.P. Perdew, K. Burke and M. Ernzerhof, Phys. Rev. Lett. 77, 3865 (1996)

   Pseudopotentials:
      M Schlipf and F Gygi, Comput. Phys. Commun. 196, 36 (2015)

   Truncated Coulomb potentials:
      R. Sundararaman and T.A. Arias, Phys. Rev. B 87, 165122 (2013)

This list may not be complete. Please suggest additional citations or
report any other bugs at https://github.com/shankar1729/jdftx/issues

Initialization completed successfully at t[s]:     79.78


-------- Electronic minimization -----------
Will mix electronic density at each iteration.
	FillingsUpdate:  mu: -0.175271537  nElectrons: 73.000000  magneticMoment: [ Abs: 0.72136  Tot: -0.68000 ]
	FillingsUpdate:  mu: -0.190520828  nElectrons: 73.000000  magneticMoment: [ Abs: 0.72136  Tot: -0.68000 ]
SCF: Cycle:  0   F: -118.144696921914118   dF: -9.266e-01   |Residual|: 3.369e-01   |deigs|: 1.138e-01  t[s]:    100.59
	FillingsUpdate:  mu: -0.169171394  nElectrons: 73.000000  magneticMoment: [ Abs: 0.75627  Tot: -0.68000 ]
SCF: Cycle:  1   F: -118.183766762970123   dF: -3.907e-02   |Residual|: 1.878e-01   |deigs|: 2.529e-02  t[s]:    116.29
	FillingsUpdate:  mu: -0.140337118  nElectrons: 73.000000  magneticMoment: [ Abs: 0.77100  Tot: -0.68000 ]
SCF: Cycle:  2   F: -118.209453193254916   dF: -2.569e-02   |Residual|: 4.094e-02   |deigs|: 2.995e-02  t[s]:    132.11
	FillingsUpdate:  mu: -0.137018312  nElectrons: 73.000000  magneticMoment: [ Abs: 0.77311  Tot: -0.68000 ]
SCF: Cycle:  3   F: -118.210248608643468   dF: -7.954e-04   |Residual|: 2.285e-02   |deigs|: 7.790e-03  t[s]:    147.79
	FillingsUpdate:  mu: -0.125796723  nElectrons: 73.000000  magneticMoment: [ Abs: 0.76018  Tot: -0.68000 ]
SCF: Cycle:  4   F: -118.211650757472327   dF: -1.402e-03   |Residual|: 1.222e-02   |deigs|: 1.010e-02  t[s]:    163.63
	FillingsUpdate:  mu: -0.120821622  nElectrons: 73.000000  magneticMoment: [ Abs: 0.76676  Tot: -0.68000 ]
SCF: Cycle:  5   F: -118.211985699982748   dF: -3.349e-04   |Residual|: 9.382e-03   |deigs|: 4.316e-03  t[s]:    179.49
	FillingsUpdate:  mu: -0.114649473  nElectrons: 73.000000  magneticMoment: [ Abs: 0.76295  Tot: -0.68000 ]
SCF: Cycle:  6   F: -118.212099788430365   dF: -1.141e-04   |Residual|: 5.996e-03   |deigs|: 5.570e-03  t[s]:    195.55
	FillingsUpdate:  mu: -0.110075423  nElectrons: 73.000000  magneticMoment: [ Abs: 0.76101  Tot: -0.68000 ]
SCF: Cycle:  7   F: -118.212076970772600   dF: +2.282e-05   |Residual|: 4.847e-03   |deigs|: 5.782e-03  t[s]:    211.46
	FillingsUpdate:  mu: -0.105799192  nElectrons: 73.000000  magneticMoment: [ Abs: 0.76295  Tot: -0.68000 ]
SCF: Cycle:  8   F: -118.212140939830434   dF: -6.397e-05   |Residual|: 3.955e-03   |deigs|: 4.300e-03  t[s]:    227.55
	FillingsUpdate:  mu: -0.102836069  nElectrons: 73.000000  magneticMoment: [ Abs: 0.76024  Tot: -0.68000 ]
SCF: Cycle:  9   F: -118.212186657085127   dF: -4.572e-05   |Residual|: 3.047e-03   |deigs|: 3.129e-03  t[s]:    243.73
	FillingsUpdate:  mu: -0.100628238  nElectrons: 73.000000  magneticMoment: [ Abs: 0.76102  Tot: -0.68000 ]
SCF: Cycle: 10   F: -118.212211827056592   dF: -2.517e-05   |Residual|: 2.644e-03   |deigs|: 2.321e-03  t[s]:    259.89
	FillingsUpdate:  mu: -0.097553171  nElectrons: 73.000000  magneticMoment: [ Abs: 0.76150  Tot: -0.68000 ]
SCF: Cycle: 11   F: -118.212229315042563   dF: -1.749e-05   |Residual|: 2.143e-03   |deigs|: 2.909e-03  t[s]:    275.97
	FillingsUpdate:  mu: -0.095184346  nElectrons: 73.000000  magneticMoment: [ Abs: 0.76037  Tot: -0.68000 ]
SCF: Cycle: 12   F: -118.212235746495566   dF: -6.431e-06   |Residual|: 1.959e-03   |deigs|: 2.185e-03  t[s]:    292.28
	FillingsUpdate:  mu: -0.091664768  nElectrons: 73.000000  magneticMoment: [ Abs: 0.76161  Tot: -0.68000 ]
SCF: Cycle: 13   F: -118.212238807631067   dF: -3.061e-06   |Residual|: 1.678e-03   |deigs|: 3.356e-03  t[s]:    308.46
	FillingsUpdate:  mu: -0.088045009  nElectrons: 73.000000  magneticMoment: [ Abs: 0.75989  Tot: -0.68000 ]
SCF: Cycle: 14   F: -118.212238037592826   dF: +7.700e-07   |Residual|: 1.658e-03   |deigs|: 3.184e-03  t[s]:    324.72
	FillingsUpdate:  mu: -0.084165413  nElectrons: 73.000000  magneticMoment: [ Abs: 0.76122  Tot: -0.68000 ]
SCF: Cycle: 15   F: -118.212238753273098   dF: -7.157e-07   |Residual|: 1.466e-03   |deigs|: 3.528e-03  t[s]:    340.95
	FillingsUpdate:  mu: -0.080334141  nElectrons: 73.000000  magneticMoment: [ Abs: 0.76125  Tot: -0.68000 ]
SCF: Cycle: 16   F: -118.212241671087710   dF: -2.918e-06   |Residual|: 1.196e-03   |deigs|: 3.586e-03  t[s]:    357.17
	FillingsUpdate:  mu: -0.078334474  nElectrons: 73.000000  magneticMoment: [ Abs: 0.75974  Tot: -0.68000 ]
SCF: Cycle: 17   F: -118.212246801556304   dF: -5.130e-06   |Residual|: 9.140e-04   |deigs|: 1.748e-03  t[s]:    373.34
	FillingsUpdate:  mu: -0.077211586  nElectrons: 73.000000  magneticMoment: [ Abs: 0.75948  Tot: -0.68000 ]
SCF: Cycle: 18   F: -118.212249650394043   dF: -2.849e-06   |Residual|: 5.761e-04   |deigs|: 1.213e-03  t[s]:    389.54
	FillingsUpdate:  mu: -0.076718563  nElectrons: 73.000000  magneticMoment: [ Abs: 0.75930  Tot: -0.68000 ]
SCF: Cycle: 19   F: -118.212250395890862   dF: -7.455e-07   |Residual|: 3.595e-04   |deigs|: 4.974e-04  t[s]:    405.69
	FillingsUpdate:  mu: -0.076396953  nElectrons: 73.000000  magneticMoment: [ Abs: 0.75936  Tot: -0.68000 ]
SCF: Cycle: 20   F: -118.212250765472518   dF: -3.696e-07   |Residual|: 2.293e-04   |deigs|: 5.718e-04  t[s]:    421.78
	FillingsUpdate:  mu: -0.076185360  nElectrons: 73.000000  magneticMoment: [ Abs: 0.75919  Tot: -0.68000 ]
SCF: Cycle: 21   F: -118.212250967599928   dF: -2.021e-07   |Residual|: 1.452e-04   |deigs|: 3.856e-04  t[s]:    437.92
	FillingsUpdate:  mu: -0.075998195  nElectrons: 73.000000  magneticMoment: [ Abs: 0.75905  Tot: -0.68000 ]
SCF: Cycle: 22   F: -118.212251074930165   dF: -1.073e-07   |Residual|: 7.523e-05   |deigs|: 8.443e-04  t[s]:    453.99
	FillingsUpdate:  mu: -0.075930051  nElectrons: 73.000000  magneticMoment: [ Abs: 0.75897  Tot: -0.68000 ]
SCF: Cycle: 23   F: -118.212251102457969   dF: -2.753e-08   |Residual|: 5.266e-05   |deigs|: 1.629e-04  t[s]:    470.30
	FillingsUpdate:  mu: -0.075880252  nElectrons: 73.000000  magneticMoment: [ Abs: 0.75894  Tot: -0.68000 ]
SCF: Cycle: 24   F: -118.212251116995958   dF: -1.454e-08   |Residual|: 3.057e-05   |deigs|: 2.164e-04  t[s]:    486.62
	FillingsUpdate:  mu: -0.075856350  nElectrons: 73.000000  magneticMoment: [ Abs: 0.75892  Tot: -0.68000 ]
SCF: Cycle: 25   F: -118.212251122270942   dF: -5.275e-09   |Residual|: 1.827e-05   |deigs|: 2.917e-04  t[s]:    502.77
	FillingsUpdate:  mu: -0.075847641  nElectrons: 73.000000  magneticMoment: [ Abs: 0.75890  Tot: -0.68000 ]
SCF: Cycle: 26   F: -118.212251124237440   dF: -1.966e-09   |Residual|: 1.087e-05   |deigs|: 1.331e-04  t[s]:    518.99
SCF: Converged (|Delta E|<1.000000e-08 for 2 iters).


# Ionic positions in lattice coordinates:
ion C  -0.000000000000000   0.000000000000000   0.000000000000000 1
ion N   0.108900118656067   0.217800237312134   0.000000000000000 1
ion N   0.111440932313158   0.555720466156579   0.000000000000000 1
ion N   0.108900118656067   0.891099881343933   0.000000000000000 1
ion N   0.444600551142632   0.222300275571316   0.000000000000000 1
ion N   0.444279533843421   0.555720466156579   0.000000000000000 1
ion N   0.444279533843421   0.888559067686842   0.000000000000000 1
ion N   0.777699724428684   0.222300275571316   0.000000000000000 1
ion N   0.777699724428684   0.555399448857368   0.000000000000000 1
ion N   0.782199762687866   0.891099881343933   0.000000000000000 1
ion B  -0.000409163333578   0.332352225367090   0.000000000000000 1
ion B  -0.000409163333578   0.667238611299332   0.000000000000000 1
ion B   0.332761388700668   0.000409163333578   0.000000000000000 1
ion B   0.332761388700668   0.332352225367090   0.000000000000000 1
ion B   0.333333333333333   0.666666666666667   0.000000000000000 1
ion B   0.667647774632910   0.000409163333578   0.000000000000000 1
ion B   0.666666666666667   0.333333333333333   0.000000000000000 1
ion B   0.667647774632910   0.667238611299332   0.000000000000000 1

# Forces in Lattice coordinates:
force C   0.000000000000000   0.000000000000000   0.000000000000000 1
force N   0.000000000000000  -0.059792291647402   0.000000000000000 1
force N   0.007345545030299   0.000000000000000   0.000000000000000 1
force N  -0.059792291647402   0.059792291647404   0.000000000000000 1
force N  -0.008310547636222   0.000000000000000   0.000000000000000 1
force N  -0.007345545030299   0.007345545030299   0.000000000000000 1
force N   0.000000000000000  -0.007345545030299  -0.000000000000000 1
force N   0.008310547636223  -0.008310547636223   0.000000000000000 1
force N   0.000000000000000   0.008310547636223  -0.000000000000000 1
force N   0.059792291647403   0.000000000000000   0.000000000000000 1
force B  -0.022910237103567   0.016775924082186   0.000000000000000 1
force B  -0.006134313021381  -0.016775924082187  -0.000000000000000 1
force B   0.016775924082187   0.006134313021380   0.000000000000000 1
force B   0.022910237103567  -0.006134313021380   0.000000000000000 1
force B  -0.000000000000000   0.000000000000000   0.000000000000000 1
force B  -0.016775924082187   0.022910237103567   0.000000000000000 1
force B  -0.000000000000000   0.000000000000000   0.000000000000000 1
force B   0.006134313021381  -0.022910237103567   0.000000000000000 1

# Energy components:
   Eewald =     -185.5884594997991428
       EH =      -93.0255063388155321
     Eloc =      115.4572628573496473
      Enl =       -5.2765521529344888
   Epulay =       -0.0000011688465181
      Exc =      -33.7524596596248614
       KE =       83.9734657471456387
-------------------------------------
     Etot =     -118.2122502155252732
       TS =        0.0000009087121611
-------------------------------------
        F =     -118.2122511242374401

IonicMinimize: Iter:   0  F: -118.212251124237440  |grad|_K:  1.299e-03  t[s]:    520.47
IonicMinimize: None of the convergence criteria satisfied after 0 iterations.

#--- Lowdin population analysis ---
# oxidation-state C +0.271
# magnetic-moments C -0.401
# oxidation-state N -0.265 -0.372 -0.265 -0.376 -0.372 -0.372 -0.376 -0.376 -0.265
# magnetic-moments N -0.004 +0.002 -0.004 -0.017 +0.002 +0.002 -0.017 -0.017 -0.004
# oxidation-state B +0.430 +0.430 +0.430 +0.430 +0.430 +0.430 +0.426 +0.430
# magnetic-moments B -0.031 -0.031 -0.031 -0.031 -0.008 -0.031 -0.011 -0.031

End date and time: Sun Feb  6 19:24:09 2022  (Duration: 0-0:08:40.83)
Done!
