magnetization is -0.62
--------------------------------------------------------------------------
The library attempted to open the following supporting CUDA libraries,
but each of them failed.  CUDA-aware support is disabled.
libcuda.so.1: cannot open shared object file: No such file or directory
libcuda.dylib: cannot open shared object file: No such file or directory
/usr/lib64/libcuda.so.1: cannot open shared object file: No such file or directory
/usr/lib64/libcuda.dylib: cannot open shared object file: No such file or directory
If you are not interested in CUDA-aware support, then run with
--mca opal_warn_on_missing_libcuda 0 to suppress this message.  If you are interested
in CUDA-aware support, then try setting LD_LIBRARY_PATH to the location
of libcuda.so.1 to get passed this issue.
--------------------------------------------------------------------------
--------------------------------------------------------------------------
No OpenFabrics connection schemes reported that they were able to be
used on a specific port.  As such, the openib BTL (OpenFabrics
support) will be disabled for this port.

  Local host:           d-16-6-4
  Local device:         mlx5_1
  Local port:           1
  CPCs attempted:       rdmacm, udcm
--------------------------------------------------------------------------

*************** JDFTx 1.6.0 (git hash 42ebbcc2) ***************

Start date and time: Sun Feb  6 19:15:29 2022
Executable jdftx with command-line: -i BN33BC.in
Running on hosts (process indices):  d-16-6-4 (0-37)
Divided in process groups (process indices):  0 (0)  1 (1)  2 (2)  3 (3)  4 (4)  5 (5)  6 (6)  7 (7)  8 (8)  9 (9)  10 (10)  11 (11)  12 (12)  13 (13)  14 (14)  15 (15)  16 (16)  17 (17)  18 (18)  19 (19)  20 (20)  21 (21)  22 (22)  23 (23)  24 (24)  25 (25)  26 (26)  27 (27)  28 (28)  29 (29)  30 (30)  31 (31)  32 (32)  33 (33)  34 (34)  35 (35)  36 (36)  37 (37)
Resource initialization completed at t[s]:      0.00
Run totals: 38 processes, 48 threads, 0 GPUs


Input parsed successfully to the following command list (including defaults):

basis kpoint-dependent
coords-type Lattice
core-overlap-check vector
coulomb-interaction Slab 001
davidson-band-ratio 1.1
dump End None
dump-name $INPUT.$VAR
elec-cutoff 20
elec-eigen-algo Davidson
elec-ex-corr gga-PBE
elec-initial-magnetization -0.620000 yes
elec-smearing Fermi 1e-05
electronic-minimize  \
	dirUpdateScheme      FletcherReeves \
	linminMethod         DirUpdateRecommended \
	nIterations          100 \
	history              15 \
	knormThreshold       0 \
	energyDiffThreshold  1e-08 \
	nEnergyDiff          2 \
	alphaTstart          1 \
	alphaTmin            1e-10 \
	updateTestStepSize   yes \
	alphaTreduceFactor   0.1 \
	alphaTincreaseFactor 3 \
	nAlphaAdjustMax      3 \
	wolfeEnergy          0.0001 \
	wolfeGradient        0.9 \
	fdTest               no
electronic-scf  \
	nIterations	1000 \
	energyDiffThreshold	1e-08 \
	residualThreshold	1e-07 \
	mixFraction	0.5 \
	qMetric	0.8 \
	history	10 \
	nEigSteps	2 \
	eigDiffThreshold	1e-08 \
	mixedVariable	Density \
	qKerker	0.8 \
	qKappa	-1 \
	verbose	no \
	mixFractionMag	1.5
exchange-regularization WignerSeitzTruncated
fluid None
fluid-ex-corr (null) lda-PZ
fluid-gummel-loop 10 1.000000e-05
fluid-minimize  \
	dirUpdateScheme      PolakRibiere \
	linminMethod         DirUpdateRecommended \
	nIterations          100 \
	history              15 \
	knormThreshold       0 \
	energyDiffThreshold  0 \
	nEnergyDiff          2 \
	alphaTstart          1 \
	alphaTmin            1e-10 \
	updateTestStepSize   yes \
	alphaTreduceFactor   0.1 \
	alphaTincreaseFactor 3 \
	nAlphaAdjustMax      3 \
	wolfeEnergy          0.0001 \
	wolfeGradient        0.9 \
	fdTest               no
fluid-solvent H2O 55.338 ScalarEOS \
	epsBulk 78.4 \
	pMol 0.92466 \
	epsInf 1.77 \
	Pvap 1.06736e-10 \
	sigmaBulk 4.62e-05 \
	Rvdw 2.61727 \
	Res 1.42 \
	tauNuc 343133 \
	poleEl 15 7 1
forces-output-coords Positions
ion C   0.000000000000000  -0.000000000000000   0.000000000000000 1
ion N   0.108900118656067   0.217800237312134   0.000000000000000 1
ion N   0.111440932313158   0.555720466156579   0.000000000000000 1
ion N   0.108900118656067   0.891099881343933   0.000000000000000 1
ion N   0.444600551142632   0.222300275571316   0.000000000000000 1
ion N   0.444279533843421   0.555720466156579   0.000000000000000 1
ion N   0.444279533843421   0.888559067686842   0.000000000000000 1
ion N   0.777699724428684   0.222300275571316   0.000000000000000 1
ion N   0.777699724428684   0.555399448857368   0.000000000000000 1
ion N   0.782199762687866   0.891099881343933   0.000000000000000 1
ion B  -0.000409163333578   0.332352225367090  -0.000000000000000 1
ion B  -0.000409163333578   0.667238611299332  -0.000000000000000 1
ion B   0.332761388700668   0.000409163333578   0.000000000000000 1
ion B   0.332761388700668   0.332352225367090  -0.000000000000000 1
ion B   0.333333333333333   0.666666666666667   0.000000000000000 1
ion B   0.667647774632910   0.000409163333578   0.000000000000000 1
ion B   0.666666666666667   0.333333333333333   0.000000000000000 1
ion B   0.667647774632910   0.667238611299332   0.000000000000000 1
ion-species SG15/$ID_ONCV_PBE.upf
ion-width 0
ionic-minimize  \
	dirUpdateScheme      L-BFGS \
	linminMethod         DirUpdateRecommended \
	nIterations          0 \
	history              15 \
	knormThreshold       0.0001 \
	energyDiffThreshold  1e-06 \
	nEnergyDiff          2 \
	alphaTstart          1 \
	alphaTmin            1e-10 \
	updateTestStepSize   yes \
	alphaTreduceFactor   0.1 \
	alphaTincreaseFactor 3 \
	nAlphaAdjustMax      3 \
	wolfeEnergy          0.0001 \
	wolfeGradient        0.9 \
	fdTest               no
kpoint   0.000000000000   0.000000000000   0.000000000000  1.00000000000000
kpoint-folding 12 12 1 
latt-move-scale 1 1 1
latt-scale 1 1 1 
lattice  \
	  14.116397090998559   -7.058198545499275    0.000000000000000  \
	  -0.000000000000000   12.225158490713497    0.000000000000000  \
	   0.000000000000000    0.000000000000000   40.000000000000000 
lattice-minimize  \
	dirUpdateScheme      L-BFGS \
	linminMethod         DirUpdateRecommended \
	nIterations          0 \
	history              15 \
	knormThreshold       0 \
	energyDiffThreshold  1e-06 \
	nEnergyDiff          2 \
	alphaTstart          1 \
	alphaTmin            1e-10 \
	updateTestStepSize   yes \
	alphaTreduceFactor   0.1 \
	alphaTincreaseFactor 3 \
	nAlphaAdjustMax      3 \
	wolfeEnergy          0.0001 \
	wolfeGradient        0.9 \
	fdTest               no
lcao-params -1 1e-06 1e-05
pcm-variant GLSSA13
spintype z-spin
subspace-rotation-factor 1 yes
symmetries automatic
symmetry-threshold 0.0001



---------- Setting up symmetries ----------

Found 24 point-group symmetries of the bravais lattice
Found 12 space-group symmetries with basis
Applied RMS atom displacement 2.54347e-15 bohrs to make symmetries exact.

---------- Initializing the Grid ----------
R = 
[      14.1164      -7.0582            0  ]
[            0      12.2252            0  ]
[            0            0           40  ]
unit cell volume = 6903.01
G =
[   0.445098   0.256978         -0  ]
[          0   0.513955         -0  ]
[         -0         -0    0.15708  ]
Minimum fftbox size, Smin = [  60  60  164  ]
Chosen fftbox size, S = [  60  60  168  ]

---------- Exchange Correlation functional ----------
Initalized PBE GGA exchange.
Initalized PBE GGA correlation.

---------- Setting up pseudopotentials ----------
Width of ionic core gaussian charges (only for fluid interactions / plotting) set to 0

Reading pseudopotential file '/home/gridsan/aligho/DFT/build-Nov24/pseudopotentials/SG15/C_ONCV_PBE.upf':
  'C' pseudopotential, 'PBE' functional
  Generated using ONCVPSP code by D. R. Hamann
  Author: Martin Schlipf and Francois Gygi  Date: 150915.
  4 valence electrons, 2 orbitals, 4 projectors, 1248 radial grid points, with lMax = 1
  Transforming local potential to a uniform radial grid of dG=0.02 with 1495 points.
  Transforming nonlocal projectors to a uniform radial grid of dG=0.02 with 432 points.
    2S    l: 0   occupation:  2.0   eigenvalue: -0.505335
    2P    l: 1   occupation:  2.0   eigenvalue: -0.194238
  Transforming atomic orbitals to a uniform radial grid of dG=0.02 with 432 points.
  Core radius for overlap checks: 1.23 bohrs.
  Reading pulay file /home/gridsan/aligho/DFT/build-Nov24/pseudopotentials/SG15/C_ONCV_PBE.pulay ... using dE_dnG = -9.239532e-03 computed for Ecut = 20.

Reading pseudopotential file '/home/gridsan/aligho/DFT/build-Nov24/pseudopotentials/SG15/N_ONCV_PBE.upf':
  'N' pseudopotential, 'PBE' functional
  Generated using ONCVPSP code by D. R. Hamann
  Author: Martin Schlipf and Francois Gygi  Date: 150915.
  5 valence electrons, 2 orbitals, 4 projectors, 1058 radial grid points, with lMax = 1
  Transforming local potential to a uniform radial grid of dG=0.02 with 1495 points.
  Transforming nonlocal projectors to a uniform radial grid of dG=0.02 with 432 points.
    2S    l: 0   occupation:  2.0   eigenvalue: -0.682907
    2P    l: 1   occupation:  3.0   eigenvalue: -0.260548
  Transforming atomic orbitals to a uniform radial grid of dG=0.02 with 432 points.
  Core radius for overlap checks: 1.35 bohrs.
  Reading pulay file /home/gridsan/aligho/DFT/build-Nov24/pseudopotentials/SG15/N_ONCV_PBE.pulay ... using dE_dnG = -2.956256e-02 computed for Ecut = 20.

Reading pseudopotential file '/home/gridsan/aligho/DFT/build-Nov24/pseudopotentials/SG15/B_ONCV_PBE.upf':
  'B' pseudopotential, 'PBE' functional
  Generated using ONCVPSP code by D. R. Hamann
  Author: Martin Schlipf and Francois Gygi  Date: 150915.
  3 valence electrons, 2 orbitals, 4 projectors, 1534 radial grid points, with lMax = 1
  Transforming local potential to a uniform radial grid of dG=0.02 with 1495 points.
  Transforming nonlocal projectors to a uniform radial grid of dG=0.02 with 432 points.
    2S    l: 0   occupation:  2.0   eigenvalue: -0.347027
    2P    l: 1   occupation:  1.0   eigenvalue: -0.132548
  Transforming atomic orbitals to a uniform radial grid of dG=0.02 with 432 points.
  Core radius for overlap checks: 1.60 bohrs.
  Reading pulay file /home/gridsan/aligho/DFT/build-Nov24/pseudopotentials/SG15/B_ONCV_PBE.pulay ... using dE_dnG = -3.748568e-04 computed for Ecut = 20.

Initialized 3 species with 18 total atoms.

Folded 1 k-points by 12x12x1 to 144 k-points.

---------- Setting up k-points, bands, fillings ----------
Adding inversion symmetry to k-mesh for non-inversion-symmetric unit cell.
Reduced to 19 k-points under symmetry. 
Computing the number of bands and number of electrons
Calculating initial fillings.
nElectrons:  73.000000   nBands: 72   nStates: 38

----- Setting up reduced wavefunction bases (one per k-point) -----
average nbasis = 29490.146 , ideal nbasis = 29490.175

---------- Setting up coulomb interaction ----------
Initialized slab truncation along lattice direction 001

---------- Setting up 2D ewald sum ----------
Optimum gaussian width for ewald sums = 7.836854 bohr.
Real space sums over 289 unit cells with max indices [  8  8  0  ]
Reciprocal space sums over 81 terms with max indices [  4  4  0  ]

---------- Allocating electronic variables ----------
Initializing wave functions:  linear combination of atomic orbitals
C pseudo-atom occupations:   s ( 2 )  p ( 2 )
N pseudo-atom occupations:   s ( 2 )  p ( 3 )
B pseudo-atom occupations:   s ( 2 )  p ( 1 )
[d-16-6-4:21339] 37 more processes have sent help message help-mpi-common-cuda.txt / dlopen failed
[d-16-6-4:21339] Set MCA parameter "orte_base_help_aggregate" to 0 to see all help / error messages
[d-16-6-4:21339] 37 more processes have sent help message help-mpi-btl-openib-cpc-base.txt / no cpcs for port
	FillingsUpdate:  mu: -0.192103423  nElectrons: 73.000000  magneticMoment: [ Abs: 0.64406  Tot: -0.62000 ]
LCAOMinimize: Iter:   0  F: -116.5207289969817310  |grad|_K:  4.474e-03  alpha:  1.000e+00
	FillingsUpdate:  mu: -0.219647529  nElectrons: 73.000000  magneticMoment: [ Abs: 0.64934  Tot: -0.62000 ]
LCAOMinimize: Iter:   1  F: -117.1886888089828176  |grad|_K:  1.012e-03  alpha:  4.004e-01  linmin:  1.708e-01  cgtest: -5.952e-01  t[s]:     25.32
	FillingsUpdate:  mu: -0.184674421  nElectrons: 73.000000  magneticMoment: [ Abs: 0.65220  Tot: -0.62000 ]
LCAOMinimize: Iter:   2  F: -117.2039544667120339  |grad|_K:  6.139e-04  alpha:  2.544e-01  linmin:  2.528e-03  cgtest:  7.506e-01  t[s]:     33.00
LCAOMinimize: Encountered beta<0, resetting CG.
	FillingsUpdate:  mu: -0.171407481  nElectrons: 73.000000  magneticMoment: [ Abs: 0.65377  Tot: -0.62000 ]
LCAOMinimize: Iter:   3  F: -117.2171482837190268  |grad|_K:  1.106e-04  alpha:  3.469e-01  linmin:  1.506e-02  cgtest: -7.275e-02  t[s]:     40.63
	FillingsUpdate:  mu: -0.175463389  nElectrons: 73.000000  magneticMoment: [ Abs: 0.65474  Tot: -0.62000 ]
LCAOMinimize: Iter:   4  F: -117.2175781246630493  |grad|_K:  1.386e-05  alpha:  3.519e-01  linmin:  1.140e-02  cgtest:  1.412e-01  t[s]:     48.25
LCAOMinimize: Encountered beta<0, resetting CG.
	FillingsUpdate:  mu: -0.175790334  nElectrons: 73.000000  magneticMoment: [ Abs: 0.65570  Tot: -0.62000 ]
LCAOMinimize: Iter:   5  F: -117.2175887628133921  |grad|_K:  8.799e-06  alpha:  5.472e-01  linmin:  9.869e-05  cgtest: -6.759e-05  t[s]:     55.89
	FillingsUpdate:  mu: -0.175485516  nElectrons: 73.000000  magneticMoment: [ Abs: 0.65710  Tot: -0.62000 ]
LCAOMinimize: Iter:   6  F: -117.2175944009108406  |grad|_K:  3.987e-06  alpha:  7.184e-01  linmin: -2.112e-03  cgtest:  1.142e-02  t[s]:     63.65
	FillingsUpdate:  mu: -0.175607683  nElectrons: 73.000000  magneticMoment: [ Abs: 0.65728  Tot: -0.62000 ]
LCAOMinimize: Iter:   7  F: -117.2175951429831287  |grad|_K:  9.115e-07  alpha:  4.588e-01  linmin:  8.386e-05  cgtest: -2.179e-02  t[s]:     71.31
	FillingsUpdate:  mu: -0.175599525  nElectrons: 73.000000  magneticMoment: [ Abs: 0.65707  Tot: -0.62000 ]
LCAOMinimize: Iter:   8  F: -117.2175952129664438  |grad|_K:  3.990e-07  alpha:  8.331e-01  linmin:  9.933e-04  cgtest: -1.631e-03  t[s]:     78.94
LCAOMinimize: Converged (|Delta F|<1.000000e-06 for 2 iters).


---- Citations for features of the code used in this run ----

   Software package:
      R. Sundararaman, K. Letchworth-Weaver, K.A. Schwarz, D. Gunceler, Y. Ozhabes and T.A. Arias, 'JDFTx: software for joint density-functional theory', SoftwareX 6, 278 (2017)

   gga-PBE exchange-correlation functional:
      J.P. Perdew, K. Burke and M. Ernzerhof, Phys. Rev. Lett. 77, 3865 (1996)

   Pseudopotentials:
      M Schlipf and F Gygi, Comput. Phys. Commun. 196, 36 (2015)

   Truncated Coulomb potentials:
      R. Sundararaman and T.A. Arias, Phys. Rev. B 87, 165122 (2013)

This list may not be complete. Please suggest additional citations or
report any other bugs at https://github.com/shankar1729/jdftx/issues

Initialization completed successfully at t[s]:     79.71


-------- Electronic minimization -----------
Will mix electronic density at each iteration.
	FillingsUpdate:  mu: -0.175599525  nElectrons: 73.000000  magneticMoment: [ Abs: 0.65707  Tot: -0.62000 ]
	FillingsUpdate:  mu: -0.190865020  nElectrons: 73.000000  magneticMoment: [ Abs: 0.65707  Tot: -0.62000 ]
SCF: Cycle:  0   F: -118.143976691100491   dF: -9.264e-01   |Residual|: 3.369e-01   |deigs|: 1.138e-01  t[s]:    100.53
	FillingsUpdate:  mu: -0.169577550  nElectrons: 73.000000  magneticMoment: [ Abs: 0.68871  Tot: -0.62000 ]
SCF: Cycle:  1   F: -118.183079572832568   dF: -3.910e-02   |Residual|: 1.878e-01   |deigs|: 2.532e-02  t[s]:    116.34
	FillingsUpdate:  mu: -0.140815820  nElectrons: 73.000000  magneticMoment: [ Abs: 0.70342  Tot: -0.62000 ]
SCF: Cycle:  2   F: -118.208817313090336   dF: -2.574e-02   |Residual|: 4.093e-02   |deigs|: 2.996e-02  t[s]:    132.07
	FillingsUpdate:  mu: -0.137472344  nElectrons: 73.000000  magneticMoment: [ Abs: 0.70447  Tot: -0.62000 ]
SCF: Cycle:  3   F: -118.209606367016733   dF: -7.891e-04   |Residual|: 2.286e-02   |deigs|: 7.813e-03  t[s]:    147.73
	FillingsUpdate:  mu: -0.126091647  nElectrons: 73.000000  magneticMoment: [ Abs: 0.69287  Tot: -0.62000 ]
SCF: Cycle:  4   F: -118.211019158483793   dF: -1.413e-03   |Residual|: 1.220e-02   |deigs|: 1.020e-02  t[s]:    163.69
	FillingsUpdate:  mu: -0.121187669  nElectrons: 73.000000  magneticMoment: [ Abs: 0.70036  Tot: -0.62000 ]
SCF: Cycle:  5   F: -118.211344311828512   dF: -3.252e-04   |Residual|: 9.302e-03   |deigs|: 4.245e-03  t[s]:    179.53
	FillingsUpdate:  mu: -0.114958292  nElectrons: 73.000000  magneticMoment: [ Abs: 0.69562  Tot: -0.62000 ]
SCF: Cycle:  6   F: -118.211457172320152   dF: -1.129e-04   |Residual|: 5.939e-03   |deigs|: 5.661e-03  t[s]:    195.52
	FillingsUpdate:  mu: -0.110457323  nElectrons: 73.000000  magneticMoment: [ Abs: 0.69367  Tot: -0.62000 ]
SCF: Cycle:  7   F: -118.211434647368094   dF: +2.252e-05   |Residual|: 4.841e-03   |deigs|: 5.669e-03  t[s]:    211.50
	FillingsUpdate:  mu: -0.106043325  nElectrons: 73.000000  magneticMoment: [ Abs: 0.69555  Tot: -0.62000 ]
SCF: Cycle:  8   F: -118.211500643457384   dF: -6.600e-05   |Residual|: 3.918e-03   |deigs|: 4.462e-03  t[s]:    227.61
	FillingsUpdate:  mu: -0.103238742  nElectrons: 73.000000  magneticMoment: [ Abs: 0.69299  Tot: -0.62000 ]
SCF: Cycle:  9   F: -118.211544056943808   dF: -4.341e-05   |Residual|: 3.040e-03   |deigs|: 2.948e-03  t[s]:    243.80
	FillingsUpdate:  mu: -0.100960883  nElectrons: 73.000000  magneticMoment: [ Abs: 0.69390  Tot: -0.62000 ]
SCF: Cycle: 10   F: -118.211569872645669   dF: -2.582e-05   |Residual|: 2.649e-03   |deigs|: 2.375e-03  t[s]:    260.08
	FillingsUpdate:  mu: -0.097896888  nElectrons: 73.000000  magneticMoment: [ Abs: 0.69408  Tot: -0.62000 ]
SCF: Cycle: 11   F: -118.211586809141124   dF: -1.694e-05   |Residual|: 2.150e-03   |deigs|: 2.917e-03  t[s]:    276.21
	FillingsUpdate:  mu: -0.095537689  nElectrons: 73.000000  magneticMoment: [ Abs: 0.69295  Tot: -0.62000 ]
SCF: Cycle: 12   F: -118.211593183156339   dF: -6.374e-06   |Residual|: 1.953e-03   |deigs|: 2.162e-03  t[s]:    292.46
	FillingsUpdate:  mu: -0.091896439  nElectrons: 73.000000  magneticMoment: [ Abs: 0.69424  Tot: -0.62000 ]
SCF: Cycle: 13   F: -118.211596122483627   dF: -2.939e-06   |Residual|: 1.671e-03   |deigs|: 3.474e-03  t[s]:    308.75
	FillingsUpdate:  mu: -0.088375585  nElectrons: 73.000000  magneticMoment: [ Abs: 0.69233  Tot: -0.62000 ]
SCF: Cycle: 14   F: -118.211595280998196   dF: +8.415e-07   |Residual|: 1.662e-03   |deigs|: 3.078e-03  t[s]:    325.00
	FillingsUpdate:  mu: -0.084318318  nElectrons: 73.000000  magneticMoment: [ Abs: 0.69398  Tot: -0.62000 ]
SCF: Cycle: 15   F: -118.211595831367688   dF: -5.504e-07   |Residual|: 1.450e-03   |deigs|: 3.726e-03  t[s]:    341.23
	FillingsUpdate:  mu: -0.080568094  nElectrons: 73.000000  magneticMoment: [ Abs: 0.69376  Tot: -0.62000 ]
SCF: Cycle: 16   F: -118.211599247664708   dF: -3.416e-06   |Residual|: 1.190e-03   |deigs|: 3.509e-03  t[s]:    357.47
	FillingsUpdate:  mu: -0.078658719  nElectrons: 73.000000  magneticMoment: [ Abs: 0.69242  Tot: -0.62000 ]
SCF: Cycle: 17   F: -118.211604335335352   dF: -5.088e-06   |Residual|: 9.024e-04   |deigs|: 1.659e-03  t[s]:    373.70
	FillingsUpdate:  mu: -0.077618392  nElectrons: 73.000000  magneticMoment: [ Abs: 0.69215  Tot: -0.62000 ]
SCF: Cycle: 18   F: -118.211606969027684   dF: -2.634e-06   |Residual|: 5.701e-04   |deigs|: 1.229e-03  t[s]:    389.93
	FillingsUpdate:  mu: -0.077137653  nElectrons: 73.000000  magneticMoment: [ Abs: 0.69210  Tot: -0.62000 ]
SCF: Cycle: 19   F: -118.211607679143540   dF: -7.101e-07   |Residual|: 3.542e-04   |deigs|: 5.062e-04  t[s]:    406.10
	FillingsUpdate:  mu: -0.076819822  nElectrons: 73.000000  magneticMoment: [ Abs: 0.69217  Tot: -0.62000 ]
SCF: Cycle: 20   F: -118.211608056783547   dF: -3.776e-07   |Residual|: 2.274e-04   |deigs|: 5.762e-04  t[s]:    422.30
	FillingsUpdate:  mu: -0.076576186  nElectrons: 73.000000  magneticMoment: [ Abs: 0.69202  Tot: -0.62000 ]
SCF: Cycle: 21   F: -118.211608272667974   dF: -2.159e-07   |Residual|: 1.410e-04   |deigs|: 4.767e-04  t[s]:    438.51
	FillingsUpdate:  mu: -0.076388284  nElectrons: 73.000000  magneticMoment: [ Abs: 0.69185  Tot: -0.62000 ]
SCF: Cycle: 22   F: -118.211608371701431   dF: -9.903e-08   |Residual|: 7.174e-05   |deigs|: 8.684e-04  t[s]:    454.79
	FillingsUpdate:  mu: -0.076319266  nElectrons: 73.000000  magneticMoment: [ Abs: 0.69180  Tot: -0.62000 ]
SCF: Cycle: 23   F: -118.211608396894064   dF: -2.519e-08   |Residual|: 4.655e-05   |deigs|: 1.665e-04  t[s]:    471.09
	FillingsUpdate:  mu: -0.076279579  nElectrons: 73.000000  magneticMoment: [ Abs: 0.69178  Tot: -0.62000 ]
SCF: Cycle: 24   F: -118.211608408053692   dF: -1.116e-08   |Residual|: 2.725e-05   |deigs|: 1.949e-04  t[s]:    487.34
	FillingsUpdate:  mu: -0.076260379  nElectrons: 73.000000  magneticMoment: [ Abs: 0.69176  Tot: -0.62000 ]
SCF: Cycle: 25   F: -118.211608412449635   dF: -4.396e-09   |Residual|: 1.547e-05   |deigs|: 3.061e-04  t[s]:    503.50
	FillingsUpdate:  mu: -0.076253827  nElectrons: 73.000000  magneticMoment: [ Abs: 0.69176  Tot: -0.62000 ]
SCF: Cycle: 26   F: -118.211608413845440   dF: -1.396e-09   |Residual|: 8.947e-06   |deigs|: 1.215e-04  t[s]:    519.63
SCF: Converged (|Delta E|<1.000000e-08 for 2 iters).


# Ionic positions in lattice coordinates:
ion C  -0.000000000000000   0.000000000000000   0.000000000000000 1
ion N   0.108900118656067   0.217800237312134   0.000000000000000 1
ion N   0.111440932313158   0.555720466156579   0.000000000000000 1
ion N   0.108900118656067   0.891099881343933   0.000000000000000 1
ion N   0.444600551142632   0.222300275571316   0.000000000000000 1
ion N   0.444279533843421   0.555720466156579   0.000000000000000 1
ion N   0.444279533843421   0.888559067686842   0.000000000000000 1
ion N   0.777699724428684   0.222300275571316   0.000000000000000 1
ion N   0.777699724428684   0.555399448857368   0.000000000000000 1
ion N   0.782199762687866   0.891099881343933   0.000000000000000 1
ion B  -0.000409163333578   0.332352225367090   0.000000000000000 1
ion B  -0.000409163333578   0.667238611299332   0.000000000000000 1
ion B   0.332761388700668   0.000409163333578   0.000000000000000 1
ion B   0.332761388700668   0.332352225367090   0.000000000000000 1
ion B   0.333333333333333   0.666666666666667   0.000000000000000 1
ion B   0.667647774632910   0.000409163333578   0.000000000000000 1
ion B   0.666666666666667   0.333333333333333   0.000000000000000 1
ion B   0.667647774632910   0.667238611299332   0.000000000000000 1

# Forces in Lattice coordinates:
force C   0.000000000000000  -0.000000000000000   0.000000000000000 1
force N   0.000000000000000  -0.066654434127234   0.000000000000000 1
force N   0.007023381182377   0.000000000000000   0.000000000000000 1
force N  -0.066654434127234   0.066654434127232   0.000000000000000 1
force N  -0.008490082488816  -0.000000000000000  -0.000000000000000 1
force N  -0.007023381182377   0.007023381182377  -0.000000000000000 1
force N  -0.000000000000000  -0.007023381182377  -0.000000000000000 1
force N   0.008490082488816  -0.008490082488816   0.000000000000000 1
force N  -0.000000000000000   0.008490082488816  -0.000000000000000 1
force N   0.066654434127232   0.000000000000000   0.000000000000000 1
force B  -0.023931775297575   0.019025325792165   0.000000000000000 1
force B  -0.004906449505410  -0.019025325792166   0.000000000000000 1
force B   0.019025325792165   0.004906449505410  -0.000000000000000 1
force B   0.023931775297575  -0.004906449505410  -0.000000000000000 1
force B   0.000000000000000   0.000000000000000   0.000000000000000 1
force B  -0.019025325792165   0.023931775297575  -0.000000000000000 1
force B   0.000000000000000  -0.000000000000000   0.000000000000000 1
force B   0.004906449505410  -0.023931775297575   0.000000000000000 1

# Energy components:
   Eewald =     -185.5884594997991428
       EH =      -93.0315318799765407
     Eloc =      115.4653226026933197
      Enl =       -5.2753077282140577
   Epulay =       -0.0000011688465181
      Exc =      -33.7506011424654488
       KE =       83.9689710911698199
-------------------------------------
     Etot =     -118.2116077254385544
       TS =        0.0000006884068895
-------------------------------------
        F =     -118.2116084138454397

IonicMinimize: Iter:   0  F: -118.211608413845440  |grad|_K:  1.433e-03  t[s]:    521.06
IonicMinimize: None of the convergence criteria satisfied after 0 iterations.

#--- Lowdin population analysis ---
# oxidation-state C +0.269
# magnetic-moments C -0.366
# oxidation-state N -0.264 -0.372 -0.264 -0.376 -0.372 -0.372 -0.376 -0.376 -0.264
# magnetic-moments N -0.003 +0.002 -0.003 -0.015 +0.002 +0.002 -0.015 -0.015 -0.003
# oxidation-state B +0.430 +0.430 +0.430 +0.430 +0.430 +0.430 +0.426 +0.430
# magnetic-moments B -0.028 -0.028 -0.028 -0.028 -0.009 -0.028 -0.012 -0.028

End date and time: Sun Feb  6 19:24:10 2022  (Duration: 0-0:08:41.41)
Done!
