magnetization is -0.4
--------------------------------------------------------------------------
The library attempted to open the following supporting CUDA libraries,
but each of them failed.  CUDA-aware support is disabled.
libcuda.so.1: cannot open shared object file: No such file or directory
libcuda.dylib: cannot open shared object file: No such file or directory
/usr/lib64/libcuda.so.1: cannot open shared object file: No such file or directory
/usr/lib64/libcuda.dylib: cannot open shared object file: No such file or directory
If you are not interested in CUDA-aware support, then run with
--mca opal_warn_on_missing_libcuda 0 to suppress this message.  If you are interested
in CUDA-aware support, then try setting LD_LIBRARY_PATH to the location
of libcuda.so.1 to get passed this issue.
--------------------------------------------------------------------------
--------------------------------------------------------------------------
No OpenFabrics connection schemes reported that they were able to be
used on a specific port.  As such, the openib BTL (OpenFabrics
support) will be disabled for this port.

  Local host:           d-17-14-3
  Local device:         mlx5_1
  Local port:           1
  CPCs attempted:       rdmacm, udcm
--------------------------------------------------------------------------

*************** JDFTx 1.6.0 (git hash 42ebbcc2) ***************

Start date and time: Sun Feb  6 19:24:09 2022
Executable jdftx with command-line: -i BN33BC.in
Running on hosts (process indices):  d-17-14-3 (0-37)
Divided in process groups (process indices):  0 (0)  1 (1)  2 (2)  3 (3)  4 (4)  5 (5)  6 (6)  7 (7)  8 (8)  9 (9)  10 (10)  11 (11)  12 (12)  13 (13)  14 (14)  15 (15)  16 (16)  17 (17)  18 (18)  19 (19)  20 (20)  21 (21)  22 (22)  23 (23)  24 (24)  25 (25)  26 (26)  27 (27)  28 (28)  29 (29)  30 (30)  31 (31)  32 (32)  33 (33)  34 (34)  35 (35)  36 (36)  37 (37)
Resource initialization completed at t[s]:      0.00
Run totals: 38 processes, 48 threads, 0 GPUs


Input parsed successfully to the following command list (including defaults):

basis kpoint-dependent
coords-type Lattice
core-overlap-check vector
coulomb-interaction Slab 001
davidson-band-ratio 1.1
dump End None
dump-name $INPUT.$VAR
elec-cutoff 20
elec-eigen-algo Davidson
elec-ex-corr gga-PBE
elec-initial-magnetization -0.400000 yes
elec-smearing Fermi 1e-05
electronic-minimize  \
	dirUpdateScheme      FletcherReeves \
	linminMethod         DirUpdateRecommended \
	nIterations          100 \
	history              15 \
	knormThreshold       0 \
	energyDiffThreshold  1e-08 \
	nEnergyDiff          2 \
	alphaTstart          1 \
	alphaTmin            1e-10 \
	updateTestStepSize   yes \
	alphaTreduceFactor   0.1 \
	alphaTincreaseFactor 3 \
	nAlphaAdjustMax      3 \
	wolfeEnergy          0.0001 \
	wolfeGradient        0.9 \
	fdTest               no
electronic-scf  \
	nIterations	1000 \
	energyDiffThreshold	1e-08 \
	residualThreshold	1e-07 \
	mixFraction	0.5 \
	qMetric	0.8 \
	history	10 \
	nEigSteps	2 \
	eigDiffThreshold	1e-08 \
	mixedVariable	Density \
	qKerker	0.8 \
	qKappa	-1 \
	verbose	no \
	mixFractionMag	1.5
exchange-regularization WignerSeitzTruncated
fluid None
fluid-ex-corr (null) lda-PZ
fluid-gummel-loop 10 1.000000e-05
fluid-minimize  \
	dirUpdateScheme      PolakRibiere \
	linminMethod         DirUpdateRecommended \
	nIterations          100 \
	history              15 \
	knormThreshold       0 \
	energyDiffThreshold  0 \
	nEnergyDiff          2 \
	alphaTstart          1 \
	alphaTmin            1e-10 \
	updateTestStepSize   yes \
	alphaTreduceFactor   0.1 \
	alphaTincreaseFactor 3 \
	nAlphaAdjustMax      3 \
	wolfeEnergy          0.0001 \
	wolfeGradient        0.9 \
	fdTest               no
fluid-solvent H2O 55.338 ScalarEOS \
	epsBulk 78.4 \
	pMol 0.92466 \
	epsInf 1.77 \
	Pvap 1.06736e-10 \
	sigmaBulk 4.62e-05 \
	Rvdw 2.61727 \
	Res 1.42 \
	tauNuc 343133 \
	poleEl 15 7 1
forces-output-coords Positions
ion C   0.000000000000000  -0.000000000000000   0.000000000000000 1
ion N   0.108900118656067   0.217800237312134   0.000000000000000 1
ion N   0.111440932313158   0.555720466156579   0.000000000000000 1
ion N   0.108900118656067   0.891099881343933   0.000000000000000 1
ion N   0.444600551142632   0.222300275571316   0.000000000000000 1
ion N   0.444279533843421   0.555720466156579   0.000000000000000 1
ion N   0.444279533843421   0.888559067686842   0.000000000000000 1
ion N   0.777699724428684   0.222300275571316   0.000000000000000 1
ion N   0.777699724428684   0.555399448857368   0.000000000000000 1
ion N   0.782199762687866   0.891099881343933   0.000000000000000 1
ion B  -0.000409163333578   0.332352225367090  -0.000000000000000 1
ion B  -0.000409163333578   0.667238611299332  -0.000000000000000 1
ion B   0.332761388700668   0.000409163333578   0.000000000000000 1
ion B   0.332761388700668   0.332352225367090  -0.000000000000000 1
ion B   0.333333333333333   0.666666666666667   0.000000000000000 1
ion B   0.667647774632910   0.000409163333578   0.000000000000000 1
ion B   0.666666666666667   0.333333333333333   0.000000000000000 1
ion B   0.667647774632910   0.667238611299332   0.000000000000000 1
ion-species SG15/$ID_ONCV_PBE.upf
ion-width 0
ionic-minimize  \
	dirUpdateScheme      L-BFGS \
	linminMethod         DirUpdateRecommended \
	nIterations          0 \
	history              15 \
	knormThreshold       0.0001 \
	energyDiffThreshold  1e-06 \
	nEnergyDiff          2 \
	alphaTstart          1 \
	alphaTmin            1e-10 \
	updateTestStepSize   yes \
	alphaTreduceFactor   0.1 \
	alphaTincreaseFactor 3 \
	nAlphaAdjustMax      3 \
	wolfeEnergy          0.0001 \
	wolfeGradient        0.9 \
	fdTest               no
kpoint   0.000000000000   0.000000000000   0.000000000000  1.00000000000000
kpoint-folding 12 12 1 
latt-move-scale 1 1 1
latt-scale 1 1 1 
lattice  \
	  14.116397090998559   -7.058198545499275    0.000000000000000  \
	  -0.000000000000000   12.225158490713497    0.000000000000000  \
	   0.000000000000000    0.000000000000000   40.000000000000000 
lattice-minimize  \
	dirUpdateScheme      L-BFGS \
	linminMethod         DirUpdateRecommended \
	nIterations          0 \
	history              15 \
	knormThreshold       0 \
	energyDiffThreshold  1e-06 \
	nEnergyDiff          2 \
	alphaTstart          1 \
	alphaTmin            1e-10 \
	updateTestStepSize   yes \
	alphaTreduceFactor   0.1 \
	alphaTincreaseFactor 3 \
	nAlphaAdjustMax      3 \
	wolfeEnergy          0.0001 \
	wolfeGradient        0.9 \
	fdTest               no
lcao-params -1 1e-06 1e-05
pcm-variant GLSSA13
spintype z-spin
subspace-rotation-factor 1 yes
symmetries automatic
symmetry-threshold 0.0001



---------- Setting up symmetries ----------

Found 24 point-group symmetries of the bravais lattice
Found 12 space-group symmetries with basis
Applied RMS atom displacement 2.54347e-15 bohrs to make symmetries exact.

---------- Initializing the Grid ----------
R = 
[      14.1164      -7.0582            0  ]
[            0      12.2252            0  ]
[            0            0           40  ]
unit cell volume = 6903.01
G =
[   0.445098   0.256978         -0  ]
[          0   0.513955         -0  ]
[         -0         -0    0.15708  ]
Minimum fftbox size, Smin = [  60  60  164  ]
Chosen fftbox size, S = [  60  60  168  ]

---------- Exchange Correlation functional ----------
Initalized PBE GGA exchange.
Initalized PBE GGA correlation.

---------- Setting up pseudopotentials ----------
Width of ionic core gaussian charges (only for fluid interactions / plotting) set to 0

Reading pseudopotential file '/home/gridsan/aligho/DFT/build-Nov24/pseudopotentials/SG15/C_ONCV_PBE.upf':
  'C' pseudopotential, 'PBE' functional
  Generated using ONCVPSP code by D. R. Hamann
  Author: Martin Schlipf and Francois Gygi  Date: 150915.
  4 valence electrons, 2 orbitals, 4 projectors, 1248 radial grid points, with lMax = 1
  Transforming local potential to a uniform radial grid of dG=0.02 with 1495 points.
  Transforming nonlocal projectors to a uniform radial grid of dG=0.02 with 432 points.
    2S    l: 0   occupation:  2.0   eigenvalue: -0.505335
    2P    l: 1   occupation:  2.0   eigenvalue: -0.194238
  Transforming atomic orbitals to a uniform radial grid of dG=0.02 with 432 points.
  Core radius for overlap checks: 1.23 bohrs.
  Reading pulay file /home/gridsan/aligho/DFT/build-Nov24/pseudopotentials/SG15/C_ONCV_PBE.pulay ... using dE_dnG = -9.239532e-03 computed for Ecut = 20.

Reading pseudopotential file '/home/gridsan/aligho/DFT/build-Nov24/pseudopotentials/SG15/N_ONCV_PBE.upf':
  'N' pseudopotential, 'PBE' functional
  Generated using ONCVPSP code by D. R. Hamann
  Author: Martin Schlipf and Francois Gygi  Date: 150915.
  5 valence electrons, 2 orbitals, 4 projectors, 1058 radial grid points, with lMax = 1
  Transforming local potential to a uniform radial grid of dG=0.02 with 1495 points.
  Transforming nonlocal projectors to a uniform radial grid of dG=0.02 with 432 points.
    2S    l: 0   occupation:  2.0   eigenvalue: -0.682907
    2P    l: 1   occupation:  3.0   eigenvalue: -0.260548
  Transforming atomic orbitals to a uniform radial grid of dG=0.02 with 432 points.
  Core radius for overlap checks: 1.35 bohrs.
  Reading pulay file /home/gridsan/aligho/DFT/build-Nov24/pseudopotentials/SG15/N_ONCV_PBE.pulay ... using dE_dnG = -2.956256e-02 computed for Ecut = 20.

Reading pseudopotential file '/home/gridsan/aligho/DFT/build-Nov24/pseudopotentials/SG15/B_ONCV_PBE.upf':
  'B' pseudopotential, 'PBE' functional
  Generated using ONCVPSP code by D. R. Hamann
  Author: Martin Schlipf and Francois Gygi  Date: 150915.
  3 valence electrons, 2 orbitals, 4 projectors, 1534 radial grid points, with lMax = 1
  Transforming local potential to a uniform radial grid of dG=0.02 with 1495 points.
  Transforming nonlocal projectors to a uniform radial grid of dG=0.02 with 432 points.
    2S    l: 0   occupation:  2.0   eigenvalue: -0.347027
    2P    l: 1   occupation:  1.0   eigenvalue: -0.132548
  Transforming atomic orbitals to a uniform radial grid of dG=0.02 with 432 points.
  Core radius for overlap checks: 1.60 bohrs.
  Reading pulay file /home/gridsan/aligho/DFT/build-Nov24/pseudopotentials/SG15/B_ONCV_PBE.pulay ... using dE_dnG = -3.748568e-04 computed for Ecut = 20.

Initialized 3 species with 18 total atoms.

Folded 1 k-points by 12x12x1 to 144 k-points.

---------- Setting up k-points, bands, fillings ----------
Adding inversion symmetry to k-mesh for non-inversion-symmetric unit cell.
Reduced to 19 k-points under symmetry. 
Computing the number of bands and number of electrons
Calculating initial fillings.
nElectrons:  73.000000   nBands: 72   nStates: 38

----- Setting up reduced wavefunction bases (one per k-point) -----
average nbasis = 29490.146 , ideal nbasis = 29490.175

---------- Setting up coulomb interaction ----------
Initialized slab truncation along lattice direction 001

---------- Setting up 2D ewald sum ----------
Optimum gaussian width for ewald sums = 7.836854 bohr.
Real space sums over 289 unit cells with max indices [  8  8  0  ]
Reciprocal space sums over 81 terms with max indices [  4  4  0  ]

---------- Allocating electronic variables ----------
Initializing wave functions:  linear combination of atomic orbitals
C pseudo-atom occupations:   s ( 2 )  p ( 2 )
N pseudo-atom occupations:   s ( 2 )  p ( 3 )
B pseudo-atom occupations:   s ( 2 )  p ( 1 )
[d-17-14-3:17572] 37 more processes have sent help message help-mpi-common-cuda.txt / dlopen failed
[d-17-14-3:17572] Set MCA parameter "orte_base_help_aggregate" to 0 to see all help / error messages
[d-17-14-3:17572] 37 more processes have sent help message help-mpi-btl-openib-cpc-base.txt / no cpcs for port
	FillingsUpdate:  mu: -0.192825903  nElectrons: 73.000000  magneticMoment: [ Abs: 0.41568  Tot: -0.40000 ]
LCAOMinimize: Iter:   0  F: -116.5133441699336032  |grad|_K:  4.491e-03  alpha:  1.000e+00
	FillingsUpdate:  mu: -0.222642275  nElectrons: 73.000000  magneticMoment: [ Abs: 0.41930  Tot: -0.40000 ]
LCAOMinimize: Iter:   1  F: -117.1851909187713261  |grad|_K:  1.051e-03  alpha:  3.998e-01  linmin:  1.715e-01  cgtest: -5.907e-01  t[s]:     25.27
	FillingsUpdate:  mu: -0.184214725  nElectrons: 73.000000  magneticMoment: [ Abs: 0.42062  Tot: -0.40000 ]
LCAOMinimize: Iter:   2  F: -117.2013698356982303  |grad|_K:  6.378e-04  alpha:  2.513e-01  linmin:  1.795e-03  cgtest:  7.530e-01  t[s]:     32.97
LCAOMinimize: Encountered beta<0, resetting CG.
	FillingsUpdate:  mu: -0.168729674  nElectrons: 73.000000  magneticMoment: [ Abs: 0.42141  Tot: -0.40000 ]
LCAOMinimize: Iter:   3  F: -117.2154320317935685  |grad|_K:  1.192e-04  alpha:  3.426e-01  linmin:  7.631e-03  cgtest: -7.299e-02  t[s]:     40.65
	FillingsUpdate:  mu: -0.173625188  nElectrons: 73.000000  magneticMoment: [ Abs: 0.42170  Tot: -0.40000 ]
LCAOMinimize: Iter:   4  F: -117.2159252345320510  |grad|_K:  1.321e-05  alpha:  3.476e-01  linmin:  1.298e-02  cgtest:  1.626e-01  t[s]:     48.37
LCAOMinimize: Encountered beta<0, resetting CG.
	FillingsUpdate:  mu: -0.173978431  nElectrons: 73.000000  magneticMoment: [ Abs: 0.42206  Tot: -0.40000 ]
LCAOMinimize: Iter:   5  F: -117.2159331313512922  |grad|_K:  6.960e-06  alpha:  4.472e-01  linmin:  1.776e-04  cgtest: -1.557e-03  t[s]:     56.03
	FillingsUpdate:  mu: -0.173679288  nElectrons: 73.000000  magneticMoment: [ Abs: 0.42337  Tot: -0.40000 ]
LCAOMinimize: Iter:   6  F: -117.2159369797715129  |grad|_K:  3.835e-06  alpha:  7.835e-01  linmin: -1.433e-03  cgtest:  1.146e-02  t[s]:     63.73
	FillingsUpdate:  mu: -0.173811454  nElectrons: 73.000000  magneticMoment: [ Abs: 0.42450  Tot: -0.40000 ]
LCAOMinimize: Iter:   7  F: -117.2159377309063473  |grad|_K:  9.860e-07  alpha:  5.021e-01  linmin: -6.355e-05  cgtest: -1.941e-02  t[s]:     71.46
	FillingsUpdate:  mu: -0.173798809  nElectrons: 73.000000  magneticMoment: [ Abs: 0.42473  Tot: -0.40000 ]
LCAOMinimize: Iter:   8  F: -117.2159378038651312  |grad|_K:  5.025e-07  alpha:  7.414e-01  linmin: -4.420e-04  cgtest:  2.322e-03  t[s]:     79.13
LCAOMinimize: Converged (|Delta F|<1.000000e-06 for 2 iters).


---- Citations for features of the code used in this run ----

   Software package:
      R. Sundararaman, K. Letchworth-Weaver, K.A. Schwarz, D. Gunceler, Y. Ozhabes and T.A. Arias, 'JDFTx: software for joint density-functional theory', SoftwareX 6, 278 (2017)

   gga-PBE exchange-correlation functional:
      J.P. Perdew, K. Burke and M. Ernzerhof, Phys. Rev. Lett. 77, 3865 (1996)

   Pseudopotentials:
      M Schlipf and F Gygi, Comput. Phys. Commun. 196, 36 (2015)

   Truncated Coulomb potentials:
      R. Sundararaman and T.A. Arias, Phys. Rev. B 87, 165122 (2013)

This list may not be complete. Please suggest additional citations or
report any other bugs at https://github.com/shankar1729/jdftx/issues

Initialization completed successfully at t[s]:     79.90


-------- Electronic minimization -----------
Will mix electronic density at each iteration.
	FillingsUpdate:  mu: -0.173798809  nElectrons: 73.000000  magneticMoment: [ Abs: 0.42473  Tot: -0.40000 ]
	FillingsUpdate:  mu: -0.191810812  nElectrons: 73.000000  magneticMoment: [ Abs: 0.42473  Tot: -0.40000 ]
SCF: Cycle:  0   F: -118.141904862850382   dF: -9.260e-01   |Residual|: 3.366e-01   |deigs|: 1.136e-01  t[s]:    100.57
	FillingsUpdate:  mu: -0.170483283  nElectrons: 73.000000  magneticMoment: [ Abs: 0.44378  Tot: -0.40000 ]
SCF: Cycle:  1   F: -118.181221506742006   dF: -3.932e-02   |Residual|: 1.877e-01   |deigs|: 2.534e-02  t[s]:    115.90
	FillingsUpdate:  mu: -0.141107135  nElectrons: 73.000000  magneticMoment: [ Abs: 0.45287  Tot: -0.40000 ]
SCF: Cycle:  2   F: -118.206906846493908   dF: -2.569e-02   |Residual|: 4.082e-02   |deigs|: 2.998e-02  t[s]:    131.30
	FillingsUpdate:  mu: -0.137714275  nElectrons: 73.000000  magneticMoment: [ Abs: 0.45547  Tot: -0.40000 ]
SCF: Cycle:  3   F: -118.207696316737724   dF: -7.895e-04   |Residual|: 2.272e-02   |deigs|: 7.872e-03  t[s]:    146.92
	FillingsUpdate:  mu: -0.125919018  nElectrons: 73.000000  magneticMoment: [ Abs: 0.44831  Tot: -0.40000 ]
SCF: Cycle:  4   F: -118.209148920611611   dF: -1.453e-03   |Residual|: 1.202e-02   |deigs|: 1.051e-02  t[s]:    162.42
	FillingsUpdate:  mu: -0.120937619  nElectrons: 73.000000  magneticMoment: [ Abs: 0.45276  Tot: -0.40000 ]
SCF: Cycle:  5   F: -118.209449309080497   dF: -3.004e-04   |Residual|: 8.799e-03   |deigs|: 4.300e-03  t[s]:    177.97
	FillingsUpdate:  mu: -0.114735460  nElectrons: 73.000000  magneticMoment: [ Abs: 0.44868  Tot: -0.40000 ]
SCF: Cycle:  6   F: -118.209543330411691   dF: -9.402e-05   |Residual|: 5.894e-03   |deigs|: 5.805e-03  t[s]:    193.63
	FillingsUpdate:  mu: -0.110364216  nElectrons: 73.000000  magneticMoment: [ Abs: 0.44788  Tot: -0.40000 ]
SCF: Cycle:  7   F: -118.209529192184931   dF: +1.414e-05   |Residual|: 4.789e-03   |deigs|: 5.344e-03  t[s]:    209.38
	FillingsUpdate:  mu: -0.105886267  nElectrons: 73.000000  magneticMoment: [ Abs: 0.44917  Tot: -0.40000 ]
SCF: Cycle:  8   F: -118.209597462675873   dF: -6.827e-05   |Residual|: 3.871e-03   |deigs|: 4.494e-03  t[s]:    225.14
	FillingsUpdate:  mu: -0.103322886  nElectrons: 73.000000  magneticMoment: [ Abs: 0.44686  Tot: -0.40000 ]
SCF: Cycle:  9   F: -118.209636744240356   dF: -3.928e-05   |Residual|: 3.019e-03   |deigs|: 2.751e-03  t[s]:    241.01
	FillingsUpdate:  mu: -0.100781025  nElectrons: 73.000000  magneticMoment: [ Abs: 0.44866  Tot: -0.40000 ]
SCF: Cycle: 10   F: -118.209663779259856   dF: -2.704e-05   |Residual|: 2.643e-03   |deigs|: 2.682e-03  t[s]:    256.93
	FillingsUpdate:  mu: -0.097859783  nElectrons: 73.000000  magneticMoment: [ Abs: 0.44836  Tot: -0.40000 ]
SCF: Cycle: 11   F: -118.209679516505716   dF: -1.574e-05   |Residual|: 2.140e-03   |deigs|: 2.733e-03  t[s]:    272.88
	FillingsUpdate:  mu: -0.095455913  nElectrons: 73.000000  magneticMoment: [ Abs: 0.44706  Tot: -0.40000 ]
SCF: Cycle: 12   F: -118.209685477609597   dF: -5.961e-06   |Residual|: 1.920e-03   |deigs|: 2.237e-03  t[s]:    288.75
	FillingsUpdate:  mu: -0.091580301  nElectrons: 73.000000  magneticMoment: [ Abs: 0.44873  Tot: -0.40000 ]
SCF: Cycle: 13   F: -118.209687819162582   dF: -2.342e-06   |Residual|: 1.666e-03   |deigs|: 3.624e-03  t[s]:    304.64
	FillingsUpdate:  mu: -0.088370314  nElectrons: 73.000000  magneticMoment: [ Abs: 0.44711  Tot: -0.40000 ]
SCF: Cycle: 14   F: -118.209687272458865   dF: +5.467e-07   |Residual|: 1.646e-03   |deigs|: 2.818e-03  t[s]:    320.57
	FillingsUpdate:  mu: -0.083934839  nElectrons: 73.000000  magneticMoment: [ Abs: 0.44857  Tot: -0.40000 ]
SCF: Cycle: 15   F: -118.209687375001636   dF: -1.025e-07   |Residual|: 1.435e-03   |deigs|: 4.160e-03  t[s]:    336.53
	FillingsUpdate:  mu: -0.080636609  nElectrons: 73.000000  magneticMoment: [ Abs: 0.44779  Tot: -0.40000 ]
SCF: Cycle: 16   F: -118.209691653301292   dF: -4.278e-06   |Residual|: 1.166e-03   |deigs|: 2.999e-03  t[s]:    352.50
	FillingsUpdate:  mu: -0.078587081  nElectrons: 73.000000  magneticMoment: [ Abs: 0.44667  Tot: -0.40000 ]
SCF: Cycle: 17   F: -118.209696829588069   dF: -5.176e-06   |Residual|: 8.446e-04   |deigs|: 1.790e-03  t[s]:    368.43
	FillingsUpdate:  mu: -0.077633166  nElectrons: 73.000000  magneticMoment: [ Abs: 0.44639  Tot: -0.40000 ]
SCF: Cycle: 18   F: -118.209699121098993   dF: -2.292e-06   |Residual|: 5.395e-04   |deigs|: 1.158e-03  t[s]:    384.42
	FillingsUpdate:  mu: -0.077154747  nElectrons: 73.000000  magneticMoment: [ Abs: 0.44635  Tot: -0.40000 ]
SCF: Cycle: 19   F: -118.209699773076466   dF: -6.520e-07   |Residual|: 3.086e-04   |deigs|: 5.172e-04  t[s]:    400.41
	FillingsUpdate:  mu: -0.076902996  nElectrons: 73.000000  magneticMoment: [ Abs: 0.44620  Tot: -0.40000 ]
SCF: Cycle: 20   F: -118.209700065031996   dF: -2.920e-07   |Residual|: 2.037e-04   |deigs|: 4.272e-04  t[s]:    416.30
	FillingsUpdate:  mu: -0.076686965  nElectrons: 73.000000  magneticMoment: [ Abs: 0.44605  Tot: -0.40000 ]
SCF: Cycle: 21   F: -118.209700238410903   dF: -1.734e-07   |Residual|: 1.235e-04   |deigs|: 4.607e-04  t[s]:    432.19
	FillingsUpdate:  mu: -0.076535450  nElectrons: 73.000000  magneticMoment: [ Abs: 0.44597  Tot: -0.40000 ]
SCF: Cycle: 22   F: -118.209700314531148   dF: -7.612e-08   |Residual|: 7.136e-05   |deigs|: 7.547e-04  t[s]:    448.06
	FillingsUpdate:  mu: -0.076475924  nElectrons: 73.000000  magneticMoment: [ Abs: 0.44588  Tot: -0.40000 ]
SCF: Cycle: 23   F: -118.209700333850108   dF: -1.932e-08   |Residual|: 4.660e-05   |deigs|: 1.593e-04  t[s]:    463.99
	FillingsUpdate:  mu: -0.076436082  nElectrons: 73.000000  magneticMoment: [ Abs: 0.44587  Tot: -0.40000 ]
SCF: Cycle: 24   F: -118.209700345447715   dF: -1.160e-08   |Residual|: 2.754e-05   |deigs|: 2.324e-04  t[s]:    479.90
	FillingsUpdate:  mu: -0.076421296  nElectrons: 73.000000  magneticMoment: [ Abs: 0.44584  Tot: -0.40000 ]
SCF: Cycle: 25   F: -118.209700349128596   dF: -3.681e-09   |Residual|: 1.720e-05   |deigs|: 3.179e-04  t[s]:    495.96
	FillingsUpdate:  mu: -0.076414908  nElectrons: 73.000000  magneticMoment: [ Abs: 0.44584  Tot: -0.40000 ]
SCF: Cycle: 26   F: -118.209700350679981   dF: -1.551e-09   |Residual|: 1.018e-05   |deigs|: 1.256e-04  t[s]:    511.92
SCF: Converged (|Delta E|<1.000000e-08 for 2 iters).


# Ionic positions in lattice coordinates:
ion C  -0.000000000000000   0.000000000000000   0.000000000000000 1
ion N   0.108900118656067   0.217800237312134   0.000000000000000 1
ion N   0.111440932313158   0.555720466156579   0.000000000000000 1
ion N   0.108900118656067   0.891099881343933   0.000000000000000 1
ion N   0.444600551142632   0.222300275571316   0.000000000000000 1
ion N   0.444279533843421   0.555720466156579   0.000000000000000 1
ion N   0.444279533843421   0.888559067686842   0.000000000000000 1
ion N   0.777699724428684   0.222300275571316   0.000000000000000 1
ion N   0.777699724428684   0.555399448857368   0.000000000000000 1
ion N   0.782199762687866   0.891099881343933   0.000000000000000 1
ion B  -0.000409163333578   0.332352225367090   0.000000000000000 1
ion B  -0.000409163333578   0.667238611299332   0.000000000000000 1
ion B   0.332761388700668   0.000409163333578   0.000000000000000 1
ion B   0.332761388700668   0.332352225367090   0.000000000000000 1
ion B   0.333333333333333   0.666666666666667   0.000000000000000 1
ion B   0.667647774632910   0.000409163333578   0.000000000000000 1
ion B   0.666666666666667   0.333333333333333   0.000000000000000 1
ion B   0.667647774632910   0.667238611299332   0.000000000000000 1

# Forces in Lattice coordinates:
force C   0.000000000000000   0.000000000000000   0.000000000000000 1
force N   0.000000000000000  -0.089097725549889   0.000000000000000 1
force N   0.008626402032925   0.000000000000000  -0.000000000000000 1
force N  -0.089097725549889   0.089097725549888   0.000000000000000 1
force N  -0.010866763671540  -0.000000000000000   0.000000000000000 1
force N  -0.008626402032925   0.008626402032925  -0.000000000000000 1
force N   0.000000000000000  -0.008626402032925   0.000000000000000 1
force N   0.010866763671540  -0.010866763671540   0.000000000000000 1
force N   0.000000000000000   0.010866763671540  -0.000000000000000 1
force N   0.089097725549887  -0.000000000000000   0.000000000000000 1
force B  -0.030199494249395   0.025287240969585   0.000000000000000 1
force B  -0.004912253279811  -0.025287240969585  -0.000000000000000 1
force B   0.025287240969585   0.004912253279811   0.000000000000000 1
force B   0.030199494249395  -0.004912253279810  -0.000000000000000 1
force B  -0.000000000000000  -0.000000000000000   0.000000000000000 1
force B  -0.025287240969585   0.030199494249395   0.000000000000000 1
force B   0.000000000000000  -0.000000000000000   0.000000000000000 1
force B   0.004912253279811  -0.030199494249395   0.000000000000000 1

# Energy components:
   Eewald =     -185.5884594997991428
       EH =      -93.0460337342532426
     Eloc =      115.4845613532081501
      Enl =       -5.2719879265874603
   Epulay =       -0.0000011688465181
      Exc =      -33.7454684873769679
       KE =       83.9576900047728003
-------------------------------------
     Etot =     -118.2096994588823833
       TS =        0.0000008917975953
-------------------------------------
        F =     -118.2097003506799808

IonicMinimize: Iter:   0  F: -118.209700350679981  |grad|_K:  1.900e-03  t[s]:    513.36
IonicMinimize: None of the convergence criteria satisfied after 0 iterations.

#--- Lowdin population analysis ---
# oxidation-state C +0.266
# magnetic-moments C -0.239
# oxidation-state N -0.261 -0.371 -0.261 -0.375 -0.371 -0.371 -0.375 -0.375 -0.261
# magnetic-moments N -0.003 +0.001 -0.003 -0.012 +0.001 +0.001 -0.012 -0.012 -0.003
# oxidation-state B +0.429 +0.429 +0.429 +0.429 +0.429 +0.429 +0.424 +0.429
# magnetic-moments B -0.018 -0.018 -0.018 -0.018 -0.001 -0.018 -0.002 -0.018

End date and time: Sun Feb  6 19:32:43 2022  (Duration: 0-0:08:33.68)
Done!
