magnetization is -0.28
--------------------------------------------------------------------------
The library attempted to open the following supporting CUDA libraries,
but each of them failed.  CUDA-aware support is disabled.
libcuda.so.1: cannot open shared object file: No such file or directory
libcuda.dylib: cannot open shared object file: No such file or directory
/usr/lib64/libcuda.so.1: cannot open shared object file: No such file or directory
/usr/lib64/libcuda.dylib: cannot open shared object file: No such file or directory
If you are not interested in CUDA-aware support, then run with
--mca opal_warn_on_missing_libcuda 0 to suppress this message.  If you are interested
in CUDA-aware support, then try setting LD_LIBRARY_PATH to the location
of libcuda.so.1 to get passed this issue.
--------------------------------------------------------------------------
--------------------------------------------------------------------------
No OpenFabrics connection schemes reported that they were able to be
used on a specific port.  As such, the openib BTL (OpenFabrics
support) will be disabled for this port.

  Local host:           d-3-15-4
  Local device:         mlx5_1
  Local port:           1
  CPCs attempted:       rdmacm, udcm
--------------------------------------------------------------------------

*************** JDFTx 1.6.0 (git hash 42ebbcc2) ***************

Start date and time: Sun Feb  6 19:24:40 2022
Executable jdftx with command-line: -i BN33BC.in
Running on hosts (process indices):  d-3-15-4 (0-37)
Divided in process groups (process indices):  0 (0)  1 (1)  2 (2)  3 (3)  4 (4)  5 (5)  6 (6)  7 (7)  8 (8)  9 (9)  10 (10)  11 (11)  12 (12)  13 (13)  14 (14)  15 (15)  16 (16)  17 (17)  18 (18)  19 (19)  20 (20)  21 (21)  22 (22)  23 (23)  24 (24)  25 (25)  26 (26)  27 (27)  28 (28)  29 (29)  30 (30)  31 (31)  32 (32)  33 (33)  34 (34)  35 (35)  36 (36)  37 (37)
Resource initialization completed at t[s]:      0.00
Run totals: 38 processes, 48 threads, 0 GPUs


Input parsed successfully to the following command list (including defaults):

basis kpoint-dependent
coords-type Lattice
core-overlap-check vector
coulomb-interaction Slab 001
davidson-band-ratio 1.1
dump End None
dump-name $INPUT.$VAR
elec-cutoff 20
elec-eigen-algo Davidson
elec-ex-corr gga-PBE
elec-initial-magnetization -0.280000 yes
elec-smearing Fermi 1e-05
electronic-minimize  \
	dirUpdateScheme      FletcherReeves \
	linminMethod         DirUpdateRecommended \
	nIterations          100 \
	history              15 \
	knormThreshold       0 \
	energyDiffThreshold  1e-08 \
	nEnergyDiff          2 \
	alphaTstart          1 \
	alphaTmin            1e-10 \
	updateTestStepSize   yes \
	alphaTreduceFactor   0.1 \
	alphaTincreaseFactor 3 \
	nAlphaAdjustMax      3 \
	wolfeEnergy          0.0001 \
	wolfeGradient        0.9 \
	fdTest               no
electronic-scf  \
	nIterations	1000 \
	energyDiffThreshold	1e-08 \
	residualThreshold	1e-07 \
	mixFraction	0.5 \
	qMetric	0.8 \
	history	10 \
	nEigSteps	2 \
	eigDiffThreshold	1e-08 \
	mixedVariable	Density \
	qKerker	0.8 \
	qKappa	-1 \
	verbose	no \
	mixFractionMag	1.5
exchange-regularization WignerSeitzTruncated
fluid None
fluid-ex-corr (null) lda-PZ
fluid-gummel-loop 10 1.000000e-05
fluid-minimize  \
	dirUpdateScheme      PolakRibiere \
	linminMethod         DirUpdateRecommended \
	nIterations          100 \
	history              15 \
	knormThreshold       0 \
	energyDiffThreshold  0 \
	nEnergyDiff          2 \
	alphaTstart          1 \
	alphaTmin            1e-10 \
	updateTestStepSize   yes \
	alphaTreduceFactor   0.1 \
	alphaTincreaseFactor 3 \
	nAlphaAdjustMax      3 \
	wolfeEnergy          0.0001 \
	wolfeGradient        0.9 \
	fdTest               no
fluid-solvent H2O 55.338 ScalarEOS \
	epsBulk 78.4 \
	pMol 0.92466 \
	epsInf 1.77 \
	Pvap 1.06736e-10 \
	sigmaBulk 4.62e-05 \
	Rvdw 2.61727 \
	Res 1.42 \
	tauNuc 343133 \
	poleEl 15 7 1
forces-output-coords Positions
ion C   0.000000000000000  -0.000000000000000   0.000000000000000 1
ion N   0.108900118656067   0.217800237312134   0.000000000000000 1
ion N   0.111440932313158   0.555720466156579   0.000000000000000 1
ion N   0.108900118656067   0.891099881343933   0.000000000000000 1
ion N   0.444600551142632   0.222300275571316   0.000000000000000 1
ion N   0.444279533843421   0.555720466156579   0.000000000000000 1
ion N   0.444279533843421   0.888559067686842   0.000000000000000 1
ion N   0.777699724428684   0.222300275571316   0.000000000000000 1
ion N   0.777699724428684   0.555399448857368   0.000000000000000 1
ion N   0.782199762687866   0.891099881343933   0.000000000000000 1
ion B  -0.000409163333578   0.332352225367090  -0.000000000000000 1
ion B  -0.000409163333578   0.667238611299332  -0.000000000000000 1
ion B   0.332761388700668   0.000409163333578   0.000000000000000 1
ion B   0.332761388700668   0.332352225367090  -0.000000000000000 1
ion B   0.333333333333333   0.666666666666667   0.000000000000000 1
ion B   0.667647774632910   0.000409163333578   0.000000000000000 1
ion B   0.666666666666667   0.333333333333333   0.000000000000000 1
ion B   0.667647774632910   0.667238611299332   0.000000000000000 1
ion-species SG15/$ID_ONCV_PBE.upf
ion-width 0
ionic-minimize  \
	dirUpdateScheme      L-BFGS \
	linminMethod         DirUpdateRecommended \
	nIterations          0 \
	history              15 \
	knormThreshold       0.0001 \
	energyDiffThreshold  1e-06 \
	nEnergyDiff          2 \
	alphaTstart          1 \
	alphaTmin            1e-10 \
	updateTestStepSize   yes \
	alphaTreduceFactor   0.1 \
	alphaTincreaseFactor 3 \
	nAlphaAdjustMax      3 \
	wolfeEnergy          0.0001 \
	wolfeGradient        0.9 \
	fdTest               no
kpoint   0.000000000000   0.000000000000   0.000000000000  1.00000000000000
kpoint-folding 12 12 1 
latt-move-scale 1 1 1
latt-scale 1 1 1 
lattice  \
	  14.116397090998559   -7.058198545499275    0.000000000000000  \
	  -0.000000000000000   12.225158490713497    0.000000000000000  \
	   0.000000000000000    0.000000000000000   40.000000000000000 
lattice-minimize  \
	dirUpdateScheme      L-BFGS \
	linminMethod         DirUpdateRecommended \
	nIterations          0 \
	history              15 \
	knormThreshold       0 \
	energyDiffThreshold  1e-06 \
	nEnergyDiff          2 \
	alphaTstart          1 \
	alphaTmin            1e-10 \
	updateTestStepSize   yes \
	alphaTreduceFactor   0.1 \
	alphaTincreaseFactor 3 \
	nAlphaAdjustMax      3 \
	wolfeEnergy          0.0001 \
	wolfeGradient        0.9 \
	fdTest               no
lcao-params -1 1e-06 1e-05
pcm-variant GLSSA13
spintype z-spin
subspace-rotation-factor 1 yes
symmetries automatic
symmetry-threshold 0.0001



---------- Setting up symmetries ----------

Found 24 point-group symmetries of the bravais lattice
Found 12 space-group symmetries with basis
Applied RMS atom displacement 2.54347e-15 bohrs to make symmetries exact.

---------- Initializing the Grid ----------
R = 
[      14.1164      -7.0582            0  ]
[            0      12.2252            0  ]
[            0            0           40  ]
unit cell volume = 6903.01
G =
[   0.445098   0.256978         -0  ]
[          0   0.513955         -0  ]
[         -0         -0    0.15708  ]
Minimum fftbox size, Smin = [  60  60  164  ]
Chosen fftbox size, S = [  60  60  168  ]

---------- Exchange Correlation functional ----------
Initalized PBE GGA exchange.
Initalized PBE GGA correlation.

---------- Setting up pseudopotentials ----------
Width of ionic core gaussian charges (only for fluid interactions / plotting) set to 0

Reading pseudopotential file '/home/gridsan/aligho/DFT/build-Nov24/pseudopotentials/SG15/C_ONCV_PBE.upf':
  'C' pseudopotential, 'PBE' functional
  Generated using ONCVPSP code by D. R. Hamann
  Author: Martin Schlipf and Francois Gygi  Date: 150915.
  4 valence electrons, 2 orbitals, 4 projectors, 1248 radial grid points, with lMax = 1
  Transforming local potential to a uniform radial grid of dG=0.02 with 1495 points.
  Transforming nonlocal projectors to a uniform radial grid of dG=0.02 with 432 points.
    2S    l: 0   occupation:  2.0   eigenvalue: -0.505335
    2P    l: 1   occupation:  2.0   eigenvalue: -0.194238
  Transforming atomic orbitals to a uniform radial grid of dG=0.02 with 432 points.
  Core radius for overlap checks: 1.23 bohrs.
  Reading pulay file /home/gridsan/aligho/DFT/build-Nov24/pseudopotentials/SG15/C_ONCV_PBE.pulay ... using dE_dnG = -9.239532e-03 computed for Ecut = 20.

Reading pseudopotential file '/home/gridsan/aligho/DFT/build-Nov24/pseudopotentials/SG15/N_ONCV_PBE.upf':
  'N' pseudopotential, 'PBE' functional
  Generated using ONCVPSP code by D. R. Hamann
  Author: Martin Schlipf and Francois Gygi  Date: 150915.
  5 valence electrons, 2 orbitals, 4 projectors, 1058 radial grid points, with lMax = 1
  Transforming local potential to a uniform radial grid of dG=0.02 with 1495 points.
  Transforming nonlocal projectors to a uniform radial grid of dG=0.02 with 432 points.
    2S    l: 0   occupation:  2.0   eigenvalue: -0.682907
    2P    l: 1   occupation:  3.0   eigenvalue: -0.260548
  Transforming atomic orbitals to a uniform radial grid of dG=0.02 with 432 points.
  Core radius for overlap checks: 1.35 bohrs.
  Reading pulay file /home/gridsan/aligho/DFT/build-Nov24/pseudopotentials/SG15/N_ONCV_PBE.pulay ... using dE_dnG = -2.956256e-02 computed for Ecut = 20.

Reading pseudopotential file '/home/gridsan/aligho/DFT/build-Nov24/pseudopotentials/SG15/B_ONCV_PBE.upf':
  'B' pseudopotential, 'PBE' functional
  Generated using ONCVPSP code by D. R. Hamann
  Author: Martin Schlipf and Francois Gygi  Date: 150915.
  3 valence electrons, 2 orbitals, 4 projectors, 1534 radial grid points, with lMax = 1
  Transforming local potential to a uniform radial grid of dG=0.02 with 1495 points.
  Transforming nonlocal projectors to a uniform radial grid of dG=0.02 with 432 points.
    2S    l: 0   occupation:  2.0   eigenvalue: -0.347027
    2P    l: 1   occupation:  1.0   eigenvalue: -0.132548
  Transforming atomic orbitals to a uniform radial grid of dG=0.02 with 432 points.
  Core radius for overlap checks: 1.60 bohrs.
  Reading pulay file /home/gridsan/aligho/DFT/build-Nov24/pseudopotentials/SG15/B_ONCV_PBE.pulay ... using dE_dnG = -3.748568e-04 computed for Ecut = 20.

Initialized 3 species with 18 total atoms.

Folded 1 k-points by 12x12x1 to 144 k-points.

---------- Setting up k-points, bands, fillings ----------
Adding inversion symmetry to k-mesh for non-inversion-symmetric unit cell.
Reduced to 19 k-points under symmetry. 
Computing the number of bands and number of electrons
Calculating initial fillings.
nElectrons:  73.000000   nBands: 72   nStates: 38

----- Setting up reduced wavefunction bases (one per k-point) -----
average nbasis = 29490.146 , ideal nbasis = 29490.175

---------- Setting up coulomb interaction ----------
Initialized slab truncation along lattice direction 001

---------- Setting up 2D ewald sum ----------
Optimum gaussian width for ewald sums = 7.836854 bohr.
Real space sums over 289 unit cells with max indices [  8  8  0  ]
Reciprocal space sums over 81 terms with max indices [  4  4  0  ]

---------- Allocating electronic variables ----------
Initializing wave functions:  linear combination of atomic orbitals
C pseudo-atom occupations:   s ( 2 )  p ( 2 )
N pseudo-atom occupations:   s ( 2 )  p ( 3 )
B pseudo-atom occupations:   s ( 2 )  p ( 1 )
[d-3-15-4:33746] 37 more processes have sent help message help-mpi-common-cuda.txt / dlopen failed
[d-3-15-4:33746] Set MCA parameter "orte_base_help_aggregate" to 0 to see all help / error messages
[d-3-15-4:33746] 37 more processes have sent help message help-mpi-btl-openib-cpc-base.txt / no cpcs for port
	FillingsUpdate:  mu: -0.192980884  nElectrons: 73.000000  magneticMoment: [ Abs: 0.29212  Tot: -0.28000 ]
LCAOMinimize: Iter:   0  F: -116.5107499470946379  |grad|_K:  4.497e-03  alpha:  1.000e+00
	FillingsUpdate:  mu: -0.224332028  nElectrons: 73.000000  magneticMoment: [ Abs: 0.29417  Tot: -0.28000 ]
LCAOMinimize: Iter:   1  F: -117.1836770200774680  |grad|_K:  1.070e-03  alpha:  3.994e-01  linmin:  1.680e-01  cgtest: -5.855e-01  t[s]:     25.55
	FillingsUpdate:  mu: -0.185147787  nElectrons: 73.000000  magneticMoment: [ Abs: 0.29529  Tot: -0.28000 ]
LCAOMinimize: Iter:   2  F: -117.2003923586981955  |grad|_K:  6.453e-04  alpha:  2.499e-01  linmin:  1.501e-03  cgtest:  7.517e-01  t[s]:     33.34
LCAOMinimize: Encountered beta<0, resetting CG.
	FillingsUpdate:  mu: -0.169290718  nElectrons: 73.000000  magneticMoment: [ Abs: 0.29586  Tot: -0.28000 ]
LCAOMinimize: Iter:   3  F: -117.2147138447644181  |grad|_K:  1.223e-04  alpha:  3.406e-01  linmin:  1.129e-02  cgtest: -6.946e-02  t[s]:     41.15
	FillingsUpdate:  mu: -0.174285337  nElectrons: 73.000000  magneticMoment: [ Abs: 0.29630  Tot: -0.28000 ]
LCAOMinimize: Iter:   4  F: -117.2152319808041199  |grad|_K:  1.222e-05  alpha:  3.462e-01  linmin:  1.855e-02  cgtest:  1.612e-01  t[s]:     48.96
LCAOMinimize: Encountered beta<0, resetting CG.
	FillingsUpdate:  mu: -0.174608319  nElectrons: 73.000000  magneticMoment: [ Abs: 0.29758  Tot: -0.28000 ]
LCAOMinimize: Iter:   5  F: -117.2152381008220061  |grad|_K:  5.496e-06  alpha:  4.050e-01  linmin:  1.893e-04  cgtest: -1.639e-03  t[s]:     56.76
	FillingsUpdate:  mu: -0.174362033  nElectrons: 73.000000  magneticMoment: [ Abs: 0.30179  Tot: -0.28000 ]
LCAOMinimize: Iter:   6  F: -117.2152404527057286  |grad|_K:  3.257e-06  alpha:  7.682e-01  linmin: -1.033e-03  cgtest:  7.719e-03  t[s]:     64.57
	FillingsUpdate:  mu: -0.174469778  nElectrons: 73.000000  magneticMoment: [ Abs: 0.30410  Tot: -0.28000 ]
LCAOMinimize: Iter:   7  F: -117.2152410352854730  |grad|_K:  9.489e-07  alpha:  5.404e-01  linmin:  1.474e-04  cgtest: -1.397e-02  t[s]:     72.43
	FillingsUpdate:  mu: -0.174457648  nElectrons: 73.000000  magneticMoment: [ Abs: 0.30475  Tot: -0.28000 ]
LCAOMinimize: Iter:   8  F: -117.2152411006454713  |grad|_K:  5.025e-07  alpha:  7.172e-01  linmin: -3.912e-04  cgtest:  2.429e-03  t[s]:     80.23
LCAOMinimize: Converged (|Delta F|<1.000000e-06 for 2 iters).


---- Citations for features of the code used in this run ----

   Software package:
      R. Sundararaman, K. Letchworth-Weaver, K.A. Schwarz, D. Gunceler, Y. Ozhabes and T.A. Arias, 'JDFTx: software for joint density-functional theory', SoftwareX 6, 278 (2017)

   gga-PBE exchange-correlation functional:
      J.P. Perdew, K. Burke and M. Ernzerhof, Phys. Rev. Lett. 77, 3865 (1996)

   Pseudopotentials:
      M Schlipf and F Gygi, Comput. Phys. Commun. 196, 36 (2015)

   Truncated Coulomb potentials:
      R. Sundararaman and T.A. Arias, Phys. Rev. B 87, 165122 (2013)

This list may not be complete. Please suggest additional citations or
report any other bugs at https://github.com/shankar1729/jdftx/issues

Initialization completed successfully at t[s]:     80.99


-------- Electronic minimization -----------
Will mix electronic density at each iteration.
	FillingsUpdate:  mu: -0.174457648  nElectrons: 73.000000  magneticMoment: [ Abs: 0.30475  Tot: -0.28000 ]
	FillingsUpdate:  mu: -0.191523015  nElectrons: 73.000000  magneticMoment: [ Abs: 0.30475  Tot: -0.28000 ]
SCF: Cycle:  0   F: -118.141108140541547   dF: -9.259e-01   |Residual|: 3.365e-01   |deigs|: 1.136e-01  t[s]:    102.20
	FillingsUpdate:  mu: -0.170106507  nElectrons: 73.000000  magneticMoment: [ Abs: 0.31288  Tot: -0.28000 ]
SCF: Cycle:  1   F: -118.180521927961593   dF: -3.941e-02   |Residual|: 1.876e-01   |deigs|: 2.534e-02  t[s]:    117.93
	FillingsUpdate:  mu: -0.141341376  nElectrons: 73.000000  magneticMoment: [ Abs: 0.31688  Tot: -0.28000 ]
SCF: Cycle:  2   F: -118.206209859490883   dF: -2.569e-02   |Residual|: 4.081e-02   |deigs|: 2.999e-02  t[s]:    133.64
	FillingsUpdate:  mu: -0.137868614  nElectrons: 73.000000  magneticMoment: [ Abs: 0.31846  Tot: -0.28000 ]
SCF: Cycle:  3   F: -118.206995310549942   dF: -7.855e-04   |Residual|: 2.258e-02   |deigs|: 7.932e-03  t[s]:    149.45
	FillingsUpdate:  mu: -0.125976994  nElectrons: 73.000000  magneticMoment: [ Abs: 0.31284  Tot: -0.28000 ]
SCF: Cycle:  4   F: -118.208468220584152   dF: -1.473e-03   |Residual|: 1.195e-02   |deigs|: 1.065e-02  t[s]:    165.42
	FillingsUpdate:  mu: -0.120755454  nElectrons: 73.000000  magneticMoment: [ Abs: 0.31930  Tot: -0.28000 ]
SCF: Cycle:  5   F: -118.208762392031304   dF: -2.942e-04   |Residual|: 8.323e-03   |deigs|: 4.438e-03  t[s]:    181.42
	FillingsUpdate:  mu: -0.114678664  nElectrons: 73.000000  magneticMoment: [ Abs: 0.31374  Tot: -0.28000 ]
SCF: Cycle:  6   F: -118.208833605258121   dF: -7.121e-05   |Residual|: 5.868e-03   |deigs|: 5.949e-03  t[s]:    197.41
	FillingsUpdate:  mu: -0.110317618  nElectrons: 73.000000  magneticMoment: [ Abs: 0.31366  Tot: -0.28000 ]
SCF: Cycle:  7   F: -118.208834202248923   dF: -5.970e-07   |Residual|: 4.734e-03   |deigs|: 5.125e-03  t[s]:    213.44
	FillingsUpdate:  mu: -0.106033227  nElectrons: 73.000000  magneticMoment: [ Abs: 0.31445  Tot: -0.28000 ]
SCF: Cycle:  8   F: -118.208900955660681   dF: -6.675e-05   |Residual|: 3.838e-03   |deigs|: 4.383e-03  t[s]:    229.56
	FillingsUpdate:  mu: -0.103590735  nElectrons: 73.000000  magneticMoment: [ Abs: 0.31245  Tot: -0.28000 ]
SCF: Cycle:  9   F: -118.208937943498498   dF: -3.699e-05   |Residual|: 3.010e-03   |deigs|: 2.587e-03  t[s]:    245.70
	FillingsUpdate:  mu: -0.100777575  nElectrons: 73.000000  magneticMoment: [ Abs: 0.31473  Tot: -0.28000 ]
SCF: Cycle: 10   F: -118.208966448739318   dF: -2.851e-05   |Residual|: 2.619e-03   |deigs|: 2.883e-03  t[s]:    262.06
	FillingsUpdate:  mu: -0.098066368  nElectrons: 73.000000  magneticMoment: [ Abs: 0.31338  Tot: -0.28000 ]
SCF: Cycle: 11   F: -118.208980967445214   dF: -1.452e-05   |Residual|: 2.112e-03   |deigs|: 2.548e-03  t[s]:    278.32
	FillingsUpdate:  mu: -0.095519105  nElectrons: 73.000000  magneticMoment: [ Abs: 0.31278  Tot: -0.28000 ]
SCF: Cycle: 12   F: -118.208986731928746   dF: -5.764e-06   |Residual|: 1.888e-03   |deigs|: 2.356e-03  t[s]:    294.66
	FillingsUpdate:  mu: -0.091767023  nElectrons: 73.000000  magneticMoment: [ Abs: 0.31377  Tot: -0.28000 ]
SCF: Cycle: 13   F: -118.208988485011403   dF: -1.753e-06   |Residual|: 1.677e-03   |deigs|: 3.531e-03  t[s]:    310.87
	FillingsUpdate:  mu: -0.088546600  nElectrons: 73.000000  magneticMoment: [ Abs: 0.31263  Tot: -0.28000 ]
SCF: Cycle: 14   F: -118.208988599783027   dF: -1.148e-07   |Residual|: 1.618e-03   |deigs|: 2.854e-03  t[s]:    327.20
	FillingsUpdate:  mu: -0.084262130  nElectrons: 73.000000  magneticMoment: [ Abs: 0.31372  Tot: -0.28000 ]
SCF: Cycle: 15   F: -118.208988325974389   dF: +2.738e-07   |Residual|: 1.468e-03   |deigs|: 3.977e-03  t[s]:    343.56
	FillingsUpdate:  mu: -0.080904206  nElectrons: 73.000000  magneticMoment: [ Abs: 0.31323  Tot: -0.28000 ]
SCF: Cycle: 16   F: -118.208993287943201   dF: -4.962e-06   |Residual|: 1.097e-03   |deigs|: 3.065e-03  t[s]:    359.84
	FillingsUpdate:  mu: -0.078611354  nElectrons: 73.000000  magneticMoment: [ Abs: 0.31252  Tot: -0.28000 ]
SCF: Cycle: 17   F: -118.208997894191540   dF: -4.606e-06   |Residual|: 8.137e-04   |deigs|: 2.026e-03  t[s]:    376.13
	FillingsUpdate:  mu: -0.077633652  nElectrons: 73.000000  magneticMoment: [ Abs: 0.31246  Tot: -0.28000 ]
SCF: Cycle: 18   F: -118.209000362786028   dF: -2.469e-06   |Residual|: 4.673e-04   |deigs|: 9.094e-04  t[s]:    392.46
	FillingsUpdate:  mu: -0.077137749  nElectrons: 73.000000  magneticMoment: [ Abs: 0.31230  Tot: -0.28000 ]
SCF: Cycle: 19   F: -118.209001049507307   dF: -6.867e-07   |Residual|: 2.434e-04   |deigs|: 5.949e-04  t[s]:    408.76
	FillingsUpdate:  mu: -0.076986014  nElectrons: 73.000000  magneticMoment: [ Abs: 0.31213  Tot: -0.28000 ]
SCF: Cycle: 20   F: -118.209001186413943   dF: -1.369e-07   |Residual|: 1.510e-04   |deigs|: 3.222e-04  t[s]:    425.03
	FillingsUpdate:  mu: -0.076851616  nElectrons: 73.000000  magneticMoment: [ Abs: 0.31212  Tot: -0.28000 ]
SCF: Cycle: 21   F: -118.209001263502898   dF: -7.709e-08   |Residual|: 7.849e-05   |deigs|: 6.188e-04  t[s]:    441.32
	FillingsUpdate:  mu: -0.076796845  nElectrons: 73.000000  magneticMoment: [ Abs: 0.31204  Tot: -0.28000 ]
SCF: Cycle: 22   F: -118.209001287794209   dF: -2.429e-08   |Residual|: 5.060e-05   |deigs|: 4.654e-04  t[s]:    457.52
	FillingsUpdate:  mu: -0.076768922  nElectrons: 73.000000  magneticMoment: [ Abs: 0.31202  Tot: -0.28000 ]
SCF: Cycle: 23   F: -118.209001299846420   dF: -1.205e-08   |Residual|: 2.957e-05   |deigs|: 3.365e-04  t[s]:    473.80
	FillingsUpdate:  mu: -0.076751405  nElectrons: 73.000000  magneticMoment: [ Abs: 0.31202  Tot: -0.28000 ]
SCF: Cycle: 24   F: -118.209001305941115   dF: -6.095e-09   |Residual|: 1.895e-05   |deigs|: 3.572e-04  t[s]:    490.06
	FillingsUpdate:  mu: -0.076749224  nElectrons: 73.000000  magneticMoment: [ Abs: 0.31200  Tot: -0.28000 ]
SCF: Cycle: 25   F: -118.209001308244140   dF: -2.303e-09   |Residual|: 1.234e-05   |deigs|: 1.896e-04  t[s]:    506.32
SCF: Converged (|Delta E|<1.000000e-08 for 2 iters).


# Ionic positions in lattice coordinates:
ion C  -0.000000000000000   0.000000000000000   0.000000000000000 1
ion N   0.108900118656067   0.217800237312134   0.000000000000000 1
ion N   0.111440932313158   0.555720466156579   0.000000000000000 1
ion N   0.108900118656067   0.891099881343933   0.000000000000000 1
ion N   0.444600551142632   0.222300275571316   0.000000000000000 1
ion N   0.444279533843421   0.555720466156579   0.000000000000000 1
ion N   0.444279533843421   0.888559067686842   0.000000000000000 1
ion N   0.777699724428684   0.222300275571316   0.000000000000000 1
ion N   0.777699724428684   0.555399448857368   0.000000000000000 1
ion N   0.782199762687866   0.891099881343933   0.000000000000000 1
ion B  -0.000409163333578   0.332352225367090   0.000000000000000 1
ion B  -0.000409163333578   0.667238611299332   0.000000000000000 1
ion B   0.332761388700668   0.000409163333578   0.000000000000000 1
ion B   0.332761388700668   0.332352225367090   0.000000000000000 1
ion B   0.333333333333333   0.666666666666667   0.000000000000000 1
ion B   0.667647774632910   0.000409163333578   0.000000000000000 1
ion B   0.666666666666667   0.333333333333333   0.000000000000000 1
ion B   0.667647774632910   0.667238611299332   0.000000000000000 1

# Forces in Lattice coordinates:
force C   0.000000000000000  -0.000000000000000   0.000000000000000 1
force N   0.000000000000000  -0.096867907514543  -0.000000000000000 1
force N   0.009400344030257   0.000000000000000   0.000000000000000 1
force N  -0.096867907514544   0.096867907514542   0.000000000000000 1
force N  -0.011699016621401   0.000000000000000   0.000000000000000 1
force N  -0.009400344030257   0.009400344030257   0.000000000000000 1
force N   0.000000000000000  -0.009400344030257   0.000000000000000 1
force N   0.011699016621401  -0.011699016621401  -0.000000000000000 1
force N   0.000000000000000   0.011699016621401   0.000000000000000 1
force N   0.096867907514541   0.000000000000000   0.000000000000000 1
force B  -0.031816018986819   0.027218174446681  -0.000000000000000 1
force B  -0.004597844540138  -0.027218174446681   0.000000000000000 1
force B   0.027218174446681   0.004597844540138   0.000000000000000 1
force B   0.031816018986819  -0.004597844540137  -0.000000000000000 1
force B  -0.000000000000000   0.000000000000000   0.000000000000000 1
force B  -0.027218174446680   0.031816018986819   0.000000000000000 1
force B   0.000000000000000  -0.000000000000000   0.000000000000000 1
force B   0.004597844540138  -0.031816018986819  -0.000000000000000 1

# Energy components:
   Eewald =     -185.5884594997991428
       EH =      -93.0514476241619803
     Eloc =      115.4917640047734579
      Enl =       -5.2707504857048200
   Epulay =       -0.0000011688465181
      Exc =      -33.7435565012641376
       KE =       83.9534508544984561
-------------------------------------
     Etot =     -118.2090004205046370
       TS =        0.0000008877395059
-------------------------------------
        F =     -118.2090013082441402

IonicMinimize: Iter:   0  F: -118.209001308244140  |grad|_K:  2.057e-03  t[s]:    507.75
IonicMinimize: None of the convergence criteria satisfied after 0 iterations.

#--- Lowdin population analysis ---
# oxidation-state C +0.265
# magnetic-moments C -0.168
# oxidation-state N -0.260 -0.371 -0.260 -0.375 -0.371 -0.371 -0.375 -0.375 -0.260
# magnetic-moments N -0.002 +0.001 -0.002 -0.007 +0.001 +0.001 -0.007 -0.007 -0.002
# oxidation-state B +0.429 +0.429 +0.429 +0.429 +0.429 +0.429 +0.424 +0.429
# magnetic-moments B -0.012 -0.012 -0.012 -0.012 -0.002 -0.012 -0.004 -0.012

End date and time: Sun Feb  6 19:33:08 2022  (Duration: 0-0:08:28.09)
Done!
