magnetization is -0.58
--------------------------------------------------------------------------
The library attempted to open the following supporting CUDA libraries,
but each of them failed.  CUDA-aware support is disabled.
libcuda.so.1: cannot open shared object file: No such file or directory
libcuda.dylib: cannot open shared object file: No such file or directory
/usr/lib64/libcuda.so.1: cannot open shared object file: No such file or directory
/usr/lib64/libcuda.dylib: cannot open shared object file: No such file or directory
If you are not interested in CUDA-aware support, then run with
--mca opal_warn_on_missing_libcuda 0 to suppress this message.  If you are interested
in CUDA-aware support, then try setting LD_LIBRARY_PATH to the location
of libcuda.so.1 to get passed this issue.
--------------------------------------------------------------------------
--------------------------------------------------------------------------
No OpenFabrics connection schemes reported that they were able to be
used on a specific port.  As such, the openib BTL (OpenFabrics
support) will be disabled for this port.

  Local host:           d-17-1-2
  Local device:         mlx5_1
  Local port:           1
  CPCs attempted:       rdmacm, udcm
--------------------------------------------------------------------------

*************** JDFTx 1.6.0 (git hash 42ebbcc2) ***************

Start date and time: Sun Feb  6 19:15:28 2022
Executable jdftx with command-line: -i BN33BC.in
Running on hosts (process indices):  d-17-1-2 (0-37)
Divided in process groups (process indices):  0 (0)  1 (1)  2 (2)  3 (3)  4 (4)  5 (5)  6 (6)  7 (7)  8 (8)  9 (9)  10 (10)  11 (11)  12 (12)  13 (13)  14 (14)  15 (15)  16 (16)  17 (17)  18 (18)  19 (19)  20 (20)  21 (21)  22 (22)  23 (23)  24 (24)  25 (25)  26 (26)  27 (27)  28 (28)  29 (29)  30 (30)  31 (31)  32 (32)  33 (33)  34 (34)  35 (35)  36 (36)  37 (37)
Resource initialization completed at t[s]:      0.00
Run totals: 38 processes, 48 threads, 0 GPUs


Input parsed successfully to the following command list (including defaults):

basis kpoint-dependent
coords-type Lattice
core-overlap-check vector
coulomb-interaction Slab 001
davidson-band-ratio 1.1
dump End None
dump-name $INPUT.$VAR
elec-cutoff 20
elec-eigen-algo Davidson
elec-ex-corr gga-PBE
elec-initial-magnetization -0.580000 yes
elec-smearing Fermi 1e-05
electronic-minimize  \
	dirUpdateScheme      FletcherReeves \
	linminMethod         DirUpdateRecommended \
	nIterations          100 \
	history              15 \
	knormThreshold       0 \
	energyDiffThreshold  1e-08 \
	nEnergyDiff          2 \
	alphaTstart          1 \
	alphaTmin            1e-10 \
	updateTestStepSize   yes \
	alphaTreduceFactor   0.1 \
	alphaTincreaseFactor 3 \
	nAlphaAdjustMax      3 \
	wolfeEnergy          0.0001 \
	wolfeGradient        0.9 \
	fdTest               no
electronic-scf  \
	nIterations	1000 \
	energyDiffThreshold	1e-08 \
	residualThreshold	1e-07 \
	mixFraction	0.5 \
	qMetric	0.8 \
	history	10 \
	nEigSteps	2 \
	eigDiffThreshold	1e-08 \
	mixedVariable	Density \
	qKerker	0.8 \
	qKappa	-1 \
	verbose	no \
	mixFractionMag	1.5
exchange-regularization WignerSeitzTruncated
fluid None
fluid-ex-corr (null) lda-PZ
fluid-gummel-loop 10 1.000000e-05
fluid-minimize  \
	dirUpdateScheme      PolakRibiere \
	linminMethod         DirUpdateRecommended \
	nIterations          100 \
	history              15 \
	knormThreshold       0 \
	energyDiffThreshold  0 \
	nEnergyDiff          2 \
	alphaTstart          1 \
	alphaTmin            1e-10 \
	updateTestStepSize   yes \
	alphaTreduceFactor   0.1 \
	alphaTincreaseFactor 3 \
	nAlphaAdjustMax      3 \
	wolfeEnergy          0.0001 \
	wolfeGradient        0.9 \
	fdTest               no
fluid-solvent H2O 55.338 ScalarEOS \
	epsBulk 78.4 \
	pMol 0.92466 \
	epsInf 1.77 \
	Pvap 1.06736e-10 \
	sigmaBulk 4.62e-05 \
	Rvdw 2.61727 \
	Res 1.42 \
	tauNuc 343133 \
	poleEl 15 7 1
forces-output-coords Positions
ion C   0.000000000000000  -0.000000000000000   0.000000000000000 1
ion N   0.108900118656067   0.217800237312134   0.000000000000000 1
ion N   0.111440932313158   0.555720466156579   0.000000000000000 1
ion N   0.108900118656067   0.891099881343933   0.000000000000000 1
ion N   0.444600551142632   0.222300275571316   0.000000000000000 1
ion N   0.444279533843421   0.555720466156579   0.000000000000000 1
ion N   0.444279533843421   0.888559067686842   0.000000000000000 1
ion N   0.777699724428684   0.222300275571316   0.000000000000000 1
ion N   0.777699724428684   0.555399448857368   0.000000000000000 1
ion N   0.782199762687866   0.891099881343933   0.000000000000000 1
ion B  -0.000409163333578   0.332352225367090  -0.000000000000000 1
ion B  -0.000409163333578   0.667238611299332  -0.000000000000000 1
ion B   0.332761388700668   0.000409163333578   0.000000000000000 1
ion B   0.332761388700668   0.332352225367090  -0.000000000000000 1
ion B   0.333333333333333   0.666666666666667   0.000000000000000 1
ion B   0.667647774632910   0.000409163333578   0.000000000000000 1
ion B   0.666666666666667   0.333333333333333   0.000000000000000 1
ion B   0.667647774632910   0.667238611299332   0.000000000000000 1
ion-species SG15/$ID_ONCV_PBE.upf
ion-width 0
ionic-minimize  \
	dirUpdateScheme      L-BFGS \
	linminMethod         DirUpdateRecommended \
	nIterations          0 \
	history              15 \
	knormThreshold       0.0001 \
	energyDiffThreshold  1e-06 \
	nEnergyDiff          2 \
	alphaTstart          1 \
	alphaTmin            1e-10 \
	updateTestStepSize   yes \
	alphaTreduceFactor   0.1 \
	alphaTincreaseFactor 3 \
	nAlphaAdjustMax      3 \
	wolfeEnergy          0.0001 \
	wolfeGradient        0.9 \
	fdTest               no
kpoint   0.000000000000   0.000000000000   0.000000000000  1.00000000000000
kpoint-folding 12 12 1 
latt-move-scale 1 1 1
latt-scale 1 1 1 
lattice  \
	  14.116397090998559   -7.058198545499275    0.000000000000000  \
	  -0.000000000000000   12.225158490713497    0.000000000000000  \
	   0.000000000000000    0.000000000000000   40.000000000000000 
lattice-minimize  \
	dirUpdateScheme      L-BFGS \
	linminMethod         DirUpdateRecommended \
	nIterations          0 \
	history              15 \
	knormThreshold       0 \
	energyDiffThreshold  1e-06 \
	nEnergyDiff          2 \
	alphaTstart          1 \
	alphaTmin            1e-10 \
	updateTestStepSize   yes \
	alphaTreduceFactor   0.1 \
	alphaTincreaseFactor 3 \
	nAlphaAdjustMax      3 \
	wolfeEnergy          0.0001 \
	wolfeGradient        0.9 \
	fdTest               no
lcao-params -1 1e-06 1e-05
pcm-variant GLSSA13
spintype z-spin
subspace-rotation-factor 1 yes
symmetries automatic
symmetry-threshold 0.0001



---------- Setting up symmetries ----------

Found 24 point-group symmetries of the bravais lattice
Found 12 space-group symmetries with basis
Applied RMS atom displacement 2.54347e-15 bohrs to make symmetries exact.

---------- Initializing the Grid ----------
R = 
[      14.1164      -7.0582            0  ]
[            0      12.2252            0  ]
[            0            0           40  ]
unit cell volume = 6903.01
G =
[   0.445098   0.256978         -0  ]
[          0   0.513955         -0  ]
[         -0         -0    0.15708  ]
Minimum fftbox size, Smin = [  60  60  164  ]
Chosen fftbox size, S = [  60  60  168  ]

---------- Exchange Correlation functional ----------
Initalized PBE GGA exchange.
Initalized PBE GGA correlation.

---------- Setting up pseudopotentials ----------
Width of ionic core gaussian charges (only for fluid interactions / plotting) set to 0

Reading pseudopotential file '/home/gridsan/aligho/DFT/build-Nov24/pseudopotentials/SG15/C_ONCV_PBE.upf':
  'C' pseudopotential, 'PBE' functional
  Generated using ONCVPSP code by D. R. Hamann
  Author: Martin Schlipf and Francois Gygi  Date: 150915.
  4 valence electrons, 2 orbitals, 4 projectors, 1248 radial grid points, with lMax = 1
  Transforming local potential to a uniform radial grid of dG=0.02 with 1495 points.
  Transforming nonlocal projectors to a uniform radial grid of dG=0.02 with 432 points.
    2S    l: 0   occupation:  2.0   eigenvalue: -0.505335
    2P    l: 1   occupation:  2.0   eigenvalue: -0.194238
  Transforming atomic orbitals to a uniform radial grid of dG=0.02 with 432 points.
  Core radius for overlap checks: 1.23 bohrs.
  Reading pulay file /home/gridsan/aligho/DFT/build-Nov24/pseudopotentials/SG15/C_ONCV_PBE.pulay ... using dE_dnG = -9.239532e-03 computed for Ecut = 20.

Reading pseudopotential file '/home/gridsan/aligho/DFT/build-Nov24/pseudopotentials/SG15/N_ONCV_PBE.upf':
  'N' pseudopotential, 'PBE' functional
  Generated using ONCVPSP code by D. R. Hamann
  Author: Martin Schlipf and Francois Gygi  Date: 150915.
  5 valence electrons, 2 orbitals, 4 projectors, 1058 radial grid points, with lMax = 1
  Transforming local potential to a uniform radial grid of dG=0.02 with 1495 points.
  Transforming nonlocal projectors to a uniform radial grid of dG=0.02 with 432 points.
    2S    l: 0   occupation:  2.0   eigenvalue: -0.682907
    2P    l: 1   occupation:  3.0   eigenvalue: -0.260548
  Transforming atomic orbitals to a uniform radial grid of dG=0.02 with 432 points.
  Core radius for overlap checks: 1.35 bohrs.
  Reading pulay file /home/gridsan/aligho/DFT/build-Nov24/pseudopotentials/SG15/N_ONCV_PBE.pulay ... using dE_dnG = -2.956256e-02 computed for Ecut = 20.

Reading pseudopotential file '/home/gridsan/aligho/DFT/build-Nov24/pseudopotentials/SG15/B_ONCV_PBE.upf':
  'B' pseudopotential, 'PBE' functional
  Generated using ONCVPSP code by D. R. Hamann
  Author: Martin Schlipf and Francois Gygi  Date: 150915.
  3 valence electrons, 2 orbitals, 4 projectors, 1534 radial grid points, with lMax = 1
  Transforming local potential to a uniform radial grid of dG=0.02 with 1495 points.
  Transforming nonlocal projectors to a uniform radial grid of dG=0.02 with 432 points.
    2S    l: 0   occupation:  2.0   eigenvalue: -0.347027
    2P    l: 1   occupation:  1.0   eigenvalue: -0.132548
  Transforming atomic orbitals to a uniform radial grid of dG=0.02 with 432 points.
  Core radius for overlap checks: 1.60 bohrs.
  Reading pulay file /home/gridsan/aligho/DFT/build-Nov24/pseudopotentials/SG15/B_ONCV_PBE.pulay ... using dE_dnG = -3.748568e-04 computed for Ecut = 20.

Initialized 3 species with 18 total atoms.

Folded 1 k-points by 12x12x1 to 144 k-points.

---------- Setting up k-points, bands, fillings ----------
Adding inversion symmetry to k-mesh for non-inversion-symmetric unit cell.
Reduced to 19 k-points under symmetry. 
Computing the number of bands and number of electrons
Calculating initial fillings.
nElectrons:  73.000000   nBands: 72   nStates: 38

----- Setting up reduced wavefunction bases (one per k-point) -----
average nbasis = 29490.146 , ideal nbasis = 29490.175

---------- Setting up coulomb interaction ----------
Initialized slab truncation along lattice direction 001

---------- Setting up 2D ewald sum ----------
Optimum gaussian width for ewald sums = 7.836854 bohr.
Real space sums over 289 unit cells with max indices [  8  8  0  ]
Reciprocal space sums over 81 terms with max indices [  4  4  0  ]

---------- Allocating electronic variables ----------
Initializing wave functions:  linear combination of atomic orbitals
C pseudo-atom occupations:   s ( 2 )  p ( 2 )
N pseudo-atom occupations:   s ( 2 )  p ( 3 )
B pseudo-atom occupations:   s ( 2 )  p ( 1 )
[d-17-1-2:31303] 37 more processes have sent help message help-mpi-common-cuda.txt / dlopen failed
[d-17-1-2:31303] Set MCA parameter "orte_base_help_aggregate" to 0 to see all help / error messages
[d-17-1-2:31303] 37 more processes have sent help message help-mpi-btl-openib-cpc-base.txt / no cpcs for port
	FillingsUpdate:  mu: -0.192348770  nElectrons: 73.000000  magneticMoment: [ Abs: 0.60249  Tot: -0.58000 ]
LCAOMinimize: Iter:   0  F: -116.5190778266324969  |grad|_K:  4.478e-03  alpha:  1.000e+00
	FillingsUpdate:  mu: -0.220497706  nElectrons: 73.000000  magneticMoment: [ Abs: 0.60739  Tot: -0.58000 ]
LCAOMinimize: Iter:   1  F: -117.1880096766598172  |grad|_K:  1.020e-03  alpha:  4.003e-01  linmin:  1.705e-01  cgtest: -5.948e-01  t[s]:     24.81
	FillingsUpdate:  mu: -0.185089837  nElectrons: 73.000000  magneticMoment: [ Abs: 0.61013  Tot: -0.58000 ]
LCAOMinimize: Iter:   2  F: -117.2034457802132721  |grad|_K:  6.189e-04  alpha:  2.538e-01  linmin:  2.554e-03  cgtest:  7.512e-01  t[s]:     32.39
LCAOMinimize: Encountered beta<0, resetting CG.
	FillingsUpdate:  mu: -0.171495709  nElectrons: 73.000000  magneticMoment: [ Abs: 0.61152  Tot: -0.58000 ]
LCAOMinimize: Iter:   3  F: -117.2168268863797493  |grad|_K:  1.122e-04  alpha:  3.462e-01  linmin:  1.466e-02  cgtest: -7.342e-02  t[s]:     39.96
	FillingsUpdate:  mu: -0.175649366  nElectrons: 73.000000  magneticMoment: [ Abs: 0.61232  Tot: -0.58000 ]
LCAOMinimize: Iter:   4  F: -117.2172681378396817  |grad|_K:  1.386e-05  alpha:  3.512e-01  linmin:  1.132e-02  cgtest:  1.455e-01  t[s]:     47.52
LCAOMinimize: Encountered beta<0, resetting CG.
	FillingsUpdate:  mu: -0.175985938  nElectrons: 73.000000  magneticMoment: [ Abs: 0.61309  Tot: -0.58000 ]
LCAOMinimize: Iter:   5  F: -117.2172784320943606  |grad|_K:  8.610e-06  alpha:  5.297e-01  linmin:  1.243e-04  cgtest: -4.121e-04  t[s]:     55.10
	FillingsUpdate:  mu: -0.175681812  nElectrons: 73.000000  magneticMoment: [ Abs: 0.61437  Tot: -0.58000 ]
LCAOMinimize: Iter:   6  F: -117.2172839406351699  |grad|_K:  4.033e-06  alpha:  7.330e-01  linmin: -2.088e-03  cgtest:  1.238e-02  t[s]:     62.67
	FillingsUpdate:  mu: -0.175806796  nElectrons: 73.000000  magneticMoment: [ Abs: 0.61455  Tot: -0.58000 ]
LCAOMinimize: Iter:   7  F: -117.2172847089519507  |grad|_K:  9.306e-07  alpha:  4.643e-01  linmin: -4.807e-05  cgtest: -2.240e-02  t[s]:     70.28
	FillingsUpdate:  mu: -0.175798239  nElectrons: 73.000000  magneticMoment: [ Abs: 0.61434  Tot: -0.58000 ]
LCAOMinimize: Iter:   8  F: -117.2172847807936193  |grad|_K:  4.203e-07  alpha:  8.164e-01  linmin: -3.448e-03  cgtest:  1.129e-02  t[s]:     77.85
LCAOMinimize: Converged (|Delta F|<1.000000e-06 for 2 iters).


---- Citations for features of the code used in this run ----

   Software package:
      R. Sundararaman, K. Letchworth-Weaver, K.A. Schwarz, D. Gunceler, Y. Ozhabes and T.A. Arias, 'JDFTx: software for joint density-functional theory', SoftwareX 6, 278 (2017)

   gga-PBE exchange-correlation functional:
      J.P. Perdew, K. Burke and M. Ernzerhof, Phys. Rev. Lett. 77, 3865 (1996)

   Pseudopotentials:
      M Schlipf and F Gygi, Comput. Phys. Commun. 196, 36 (2015)

   Truncated Coulomb potentials:
      R. Sundararaman and T.A. Arias, Phys. Rev. B 87, 165122 (2013)

This list may not be complete. Please suggest additional citations or
report any other bugs at https://github.com/shankar1729/jdftx/issues

Initialization completed successfully at t[s]:     78.63


-------- Electronic minimization -----------
Will mix electronic density at each iteration.
	FillingsUpdate:  mu: -0.175798239  nElectrons: 73.000000  magneticMoment: [ Abs: 0.61434  Tot: -0.58000 ]
	FillingsUpdate:  mu: -0.191076041  nElectrons: 73.000000  magneticMoment: [ Abs: 0.61434  Tot: -0.58000 ]
SCF: Cycle:  0   F: -118.143542349497153   dF: -9.263e-01   |Residual|: 3.368e-01   |deigs|: 1.137e-01  t[s]:     99.19
	FillingsUpdate:  mu: -0.169760840  nElectrons: 73.000000  magneticMoment: [ Abs: 0.64386  Tot: -0.58000 ]
SCF: Cycle:  1   F: -118.182650881788291   dF: -3.911e-02   |Residual|: 1.878e-01   |deigs|: 2.536e-02  t[s]:    114.52
	FillingsUpdate:  mu: -0.141023311  nElectrons: 73.000000  magneticMoment: [ Abs: 0.65833  Tot: -0.58000 ]
SCF: Cycle:  2   F: -118.208423470240959   dF: -2.577e-02   |Residual|: 4.094e-02   |deigs|: 2.996e-02  t[s]:    129.81
	FillingsUpdate:  mu: -0.137669958  nElectrons: 73.000000  magneticMoment: [ Abs: 0.65876  Tot: -0.58000 ]
SCF: Cycle:  3   F: -118.209212012876492   dF: -7.885e-04   |Residual|: 2.292e-02   |deigs|: 7.836e-03  t[s]:    145.09
	FillingsUpdate:  mu: -0.126198487  nElectrons: 73.000000  magneticMoment: [ Abs: 0.64836  Tot: -0.58000 ]
SCF: Cycle:  4   F: -118.210628667460782   dF: -1.417e-03   |Residual|: 1.221e-02   |deigs|: 1.027e-02  t[s]:    160.52
	FillingsUpdate:  mu: -0.121333668  nElectrons: 73.000000  magneticMoment: [ Abs: 0.65577  Tot: -0.58000 ]
SCF: Cycle:  5   F: -118.210948847384941   dF: -3.202e-04   |Residual|: 9.243e-03   |deigs|: 4.230e-03  t[s]:    176.09
	FillingsUpdate:  mu: -0.115096924  nElectrons: 73.000000  magneticMoment: [ Abs: 0.65068  Tot: -0.58000 ]
SCF: Cycle:  6   F: -118.211063077040762   dF: -1.142e-04   |Residual|: 5.901e-03   |deigs|: 5.676e-03  t[s]:    191.74
	FillingsUpdate:  mu: -0.110631356  nElectrons: 73.000000  magneticMoment: [ Abs: 0.64886  Tot: -0.58000 ]
SCF: Cycle:  7   F: -118.211039526171888   dF: +2.355e-05   |Residual|: 4.842e-03   |deigs|: 5.633e-03  t[s]:    207.49
	FillingsUpdate:  mu: -0.106155901  nElectrons: 73.000000  magneticMoment: [ Abs: 0.65063  Tot: -0.58000 ]
SCF: Cycle:  8   F: -118.211106094002247   dF: -6.657e-05   |Residual|: 3.883e-03   |deigs|: 4.518e-03  t[s]:    223.25
	FillingsUpdate:  mu: -0.103421727  nElectrons: 73.000000  magneticMoment: [ Abs: 0.64824  Tot: -0.58000 ]
SCF: Cycle:  9   F: -118.211148526169609   dF: -4.243e-05   |Residual|: 3.039e-03   |deigs|: 2.892e-03  t[s]:    239.10
	FillingsUpdate:  mu: -0.101108263  nElectrons: 73.000000  magneticMoment: [ Abs: 0.64911  Tot: -0.58000 ]
SCF: Cycle: 10   F: -118.211174722521051   dF: -2.620e-05   |Residual|: 2.639e-03   |deigs|: 2.406e-03  t[s]:    255.01
	FillingsUpdate:  mu: -0.098097476  nElectrons: 73.000000  magneticMoment: [ Abs: 0.64911  Tot: -0.58000 ]
SCF: Cycle: 11   F: -118.211191432850413   dF: -1.671e-05   |Residual|: 2.144e-03   |deigs|: 2.862e-03  t[s]:    270.87
	FillingsUpdate:  mu: -0.095678752  nElectrons: 73.000000  magneticMoment: [ Abs: 0.64810  Tot: -0.58000 ]
SCF: Cycle: 12   F: -118.211197991132678   dF: -6.558e-06   |Residual|: 1.946e-03   |deigs|: 2.228e-03  t[s]:    286.67
	FillingsUpdate:  mu: -0.092013566  nElectrons: 73.000000  magneticMoment: [ Abs: 0.64927  Tot: -0.58000 ]
SCF: Cycle: 13   F: -118.211200866781837   dF: -2.876e-06   |Residual|: 1.671e-03   |deigs|: 3.480e-03  t[s]:    302.56
	FillingsUpdate:  mu: -0.088571137  nElectrons: 73.000000  magneticMoment: [ Abs: 0.64748  Tot: -0.58000 ]
SCF: Cycle: 14   F: -118.211200067008178   dF: +7.998e-07   |Residual|: 1.656e-03   |deigs|: 3.015e-03  t[s]:    318.42
	FillingsUpdate:  mu: -0.084399747  nElectrons: 73.000000  magneticMoment: [ Abs: 0.64911  Tot: -0.58000 ]
SCF: Cycle: 15   F: -118.211200489182559   dF: -4.222e-07   |Residual|: 1.451e-03   |deigs|: 3.844e-03  t[s]:    334.25
	FillingsUpdate:  mu: -0.080802655  nElectrons: 73.000000  magneticMoment: [ Abs: 0.64876  Tot: -0.58000 ]
SCF: Cycle: 16   F: -118.211204003158372   dF: -3.514e-06   |Residual|: 1.195e-03   |deigs|: 3.350e-03  t[s]:    350.09
	FillingsUpdate:  mu: -0.078816492  nElectrons: 73.000000  magneticMoment: [ Abs: 0.64761  Tot: -0.58000 ]
SCF: Cycle: 17   F: -118.211209186898742   dF: -5.184e-06   |Residual|: 8.959e-04   |deigs|: 1.732e-03  t[s]:    365.92
	FillingsUpdate:  mu: -0.077802699  nElectrons: 73.000000  magneticMoment: [ Abs: 0.64728  Tot: -0.58000 ]
SCF: Cycle: 18   F: -118.211211668730442   dF: -2.482e-06   |Residual|: 5.761e-04   |deigs|: 1.213e-03  t[s]:    381.81
	FillingsUpdate:  mu: -0.077319389  nElectrons: 73.000000  magneticMoment: [ Abs: 0.64729  Tot: -0.58000 ]
SCF: Cycle: 19   F: -118.211212386248263   dF: -7.175e-07   |Residual|: 3.536e-04   |deigs|: 5.243e-04  t[s]:    397.76
	FillingsUpdate:  mu: -0.077009180  nElectrons: 73.000000  magneticMoment: [ Abs: 0.64732  Tot: -0.58000 ]
SCF: Cycle: 20   F: -118.211212768923460   dF: -3.827e-07   |Residual|: 2.298e-04   |deigs|: 5.654e-04  t[s]:    413.76
	FillingsUpdate:  mu: -0.076748699  nElectrons: 73.000000  magneticMoment: [ Abs: 0.64719  Tot: -0.58000 ]
SCF: Cycle: 21   F: -118.211212994058045   dF: -2.251e-07   |Residual|: 1.406e-04   |deigs|: 5.513e-04  t[s]:    429.79
	FillingsUpdate:  mu: -0.076558912  nElectrons: 73.000000  magneticMoment: [ Abs: 0.64704  Tot: -0.58000 ]
SCF: Cycle: 22   F: -118.211213092365242   dF: -9.831e-08   |Residual|: 7.356e-05   |deigs|: 8.967e-04  t[s]:    445.83
	FillingsUpdate:  mu: -0.076489990  nElectrons: 73.000000  magneticMoment: [ Abs: 0.64699  Tot: -0.58000 ]
SCF: Cycle: 23   F: -118.211213115978964   dF: -2.361e-08   |Residual|: 4.754e-05   |deigs|: 1.701e-04  t[s]:    461.91
	FillingsUpdate:  mu: -0.076449225  nElectrons: 73.000000  magneticMoment: [ Abs: 0.64698  Tot: -0.58000 ]
SCF: Cycle: 24   F: -118.211213126972183   dF: -1.099e-08   |Residual|: 2.740e-05   |deigs|: 1.903e-04  t[s]:    477.90
	FillingsUpdate:  mu: -0.076432248  nElectrons: 73.000000  magneticMoment: [ Abs: 0.64697  Tot: -0.58000 ]
SCF: Cycle: 25   F: -118.211213131144078   dF: -4.172e-09   |Residual|: 1.569e-05   |deigs|: 3.311e-04  t[s]:    493.83
	FillingsUpdate:  mu: -0.076426174  nElectrons: 73.000000  magneticMoment: [ Abs: 0.64697  Tot: -0.58000 ]
SCF: Cycle: 26   F: -118.211213132484360   dF: -1.340e-09   |Residual|: 8.912e-06   |deigs|: 1.295e-04  t[s]:    509.74
SCF: Converged (|Delta E|<1.000000e-08 for 2 iters).


# Ionic positions in lattice coordinates:
ion C  -0.000000000000000   0.000000000000000   0.000000000000000 1
ion N   0.108900118656067   0.217800237312134   0.000000000000000 1
ion N   0.111440932313158   0.555720466156579   0.000000000000000 1
ion N   0.108900118656067   0.891099881343933   0.000000000000000 1
ion N   0.444600551142632   0.222300275571316   0.000000000000000 1
ion N   0.444279533843421   0.555720466156579   0.000000000000000 1
ion N   0.444279533843421   0.888559067686842   0.000000000000000 1
ion N   0.777699724428684   0.222300275571316   0.000000000000000 1
ion N   0.777699724428684   0.555399448857368   0.000000000000000 1
ion N   0.782199762687866   0.891099881343933   0.000000000000000 1
ion B  -0.000409163333578   0.332352225367090   0.000000000000000 1
ion B  -0.000409163333578   0.667238611299332   0.000000000000000 1
ion B   0.332761388700668   0.000409163333578   0.000000000000000 1
ion B   0.332761388700668   0.332352225367090   0.000000000000000 1
ion B   0.333333333333333   0.666666666666667   0.000000000000000 1
ion B   0.667647774632910   0.000409163333578   0.000000000000000 1
ion B   0.666666666666667   0.333333333333333   0.000000000000000 1
ion B   0.667647774632910   0.667238611299332   0.000000000000000 1

# Forces in Lattice coordinates:
force C   0.000000000000000  -0.000000000000000   0.000000000000000 1
force N   0.000000000000000  -0.070450155143007   0.000000000000000 1
force N   0.006371545518545  -0.000000000000000   0.000000000000000 1
force N  -0.070450155143007   0.070450155143007   0.000000000000000 1
force N  -0.008371233160321   0.000000000000000   0.000000000000000 1
force N  -0.006371545518545   0.006371545518545  -0.000000000000000 1
force N   0.000000000000000  -0.006371545518545  -0.000000000000000 1
force N   0.008371233160321  -0.008371233160321   0.000000000000000 1
force N   0.000000000000000   0.008371233160321  -0.000000000000000 1
force N   0.070450155143006   0.000000000000000   0.000000000000000 1
force B  -0.024200650953443   0.020471027063846   0.000000000000000 1
force B  -0.003729623889598  -0.020471027063846  -0.000000000000000 1
force B   0.020471027063846   0.003729623889597  -0.000000000000000 1
force B   0.024200650953443  -0.003729623889597  -0.000000000000000 1
force B   0.000000000000000  -0.000000000000000   0.000000000000000 1
force B  -0.020471027063846   0.024200650953443  -0.000000000000000 1
force B   0.000000000000000   0.000000000000000   0.000000000000000 1
force B   0.003729623889598  -0.024200650953443   0.000000000000000 1

# Energy components:
   Eewald =     -185.5884594997991428
       EH =      -93.0354090220570527
     Eloc =      115.4705479689929462
      Enl =       -5.2745380692512596
   Epulay =       -0.0000011688465181
      Exc =      -33.7494523626340879
       KE =       83.9660999565567465
-------------------------------------
     Etot =     -118.2112121970383782
       TS =        0.0000009354459885
-------------------------------------
        F =     -118.2112131324843602

IonicMinimize: Iter:   0  F: -118.211213132484360  |grad|_K:  1.505e-03  t[s]:    511.19
IonicMinimize: None of the convergence criteria satisfied after 0 iterations.

#--- Lowdin population analysis ---
# oxidation-state C +0.268
# magnetic-moments C -0.343
# oxidation-state N -0.263 -0.372 -0.263 -0.376 -0.372 -0.372 -0.376 -0.376 -0.263
# magnetic-moments N -0.003 +0.002 -0.003 -0.014 +0.002 +0.002 -0.014 -0.014 -0.003
# oxidation-state B +0.429 +0.429 +0.429 +0.429 +0.431 +0.429 +0.427 +0.429
# magnetic-moments B -0.026 -0.026 -0.026 -0.026 -0.009 -0.026 -0.012 -0.026

End date and time: Sun Feb  6 19:24:00 2022  (Duration: 0-0:08:31.52)
Done!
