The alkali metal is K
scale=2
magnetization=-0.42
--------------------------------------------------------------------------
The library attempted to open the following supporting CUDA libraries,
but each of them failed.  CUDA-aware support is disabled.
libcuda.so.1: cannot open shared object file: No such file or directory
libcuda.dylib: cannot open shared object file: No such file or directory
/usr/lib64/libcuda.so.1: cannot open shared object file: No such file or directory
/usr/lib64/libcuda.dylib: cannot open shared object file: No such file or directory
If you are not interested in CUDA-aware support, then run with
--mca opal_warn_on_missing_libcuda 0 to suppress this message.  If you are interested
in CUDA-aware support, then try setting LD_LIBRARY_PATH to the location
of libcuda.so.1 to get passed this issue.
--------------------------------------------------------------------------
--------------------------------------------------------------------------
No OpenFabrics connection schemes reported that they were able to be
used on a specific port.  As such, the openib BTL (OpenFabrics
support) will be disabled for this port.

  Local host:           d-6-7-4
  Local device:         mlx5_1
  Local port:           1
  CPCs attempted:       rdmacm, udcm
--------------------------------------------------------------------------

*************** JDFTx 1.6.0 (git hash 42ebbcc2) ***************

Start date and time: Sat Feb  5 23:36:44 2022
Executable jdftx with command-line: -i Alkali.in
Running on hosts (process indices):  d-6-7-4 (0-18)
Divided in process groups (process indices):  0 (0)  1 (1)  2 (2)  3 (3)  4 (4)  5 (5)  6 (6)  7 (7)  8 (8)  9 (9)  10 (10)  11 (11)  12 (12)  13 (13)  14 (14)  15 (15)  16 (16)  17 (17)  18 (18)
Resource initialization completed at t[s]:      0.00
Run totals: 19 processes, 48 threads, 0 GPUs


Input parsed successfully to the following command list (including defaults):

basis kpoint-dependent
coords-type Lattice
core-overlap-check vector
coulomb-interaction Slab 001
davidson-band-ratio 1.1
dump End None
dump-name $INPUT.$VAR
elec-cutoff 20
elec-eigen-algo Davidson
elec-ex-corr gga-PBE
elec-initial-magnetization -0.420000 yes
elec-smearing Fermi 1e-05
electronic-minimize  \
	dirUpdateScheme      FletcherReeves \
	linminMethod         DirUpdateRecommended \
	nIterations          100 \
	history              15 \
	knormThreshold       0 \
	energyDiffThreshold  1e-08 \
	nEnergyDiff          2 \
	alphaTstart          1 \
	alphaTmin            1e-10 \
	updateTestStepSize   yes \
	alphaTreduceFactor   0.1 \
	alphaTincreaseFactor 3 \
	nAlphaAdjustMax      3 \
	wolfeEnergy          0.0001 \
	wolfeGradient        0.9 \
	fdTest               no
electronic-scf  \
	nIterations	10000 \
	energyDiffThreshold	1e-08 \
	residualThreshold	1e-07 \
	mixFraction	0.5 \
	qMetric	0.8 \
	history	10 \
	nEigSteps	2 \
	eigDiffThreshold	1e-08 \
	mixedVariable	Density \
	qKerker	0.8 \
	qKappa	-1 \
	verbose	no \
	mixFractionMag	1.5
exchange-regularization WignerSeitzTruncated
fluid None
fluid-ex-corr (null) lda-PZ
fluid-gummel-loop 10 1.000000e-05
fluid-minimize  \
	dirUpdateScheme      PolakRibiere \
	linminMethod         DirUpdateRecommended \
	nIterations          100 \
	history              15 \
	knormThreshold       0 \
	energyDiffThreshold  0 \
	nEnergyDiff          2 \
	alphaTstart          1 \
	alphaTmin            1e-10 \
	updateTestStepSize   yes \
	alphaTreduceFactor   0.1 \
	alphaTincreaseFactor 3 \
	nAlphaAdjustMax      3 \
	wolfeEnergy          0.0001 \
	wolfeGradient        0.9 \
	fdTest               no
fluid-solvent H2O 55.338 ScalarEOS \
	epsBulk 78.4 \
	pMol 0.92466 \
	epsInf 1.77 \
	Pvap 1.06736e-10 \
	sigmaBulk 4.62e-05 \
	Rvdw 2.61727 \
	Res 1.42 \
	tauNuc 343133 \
	poleEl 15 7 1
forces-output-coords Positions
ion K   0.000000000000000   0.000000000000000   0.000000000000000 0
ion-species SG15/$ID_ONCV_PBE.upf
ion-width 0
ionic-minimize  \
	dirUpdateScheme      L-BFGS \
	linminMethod         DirUpdateRecommended \
	nIterations          0 \
	history              15 \
	knormThreshold       0.0001 \
	energyDiffThreshold  1e-06 \
	nEnergyDiff          2 \
	alphaTstart          1 \
	alphaTmin            1e-10 \
	updateTestStepSize   yes \
	alphaTreduceFactor   0.1 \
	alphaTincreaseFactor 3 \
	nAlphaAdjustMax      3 \
	wolfeEnergy          0.0001 \
	wolfeGradient        0.9 \
	fdTest               no
kpoint   0.000000000000   0.000000000000   0.000000000000  1.00000000000000
kpoint-folding 12 12 1 
latt-move-scale 1 1 1
latt-scale 2 2 1 
lattice  \
	   4.727486978767153   -2.363743489383575    0.000000000000000  \
	  -0.000000000000000    4.094123819672498    0.000000000000000  \
	   0.000000000000000    0.000000000000000   40.000000000000000 
lattice-minimize  \
	dirUpdateScheme      L-BFGS \
	linminMethod         DirUpdateRecommended \
	nIterations          0 \
	history              15 \
	knormThreshold       0 \
	energyDiffThreshold  1e-06 \
	nEnergyDiff          2 \
	alphaTstart          1 \
	alphaTmin            1e-10 \
	updateTestStepSize   yes \
	alphaTreduceFactor   0.1 \
	alphaTincreaseFactor 3 \
	nAlphaAdjustMax      3 \
	wolfeEnergy          0.0001 \
	wolfeGradient        0.9 \
	fdTest               no
lcao-params -1 1e-06 1e-05
pcm-variant GLSSA13
spintype z-spin
subspace-rotation-factor 1 yes
symmetries automatic
symmetry-threshold 0.0001



---------- Setting up symmetries ----------

Found 24 point-group symmetries of the bravais lattice
Found 24 space-group symmetries with basis
Applied RMS atom displacement 0 bohrs to make symmetries exact.

---------- Initializing the Grid ----------
R = 
[      9.45497     -4.72749            0  ]
[            0      8.18825            0  ]
[            0            0           40  ]
unit cell volume = 3096.79
G =
[   0.664538   0.383671         -0  ]
[          0   0.767342         -0  ]
[         -0         -0    0.15708  ]
Minimum fftbox size, Smin = [  40  40  164  ]
Chosen fftbox size, S = [  40  40  168  ]

---------- Exchange Correlation functional ----------
Initalized PBE GGA exchange.
Initalized PBE GGA correlation.

---------- Setting up pseudopotentials ----------
Width of ionic core gaussian charges (only for fluid interactions / plotting) set to 0

Reading pseudopotential file '/home/gridsan/aligho/DFT/build-Nov24/pseudopotentials/SG15/K_ONCV_PBE.upf':
  'K' pseudopotential, 'PBE' functional
  Generated using ONCVPSP code by D. R. Hamann
  Author: Martin Schlipf and Francois Gygi  Date: 150915.
  9 valence electrons, 3 orbitals, 6 projectors, 2222 radial grid points, with lMax = 2
  Transforming local potential to a uniform radial grid of dG=0.02 with 1489 points.
  Transforming nonlocal projectors to a uniform radial grid of dG=0.02 with 432 points.
    3S    l: 0   occupation:  2.0   eigenvalue: -1.298836
    3P    l: 1   occupation:  6.0   eigenvalue: -0.691386
    4S    l: 0   occupation:  1.0   eigenvalue: -0.085223
  Transforming atomic orbitals to a uniform radial grid of dG=0.02 with 432 points.
  Core radius for overlap checks: 2.06 bohrs.
  Reading pulay file /home/gridsan/aligho/DFT/build-Nov24/pseudopotentials/SG15/K_ONCV_PBE.pulay ... using dE_dnG = -1.597219e-05 computed for Ecut = 20.

Initialized 1 species with 1 total atoms.

Folded 1 k-points by 12x12x1 to 144 k-points.

---------- Setting up k-points, bands, fillings ----------
Reduced to 19 k-points under symmetry. 
Computing the number of bands and number of electrons
Calculating initial fillings.
nElectrons:   9.000000   nBands: 6   nStates: 38

----- Setting up reduced wavefunction bases (one per k-point) -----
average nbasis = 13230.521 , ideal nbasis = 13229.709

---------- Setting up coulomb interaction ----------
Initialized slab truncation along lattice direction 001

---------- Setting up 2D ewald sum ----------
Optimum gaussian width for ewald sums = 5.249020 bohr.
Real space sums over 289 unit cells with max indices [  8  8  0  ]
Reciprocal space sums over 81 terms with max indices [  4  4  0  ]

---------- Allocating electronic variables ----------
Initializing wave functions:  linear combination of atomic orbitals
Note: number of bands (6) exceeds available atomic orbitals (5)
K pseudo-atom occupations:   s ( 2 1 )  p ( 6 )
	FillingsUpdate:  mu: -0.094768073  nElectrons: 9.000000  magneticMoment: [ Abs: 0.42000  Tot: -0.42000 ]
LCAOMinimize: Iter:   0  F: -28.3946440954729376  |grad|_K:  3.404e-05  alpha:  1.000e+00
	FillingsUpdate:  mu: -0.094757926  nElectrons: 9.000000  magneticMoment: [ Abs: 0.42000  Tot: -0.42000 ]
LCAOMinimize: Iter:   1  F: -28.3946448712672108  |grad|_K:  3.014e-07  alpha:  9.790e-01  linmin: -3.416e-02  cgtest:  5.423e-01  t[s]:      4.44
LCAOMinimize: Encountered beta<0, resetting CG.
[d-6-7-4:10005] 18 more processes have sent help message help-mpi-common-cuda.txt / dlopen failed
[d-6-7-4:10005] Set MCA parameter "orte_base_help_aggregate" to 0 to see all help / error messages
[d-6-7-4:10005] 18 more processes have sent help message help-mpi-btl-openib-cpc-base.txt / no cpcs for port
	FillingsUpdate:  mu: -0.094757942  nElectrons: 9.000000  magneticMoment: [ Abs: 0.42000  Tot: -0.42000 ]
LCAOMinimize: Iter:   2  F: -28.3946448713290280  |grad|_K:  1.431e-09  alpha:  9.973e-01  linmin: -6.094e-02  cgtest:  7.095e-01  t[s]:      5.70
LCAOMinimize: Encountered beta<0, resetting CG.
LCAOMinimize: Converged (|Delta F|<1.000000e-06 for 2 iters).


---- Citations for features of the code used in this run ----

   Software package:
      R. Sundararaman, K. Letchworth-Weaver, K.A. Schwarz, D. Gunceler, Y. Ozhabes and T.A. Arias, 'JDFTx: software for joint density-functional theory', SoftwareX 6, 278 (2017)

   gga-PBE exchange-correlation functional:
      J.P. Perdew, K. Burke and M. Ernzerhof, Phys. Rev. Lett. 77, 3865 (1996)

   Pseudopotentials:
      M Schlipf and F Gygi, Comput. Phys. Commun. 196, 36 (2015)

   Truncated Coulomb potentials:
      R. Sundararaman and T.A. Arias, Phys. Rev. B 87, 165122 (2013)

This list may not be complete. Please suggest additional citations or
report any other bugs at https://github.com/shankar1729/jdftx/issues

Initialization completed successfully at t[s]:      5.79


-------- Electronic minimization -----------
Will mix electronic density at each iteration.
	FillingsUpdate:  mu: -0.094757942  nElectrons: 9.000000  magneticMoment: [ Abs: 0.42000  Tot: -0.42000 ]
	FillingsUpdate:  mu: -0.106224439  nElectrons: 9.000000  magneticMoment: [ Abs: 0.42000  Tot: -0.42000 ]
SCF: Cycle:  0   F: -28.401151206603455   dF: -6.506e-03   |Residual|: 1.036e-02   |deigs|: 1.741e-01  t[s]:      8.14
	FillingsUpdate:  mu: -0.105962456  nElectrons: 9.000000  magneticMoment: [ Abs: 0.42000  Tot: -0.42000 ]
SCF: Cycle:  1   F: -28.401348649324550   dF: -1.974e-04   |Residual|: 7.768e-03   |deigs|: 5.500e-03  t[s]:      9.92
	FillingsUpdate:  mu: -0.104675576  nElectrons: 9.000000  magneticMoment: [ Abs: 0.42385  Tot: -0.42000 ]
SCF: Cycle:  2   F: -28.401391316235369   dF: -4.267e-05   |Residual|: 4.247e-03   |deigs|: 3.925e-03  t[s]:     11.72
	FillingsUpdate:  mu: -0.104015521  nElectrons: 9.000000  magneticMoment: [ Abs: 0.42000  Tot: -0.42000 ]
SCF: Cycle:  3   F: -28.401457325048330   dF: -6.601e-05   |Residual|: 2.723e-03   |deigs|: 3.189e-03  t[s]:     13.55
	FillingsUpdate:  mu: -0.102619226  nElectrons: 9.000000  magneticMoment: [ Abs: 0.42003  Tot: -0.42000 ]
SCF: Cycle:  4   F: -28.401492515149098   dF: -3.519e-05   |Residual|: 1.813e-03   |deigs|: 3.598e-03  t[s]:     15.44
	FillingsUpdate:  mu: -0.101305260  nElectrons: 9.000000  magneticMoment: [ Abs: 0.42111  Tot: -0.42000 ]
SCF: Cycle:  5   F: -28.401511040821187   dF: -1.853e-05   |Residual|: 1.463e-03   |deigs|: 4.140e-03  t[s]:     17.29
	FillingsUpdate:  mu: -0.099409385  nElectrons: 9.000000  magneticMoment: [ Abs: 0.42616  Tot: -0.42000 ]
SCF: Cycle:  6   F: -28.401519242653730   dF: -8.202e-06   |Residual|: 1.049e-03   |deigs|: 3.056e-03  t[s]:     19.25
	FillingsUpdate:  mu: -0.097604424  nElectrons: 9.000000  magneticMoment: [ Abs: 0.42675  Tot: -0.42000 ]
SCF: Cycle:  7   F: -28.401532785313748   dF: -1.354e-05   |Residual|: 8.915e-04   |deigs|: 2.773e-03  t[s]:     21.18
	FillingsUpdate:  mu: -0.097274982  nElectrons: 9.000000  magneticMoment: [ Abs: 0.42188  Tot: -0.42000 ]
SCF: Cycle:  8   F: -28.401548902252177   dF: -1.612e-05   |Residual|: 7.215e-04   |deigs|: 7.174e-04  t[s]:     23.13
	FillingsUpdate:  mu: -0.096353942  nElectrons: 9.000000  magneticMoment: [ Abs: 0.42238  Tot: -0.42000 ]
SCF: Cycle:  9   F: -28.401552615735689   dF: -3.713e-06   |Residual|: 5.628e-04   |deigs|: 9.572e-04  t[s]:     25.09
	FillingsUpdate:  mu: -0.095237036  nElectrons: 9.000000  magneticMoment: [ Abs: 0.42399  Tot: -0.42000 ]
SCF: Cycle: 10   F: -28.401554613593042   dF: -1.998e-06   |Residual|: 4.978e-04   |deigs|: 1.285e-03  t[s]:     27.07
	FillingsUpdate:  mu: -0.094140139  nElectrons: 9.000000  magneticMoment: [ Abs: 0.42312  Tot: -0.42000 ]
SCF: Cycle: 11   F: -28.401556345521485   dF: -1.732e-06   |Residual|: 4.701e-04   |deigs|: 1.246e-03  t[s]:     29.09
	FillingsUpdate:  mu: -0.093073825  nElectrons: 9.000000  magneticMoment: [ Abs: 0.42356  Tot: -0.42000 ]
SCF: Cycle: 12   F: -28.401565938389588   dF: -9.593e-06   |Residual|: 4.087e-04   |deigs|: 9.430e-04  t[s]:     31.05
	FillingsUpdate:  mu: -0.092085853  nElectrons: 9.000000  magneticMoment: [ Abs: 0.42437  Tot: -0.42000 ]
SCF: Cycle: 13   F: -28.401570978975879   dF: -5.041e-06   |Residual|: 3.814e-04   |deigs|: 1.034e-03  t[s]:     32.93
	FillingsUpdate:  mu: -0.090817288  nElectrons: 9.000000  magneticMoment: [ Abs: 0.42245  Tot: -0.42000 ]
SCF: Cycle: 14   F: -28.401575225111333   dF: -4.246e-06   |Residual|: 3.334e-04   |deigs|: 1.367e-03  t[s]:     34.91
	FillingsUpdate:  mu: -0.090002932  nElectrons: 9.000000  magneticMoment: [ Abs: 0.42007  Tot: -0.42000 ]
SCF: Cycle: 15   F: -28.401577837345684   dF: -2.612e-06   |Residual|: 2.711e-04   |deigs|: 8.604e-04  t[s]:     37.00
	FillingsUpdate:  mu: -0.089515055  nElectrons: 9.000000  magneticMoment: [ Abs: 0.42105  Tot: -0.42000 ]
SCF: Cycle: 16   F: -28.401579226703557   dF: -1.389e-06   |Residual|: 1.837e-04   |deigs|: 6.044e-04  t[s]:     39.00
	FillingsUpdate:  mu: -0.089282157  nElectrons: 9.000000  magneticMoment: [ Abs: 0.42079  Tot: -0.42000 ]
SCF: Cycle: 17   F: -28.401579811818504   dF: -5.851e-07   |Residual|: 1.187e-04   |deigs|: 4.259e-04  t[s]:     40.96
	FillingsUpdate:  mu: -0.089216897  nElectrons: 9.000000  magneticMoment: [ Abs: 0.42014  Tot: -0.42000 ]
SCF: Cycle: 18   F: -28.401580220172587   dF: -4.084e-07   |Residual|: 6.002e-05   |deigs|: 2.613e-04  t[s]:     42.93
	FillingsUpdate:  mu: -0.089206891  nElectrons: 9.000000  magneticMoment: [ Abs: 0.42028  Tot: -0.42000 ]
SCF: Cycle: 19   F: -28.401580364935324   dF: -1.448e-07   |Residual|: 4.232e-05   |deigs|: 1.635e-04  t[s]:     44.79
	FillingsUpdate:  mu: -0.089194489  nElectrons: 9.000000  magneticMoment: [ Abs: 0.42024  Tot: -0.42000 ]
SCF: Cycle: 20   F: -28.401580448240384   dF: -8.331e-08   |Residual|: 2.477e-05   |deigs|: 1.096e-04  t[s]:     46.68
	FillingsUpdate:  mu: -0.089171539  nElectrons: 9.000000  magneticMoment: [ Abs: 0.42016  Tot: -0.42000 ]
SCF: Cycle: 21   F: -28.401580489886943   dF: -4.165e-08   |Residual|: 1.076e-05   |deigs|: 7.079e-05  t[s]:     48.66
	FillingsUpdate:  mu: -0.089166540  nElectrons: 9.000000  magneticMoment: [ Abs: 0.42015  Tot: -0.42000 ]
SCF: Cycle: 22   F: -28.401580515350375   dF: -2.546e-08   |Residual|: 6.509e-06   |deigs|: 4.659e-05  t[s]:     50.56
	FillingsUpdate:  mu: -0.089159844  nElectrons: 9.000000  magneticMoment: [ Abs: 0.42015  Tot: -0.42000 ]
SCF: Cycle: 23   F: -28.401580529704024   dF: -1.435e-08   |Residual|: 4.507e-06   |deigs|: 3.216e-05  t[s]:     52.44
	FillingsUpdate:  mu: -0.089158285  nElectrons: 9.000000  magneticMoment: [ Abs: 0.42014  Tot: -0.42000 ]
SCF: Cycle: 24   F: -28.401580539746028   dF: -1.004e-08   |Residual|: 3.771e-06   |deigs|: 1.850e-05  t[s]:     54.29
	FillingsUpdate:  mu: -0.089158475  nElectrons: 9.000000  magneticMoment: [ Abs: 0.42008  Tot: -0.42000 ]
SCF: Cycle: 25   F: -28.401580544794324   dF: -5.048e-09   |Residual|: 3.832e-06   |deigs|: 1.830e-05  t[s]:     56.25
	FillingsUpdate:  mu: -0.089157455  nElectrons: 9.000000  magneticMoment: [ Abs: 0.42004  Tot: -0.42000 ]
SCF: Cycle: 26   F: -28.401580547995209   dF: -3.201e-09   |Residual|: 3.396e-06   |deigs|: 1.588e-05  t[s]:     58.19
SCF: Converged (|Delta E|<1.000000e-08 for 2 iters).


# Ionic positions in lattice coordinates:
ion K   0.000000000000000   0.000000000000000   0.000000000000000 0

# Forces in Lattice coordinates:
force K   0.000000000000000   0.000000000000000   0.000000000000000 0

# Energy components:
   Eewald =      -18.0480261003326561
       EH =        4.8747638030149503
     Eloc =      -18.0671936564903746
      Enl =       -2.7749985556356092
   Epulay =        0.0000000041876954
      Exc =       -4.2641497011979332
       KE =        9.8780244416726184
-------------------------------------
     Etot =      -28.4015797647813066
       TS =        0.0000007832139037
-------------------------------------
        F =      -28.4015805479952093

IonicMinimize: Iter:   0  F: -28.401580547995209  |grad|_K:  0.000e+00  t[s]:     58.31
IonicMinimize: Converged (|grad|_K<1.000000e-04).

#--- Lowdin population analysis ---
# oxidation-state K +0.067
# magnetic-moments K -0.363

End date and time: Sat Feb  5 23:37:42 2022  (Duration: 0-0:00:58.33)
Done!
scale=3
magnetization=-0.42
--------------------------------------------------------------------------
The library attempted to open the following supporting CUDA libraries,
but each of them failed.  CUDA-aware support is disabled.
libcuda.so.1: cannot open shared object file: No such file or directory
libcuda.dylib: cannot open shared object file: No such file or directory
/usr/lib64/libcuda.so.1: cannot open shared object file: No such file or directory
/usr/lib64/libcuda.dylib: cannot open shared object file: No such file or directory
If you are not interested in CUDA-aware support, then run with
--mca opal_warn_on_missing_libcuda 0 to suppress this message.  If you are interested
in CUDA-aware support, then try setting LD_LIBRARY_PATH to the location
of libcuda.so.1 to get passed this issue.
--------------------------------------------------------------------------
--------------------------------------------------------------------------
No OpenFabrics connection schemes reported that they were able to be
used on a specific port.  As such, the openib BTL (OpenFabrics
support) will be disabled for this port.

  Local host:           d-6-7-4
  Local device:         mlx5_1
  Local port:           1
  CPCs attempted:       rdmacm, udcm
--------------------------------------------------------------------------

*************** JDFTx 1.6.0 (git hash 42ebbcc2) ***************

Start date and time: Sat Feb  5 23:37:43 2022
Executable jdftx with command-line: -i Alkali.in
Running on hosts (process indices):  d-6-7-4 (0-18)
Divided in process groups (process indices):  0 (0)  1 (1)  2 (2)  3 (3)  4 (4)  5 (5)  6 (6)  7 (7)  8 (8)  9 (9)  10 (10)  11 (11)  12 (12)  13 (13)  14 (14)  15 (15)  16 (16)  17 (17)  18 (18)
Resource initialization completed at t[s]:      0.00
Run totals: 19 processes, 48 threads, 0 GPUs


Input parsed successfully to the following command list (including defaults):

basis kpoint-dependent
coords-type Lattice
core-overlap-check vector
coulomb-interaction Slab 001
davidson-band-ratio 1.1
dump End None
dump-name $INPUT.$VAR
elec-cutoff 20
elec-eigen-algo Davidson
elec-ex-corr gga-PBE
elec-initial-magnetization -0.420000 yes
elec-smearing Fermi 1e-05
electronic-minimize  \
	dirUpdateScheme      FletcherReeves \
	linminMethod         DirUpdateRecommended \
	nIterations          100 \
	history              15 \
	knormThreshold       0 \
	energyDiffThreshold  1e-08 \
	nEnergyDiff          2 \
	alphaTstart          1 \
	alphaTmin            1e-10 \
	updateTestStepSize   yes \
	alphaTreduceFactor   0.1 \
	alphaTincreaseFactor 3 \
	nAlphaAdjustMax      3 \
	wolfeEnergy          0.0001 \
	wolfeGradient        0.9 \
	fdTest               no
electronic-scf  \
	nIterations	10000 \
	energyDiffThreshold	1e-08 \
	residualThreshold	1e-07 \
	mixFraction	0.5 \
	qMetric	0.8 \
	history	10 \
	nEigSteps	2 \
	eigDiffThreshold	1e-08 \
	mixedVariable	Density \
	qKerker	0.8 \
	qKappa	-1 \
	verbose	no \
	mixFractionMag	1.5
exchange-regularization WignerSeitzTruncated
fluid None
fluid-ex-corr (null) lda-PZ
fluid-gummel-loop 10 1.000000e-05
fluid-minimize  \
	dirUpdateScheme      PolakRibiere \
	linminMethod         DirUpdateRecommended \
	nIterations          100 \
	history              15 \
	knormThreshold       0 \
	energyDiffThreshold  0 \
	nEnergyDiff          2 \
	alphaTstart          1 \
	alphaTmin            1e-10 \
	updateTestStepSize   yes \
	alphaTreduceFactor   0.1 \
	alphaTincreaseFactor 3 \
	nAlphaAdjustMax      3 \
	wolfeEnergy          0.0001 \
	wolfeGradient        0.9 \
	fdTest               no
fluid-solvent H2O 55.338 ScalarEOS \
	epsBulk 78.4 \
	pMol 0.92466 \
	epsInf 1.77 \
	Pvap 1.06736e-10 \
	sigmaBulk 4.62e-05 \
	Rvdw 2.61727 \
	Res 1.42 \
	tauNuc 343133 \
	poleEl 15 7 1
forces-output-coords Positions
ion K   0.000000000000000   0.000000000000000   0.000000000000000 0
ion-species SG15/$ID_ONCV_PBE.upf
ion-width 0
ionic-minimize  \
	dirUpdateScheme      L-BFGS \
	linminMethod         DirUpdateRecommended \
	nIterations          0 \
	history              15 \
	knormThreshold       0.0001 \
	energyDiffThreshold  1e-06 \
	nEnergyDiff          2 \
	alphaTstart          1 \
	alphaTmin            1e-10 \
	updateTestStepSize   yes \
	alphaTreduceFactor   0.1 \
	alphaTincreaseFactor 3 \
	nAlphaAdjustMax      3 \
	wolfeEnergy          0.0001 \
	wolfeGradient        0.9 \
	fdTest               no
kpoint   0.000000000000   0.000000000000   0.000000000000  1.00000000000000
kpoint-folding 12 12 1 
latt-move-scale 1 1 1
latt-scale 3 3 1 
lattice  \
	   4.727486978767153   -2.363743489383575    0.000000000000000  \
	  -0.000000000000000    4.094123819672498    0.000000000000000  \
	   0.000000000000000    0.000000000000000   40.000000000000000 
lattice-minimize  \
	dirUpdateScheme      L-BFGS \
	linminMethod         DirUpdateRecommended \
	nIterations          0 \
	history              15 \
	knormThreshold       0 \
	energyDiffThreshold  1e-06 \
	nEnergyDiff          2 \
	alphaTstart          1 \
	alphaTmin            1e-10 \
	updateTestStepSize   yes \
	alphaTreduceFactor   0.1 \
	alphaTincreaseFactor 3 \
	nAlphaAdjustMax      3 \
	wolfeEnergy          0.0001 \
	wolfeGradient        0.9 \
	fdTest               no
lcao-params -1 1e-06 1e-05
pcm-variant GLSSA13
spintype z-spin
subspace-rotation-factor 1 yes
symmetries automatic
symmetry-threshold 0.0001



---------- Setting up symmetries ----------

Found 24 point-group symmetries of the bravais lattice
Found 24 space-group symmetries with basis
Applied RMS atom displacement 0 bohrs to make symmetries exact.

---------- Initializing the Grid ----------
R = 
[      14.1825     -7.09123            0  ]
[            0      12.2824            0  ]
[            0            0           40  ]
unit cell volume = 6967.77
G =
[   0.443025   0.255781         -0  ]
[          0   0.511561         -0  ]
[         -0         -0    0.15708  ]
Minimum fftbox size, Smin = [  60  60  164  ]
Chosen fftbox size, S = [  60  60  168  ]

---------- Exchange Correlation functional ----------
Initalized PBE GGA exchange.
Initalized PBE GGA correlation.

---------- Setting up pseudopotentials ----------
Width of ionic core gaussian charges (only for fluid interactions / plotting) set to 0

Reading pseudopotential file '/home/gridsan/aligho/DFT/build-Nov24/pseudopotentials/SG15/K_ONCV_PBE.upf':
  'K' pseudopotential, 'PBE' functional
  Generated using ONCVPSP code by D. R. Hamann
  Author: Martin Schlipf and Francois Gygi  Date: 150915.
  9 valence electrons, 3 orbitals, 6 projectors, 2222 radial grid points, with lMax = 2
  Transforming local potential to a uniform radial grid of dG=0.02 with 1489 points.
  Transforming nonlocal projectors to a uniform radial grid of dG=0.02 with 432 points.
    3S    l: 0   occupation:  2.0   eigenvalue: -1.298836
    3P    l: 1   occupation:  6.0   eigenvalue: -0.691386
    4S    l: 0   occupation:  1.0   eigenvalue: -0.085223
  Transforming atomic orbitals to a uniform radial grid of dG=0.02 with 432 points.
  Core radius for overlap checks: 2.06 bohrs.
  Reading pulay file /home/gridsan/aligho/DFT/build-Nov24/pseudopotentials/SG15/K_ONCV_PBE.pulay ... using dE_dnG = -1.597219e-05 computed for Ecut = 20.

Initialized 1 species with 1 total atoms.

Folded 1 k-points by 12x12x1 to 144 k-points.

---------- Setting up k-points, bands, fillings ----------
Reduced to 19 k-points under symmetry. 
Computing the number of bands and number of electrons
Calculating initial fillings.
nElectrons:   9.000000   nBands: 6   nStates: 38

----- Setting up reduced wavefunction bases (one per k-point) -----
average nbasis = 29766.104 , ideal nbasis = 29766.845

---------- Setting up coulomb interaction ----------
Initialized slab truncation along lattice direction 001

---------- Setting up 2D ewald sum ----------
Optimum gaussian width for ewald sums = 7.873530 bohr.
Real space sums over 289 unit cells with max indices [  8  8  0  ]
Reciprocal space sums over 81 terms with max indices [  4  4  0  ]

---------- Allocating electronic variables ----------
Initializing wave functions:  linear combination of atomic orbitals
Note: number of bands (6) exceeds available atomic orbitals (5)
K pseudo-atom occupations:   s ( 2 1 )  p ( 6 )
[d-6-7-4:85724] 18 more processes have sent help message help-mpi-common-cuda.txt / dlopen failed
[d-6-7-4:85724] Set MCA parameter "orte_base_help_aggregate" to 0 to see all help / error messages
[d-6-7-4:85724] 18 more processes have sent help message help-mpi-btl-openib-cpc-base.txt / no cpcs for port
	FillingsUpdate:  mu: -0.086911887  nElectrons: 9.000000  magneticMoment: [ Abs: 0.42000  Tot: -0.42000 ]
LCAOMinimize: Iter:   0  F: -28.3825617653292888  |grad|_K:  1.556e-05  alpha:  1.000e+00
	FillingsUpdate:  mu: -0.086909329  nElectrons: 9.000000  magneticMoment: [ Abs: 0.42000  Tot: -0.42000 ]
LCAOMinimize: Iter:   1  F: -28.3825619293041811  |grad|_K:  1.105e-07  alpha:  9.899e-01  linmin: -1.279e-02  cgtest:  3.718e-01  t[s]:      8.63
LCAOMinimize: Encountered beta<0, resetting CG.
	FillingsUpdate:  mu: -0.086909335  nElectrons: 9.000000  magneticMoment: [ Abs: 0.42000  Tot: -0.42000 ]
LCAOMinimize: Iter:   2  F: -28.3825619293128000  |grad|_K:  5.671e-09  alpha:  1.051e+00  linmin:  6.341e-02  cgtest: -9.969e-01  t[s]:     10.94
LCAOMinimize: Converged (|Delta F|<1.000000e-06 for 2 iters).


---- Citations for features of the code used in this run ----

   Software package:
      R. Sundararaman, K. Letchworth-Weaver, K.A. Schwarz, D. Gunceler, Y. Ozhabes and T.A. Arias, 'JDFTx: software for joint density-functional theory', SoftwareX 6, 278 (2017)

   gga-PBE exchange-correlation functional:
      J.P. Perdew, K. Burke and M. Ernzerhof, Phys. Rev. Lett. 77, 3865 (1996)

   Pseudopotentials:
      M Schlipf and F Gygi, Comput. Phys. Commun. 196, 36 (2015)

   Truncated Coulomb potentials:
      R. Sundararaman and T.A. Arias, Phys. Rev. B 87, 165122 (2013)

This list may not be complete. Please suggest additional citations or
report any other bugs at https://github.com/shankar1729/jdftx/issues

Initialization completed successfully at t[s]:     11.11


-------- Electronic minimization -----------
Will mix electronic density at each iteration.
	FillingsUpdate:  mu: -0.086909335  nElectrons: 9.000000  magneticMoment: [ Abs: 0.42000  Tot: -0.42000 ]
	FillingsUpdate:  mu: -0.088364604  nElectrons: 9.000000  magneticMoment: [ Abs: 0.42000  Tot: -0.42000 ]
SCF: Cycle:  0   F: -28.383906131988407   dF: -1.344e-03   |Residual|: 3.411e-03   |deigs|: 1.744e-01  t[s]:     15.82
	FillingsUpdate:  mu: -0.088532371  nElectrons: 9.000000  magneticMoment: [ Abs: 0.42000  Tot: -0.42000 ]
SCF: Cycle:  1   F: -28.383939760908845   dF: -3.363e-05   |Residual|: 2.713e-03   |deigs|: 4.659e-03  t[s]:     19.43
	FillingsUpdate:  mu: -0.088784333  nElectrons: 9.000000  magneticMoment: [ Abs: 0.42116  Tot: -0.42000 ]
SCF: Cycle:  2   F: -28.383966461542808   dF: -2.670e-05   |Residual|: 1.921e-03   |deigs|: 1.767e-03  t[s]:     23.10
	FillingsUpdate:  mu: -0.089082488  nElectrons: 9.000000  magneticMoment: [ Abs: 0.42115  Tot: -0.42000 ]
SCF: Cycle:  3   F: -28.383982102390924   dF: -1.564e-05   |Residual|: 1.142e-03   |deigs|: 3.720e-03  t[s]:     26.86
	FillingsUpdate:  mu: -0.089191297  nElectrons: 9.000000  magneticMoment: [ Abs: 0.42051  Tot: -0.42000 ]
SCF: Cycle:  4   F: -28.383990837980846   dF: -8.736e-06   |Residual|: 6.210e-04   |deigs|: 2.245e-03  t[s]:     30.64
	FillingsUpdate:  mu: -0.089226674  nElectrons: 9.000000  magneticMoment: [ Abs: 0.42074  Tot: -0.42000 ]
SCF: Cycle:  5   F: -28.383996018234537   dF: -5.180e-06   |Residual|: 4.074e-04   |deigs|: 9.045e-04  t[s]:     34.47
	FillingsUpdate:  mu: -0.089135723  nElectrons: 9.000000  magneticMoment: [ Abs: 0.42057  Tot: -0.42000 ]
SCF: Cycle:  6   F: -28.383998771770234   dF: -2.754e-06   |Residual|: 2.822e-04   |deigs|: 1.625e-03  t[s]:     38.47
	FillingsUpdate:  mu: -0.089036250  nElectrons: 9.000000  magneticMoment: [ Abs: 0.42073  Tot: -0.42000 ]
SCF: Cycle:  7   F: -28.383999763153714   dF: -9.914e-07   |Residual|: 2.309e-04   |deigs|: 7.479e-04  t[s]:     42.50
	FillingsUpdate:  mu: -0.088850349  nElectrons: 9.000000  magneticMoment: [ Abs: 0.42117  Tot: -0.42000 ]
SCF: Cycle:  8   F: -28.384000348221157   dF: -5.851e-07   |Residual|: 1.767e-04   |deigs|: 3.688e-04  t[s]:     46.57
	FillingsUpdate:  mu: -0.088643017  nElectrons: 9.000000  magneticMoment: [ Abs: 0.42156  Tot: -0.42000 ]
SCF: Cycle:  9   F: -28.384000444054603   dF: -9.583e-08   |Residual|: 1.659e-04   |deigs|: 2.725e-04  t[s]:     50.74
	FillingsUpdate:  mu: -0.088438305  nElectrons: 9.000000  magneticMoment: [ Abs: 0.42125  Tot: -0.42000 ]
SCF: Cycle: 10   F: -28.384000283650213   dF: +1.604e-07   |Residual|: 1.367e-04   |deigs|: 2.204e-04  t[s]:     54.91
	FillingsUpdate:  mu: -0.088236371  nElectrons: 9.000000  magneticMoment: [ Abs: 0.42148  Tot: -0.42000 ]
SCF: Cycle: 11   F: -28.384000782242850   dF: -4.986e-07   |Residual|: 1.225e-04   |deigs|: 2.784e-04  t[s]:     59.15
	FillingsUpdate:  mu: -0.088194654  nElectrons: 9.000000  magneticMoment: [ Abs: 0.42129  Tot: -0.42000 ]
SCF: Cycle: 12   F: -28.384001284458918   dF: -5.022e-07   |Residual|: 9.849e-05   |deigs|: 1.826e-04  t[s]:     63.47
	FillingsUpdate:  mu: -0.087951374  nElectrons: 9.000000  magneticMoment: [ Abs: 0.42111  Tot: -0.42000 ]
SCF: Cycle: 13   F: -28.384001459358739   dF: -1.749e-07   |Residual|: 9.281e-05   |deigs|: 2.558e-04  t[s]:     67.68
	FillingsUpdate:  mu: -0.087730485  nElectrons: 9.000000  magneticMoment: [ Abs: 0.42076  Tot: -0.42000 ]
SCF: Cycle: 14   F: -28.384001125885970   dF: +3.335e-07   |Residual|: 9.538e-05   |deigs|: 2.463e-04  t[s]:     71.90
	FillingsUpdate:  mu: -0.087601158  nElectrons: 9.000000  magneticMoment: [ Abs: 0.42117  Tot: -0.42000 ]
SCF: Cycle: 15   F: -28.384001434572887   dF: -3.087e-07   |Residual|: 8.337e-05   |deigs|: 1.432e-04  t[s]:     76.16
	FillingsUpdate:  mu: -0.087502436  nElectrons: 9.000000  magneticMoment: [ Abs: 0.42113  Tot: -0.42000 ]
SCF: Cycle: 16   F: -28.384001931898702   dF: -4.973e-07   |Residual|: 6.688e-05   |deigs|: 4.483e-04  t[s]:     80.37
	FillingsUpdate:  mu: -0.087385540  nElectrons: 9.000000  magneticMoment: [ Abs: 0.42083  Tot: -0.42000 ]
SCF: Cycle: 17   F: -28.384002103795734   dF: -1.719e-07   |Residual|: 5.186e-05   |deigs|: 1.731e-04  t[s]:     84.45
	FillingsUpdate:  mu: -0.087329793  nElectrons: 9.000000  magneticMoment: [ Abs: 0.42069  Tot: -0.42000 ]
SCF: Cycle: 18   F: -28.384002267278230   dF: -1.635e-07   |Residual|: 2.945e-05   |deigs|: 7.963e-05  t[s]:     88.68
	FillingsUpdate:  mu: -0.087335243  nElectrons: 9.000000  magneticMoment: [ Abs: 0.42071  Tot: -0.42000 ]
SCF: Cycle: 19   F: -28.384002314928427   dF: -4.765e-08   |Residual|: 1.954e-05   |deigs|: 2.935e-05  t[s]:     92.85
	FillingsUpdate:  mu: -0.087337552  nElectrons: 9.000000  magneticMoment: [ Abs: 0.42070  Tot: -0.42000 ]
SCF: Cycle: 20   F: -28.384002344225006   dF: -2.930e-08   |Residual|: 1.130e-05   |deigs|: 2.056e-05  t[s]:     97.07
	FillingsUpdate:  mu: -0.087337777  nElectrons: 9.000000  magneticMoment: [ Abs: 0.42068  Tot: -0.42000 ]
SCF: Cycle: 21   F: -28.384002361055416   dF: -1.683e-08   |Residual|: 6.351e-06   |deigs|: 1.965e-05  t[s]:    101.17
	FillingsUpdate:  mu: -0.087336574  nElectrons: 9.000000  magneticMoment: [ Abs: 0.42070  Tot: -0.42000 ]
SCF: Cycle: 22   F: -28.384002368841188   dF: -7.786e-09   |Residual|: 3.399e-06   |deigs|: 2.533e-05  t[s]:    105.06
	FillingsUpdate:  mu: -0.087336220  nElectrons: 9.000000  magneticMoment: [ Abs: 0.42070  Tot: -0.42000 ]
SCF: Cycle: 23   F: -28.384002373288453   dF: -4.447e-09   |Residual|: 2.338e-06   |deigs|: 3.173e-05  t[s]:    108.99
SCF: Converged (|Delta E|<1.000000e-08 for 2 iters).


# Ionic positions in lattice coordinates:
ion K   0.000000000000000   0.000000000000000   0.000000000000000 0

# Forces in Lattice coordinates:
force K   0.000000000000000  -0.000000000000000   0.000000000000000 0

# Energy components:
   Eewald =      -12.0320174002217755
       EH =       10.7180669910832336
     Eloc =      -29.9135297488476937
      Enl =       -2.7715053933552354
   Epulay =       -0.0000000016982517
      Exc =       -4.2378880117301296
       KE =        9.8528719746953008
-------------------------------------
     Etot =      -28.3840015900745506
       TS =        0.0000007832139037
-------------------------------------
        F =      -28.3840023732884532

IonicMinimize: Iter:   0  F: -28.384002373288453  |grad|_K:  0.000e+00  t[s]:    109.24
IonicMinimize: Converged (|grad|_K<1.000000e-04).

#--- Lowdin population analysis ---
# oxidation-state K +0.027
# magnetic-moments K -0.402

End date and time: Sat Feb  5 23:39:32 2022  (Duration: 0-0:01:49.29)
Done!
scale=4
magnetization=-0.42
--------------------------------------------------------------------------
The library attempted to open the following supporting CUDA libraries,
but each of them failed.  CUDA-aware support is disabled.
libcuda.so.1: cannot open shared object file: No such file or directory
libcuda.dylib: cannot open shared object file: No such file or directory
/usr/lib64/libcuda.so.1: cannot open shared object file: No such file or directory
/usr/lib64/libcuda.dylib: cannot open shared object file: No such file or directory
If you are not interested in CUDA-aware support, then run with
--mca opal_warn_on_missing_libcuda 0 to suppress this message.  If you are interested
in CUDA-aware support, then try setting LD_LIBRARY_PATH to the location
of libcuda.so.1 to get passed this issue.
--------------------------------------------------------------------------
--------------------------------------------------------------------------
No OpenFabrics connection schemes reported that they were able to be
used on a specific port.  As such, the openib BTL (OpenFabrics
support) will be disabled for this port.

  Local host:           d-6-7-4
  Local device:         mlx5_1
  Local port:           1
  CPCs attempted:       rdmacm, udcm
--------------------------------------------------------------------------

*************** JDFTx 1.6.0 (git hash 42ebbcc2) ***************

Start date and time: Sat Feb  5 23:39:33 2022
Executable jdftx with command-line: -i Alkali.in
Running on hosts (process indices):  d-6-7-4 (0-18)
Divided in process groups (process indices):  0 (0)  1 (1)  2 (2)  3 (3)  4 (4)  5 (5)  6 (6)  7 (7)  8 (8)  9 (9)  10 (10)  11 (11)  12 (12)  13 (13)  14 (14)  15 (15)  16 (16)  17 (17)  18 (18)
Resource initialization completed at t[s]:      0.00
Run totals: 19 processes, 48 threads, 0 GPUs


Input parsed successfully to the following command list (including defaults):

basis kpoint-dependent
coords-type Lattice
core-overlap-check vector
coulomb-interaction Slab 001
davidson-band-ratio 1.1
dump End None
dump-name $INPUT.$VAR
elec-cutoff 20
elec-eigen-algo Davidson
elec-ex-corr gga-PBE
elec-initial-magnetization -0.420000 yes
elec-smearing Fermi 1e-05
electronic-minimize  \
	dirUpdateScheme      FletcherReeves \
	linminMethod         DirUpdateRecommended \
	nIterations          100 \
	history              15 \
	knormThreshold       0 \
	energyDiffThreshold  1e-08 \
	nEnergyDiff          2 \
	alphaTstart          1 \
	alphaTmin            1e-10 \
	updateTestStepSize   yes \
	alphaTreduceFactor   0.1 \
	alphaTincreaseFactor 3 \
	nAlphaAdjustMax      3 \
	wolfeEnergy          0.0001 \
	wolfeGradient        0.9 \
	fdTest               no
electronic-scf  \
	nIterations	10000 \
	energyDiffThreshold	1e-08 \
	residualThreshold	1e-07 \
	mixFraction	0.5 \
	qMetric	0.8 \
	history	10 \
	nEigSteps	2 \
	eigDiffThreshold	1e-08 \
	mixedVariable	Density \
	qKerker	0.8 \
	qKappa	-1 \
	verbose	no \
	mixFractionMag	1.5
exchange-regularization WignerSeitzTruncated
fluid None
fluid-ex-corr (null) lda-PZ
fluid-gummel-loop 10 1.000000e-05
fluid-minimize  \
	dirUpdateScheme      PolakRibiere \
	linminMethod         DirUpdateRecommended \
	nIterations          100 \
	history              15 \
	knormThreshold       0 \
	energyDiffThreshold  0 \
	nEnergyDiff          2 \
	alphaTstart          1 \
	alphaTmin            1e-10 \
	updateTestStepSize   yes \
	alphaTreduceFactor   0.1 \
	alphaTincreaseFactor 3 \
	nAlphaAdjustMax      3 \
	wolfeEnergy          0.0001 \
	wolfeGradient        0.9 \
	fdTest               no
fluid-solvent H2O 55.338 ScalarEOS \
	epsBulk 78.4 \
	pMol 0.92466 \
	epsInf 1.77 \
	Pvap 1.06736e-10 \
	sigmaBulk 4.62e-05 \
	Rvdw 2.61727 \
	Res 1.42 \
	tauNuc 343133 \
	poleEl 15 7 1
forces-output-coords Positions
ion K   0.000000000000000   0.000000000000000   0.000000000000000 0
ion-species SG15/$ID_ONCV_PBE.upf
ion-width 0
ionic-minimize  \
	dirUpdateScheme      L-BFGS \
	linminMethod         DirUpdateRecommended \
	nIterations          0 \
	history              15 \
	knormThreshold       0.0001 \
	energyDiffThreshold  1e-06 \
	nEnergyDiff          2 \
	alphaTstart          1 \
	alphaTmin            1e-10 \
	updateTestStepSize   yes \
	alphaTreduceFactor   0.1 \
	alphaTincreaseFactor 3 \
	nAlphaAdjustMax      3 \
	wolfeEnergy          0.0001 \
	wolfeGradient        0.9 \
	fdTest               no
kpoint   0.000000000000   0.000000000000   0.000000000000  1.00000000000000
kpoint-folding 12 12 1 
latt-move-scale 1 1 1
latt-scale 4 4 1 
lattice  \
	   4.727486978767153   -2.363743489383575    0.000000000000000  \
	  -0.000000000000000    4.094123819672498    0.000000000000000  \
	   0.000000000000000    0.000000000000000   40.000000000000000 
lattice-minimize  \
	dirUpdateScheme      L-BFGS \
	linminMethod         DirUpdateRecommended \
	nIterations          0 \
	history              15 \
	knormThreshold       0 \
	energyDiffThreshold  1e-06 \
	nEnergyDiff          2 \
	alphaTstart          1 \
	alphaTmin            1e-10 \
	updateTestStepSize   yes \
	alphaTreduceFactor   0.1 \
	alphaTincreaseFactor 3 \
	nAlphaAdjustMax      3 \
	wolfeEnergy          0.0001 \
	wolfeGradient        0.9 \
	fdTest               no
lcao-params -1 1e-06 1e-05
pcm-variant GLSSA13
spintype z-spin
subspace-rotation-factor 1 yes
symmetries automatic
symmetry-threshold 0.0001



---------- Setting up symmetries ----------

Found 24 point-group symmetries of the bravais lattice
Found 24 space-group symmetries with basis
Applied RMS atom displacement 0 bohrs to make symmetries exact.

---------- Initializing the Grid ----------
R = 
[      18.9099     -9.45497            0  ]
[            0      16.3765            0  ]
[            0            0           40  ]
unit cell volume = 12387.1
G =
[   0.332269   0.191835         -0  ]
[          0   0.383671         -0  ]
[         -0         -0    0.15708  ]
Minimum fftbox size, Smin = [  80  80  164  ]
Chosen fftbox size, S = [  80  80  168  ]

---------- Exchange Correlation functional ----------
Initalized PBE GGA exchange.
Initalized PBE GGA correlation.

---------- Setting up pseudopotentials ----------
Width of ionic core gaussian charges (only for fluid interactions / plotting) set to 0

Reading pseudopotential file '/home/gridsan/aligho/DFT/build-Nov24/pseudopotentials/SG15/K_ONCV_PBE.upf':
  'K' pseudopotential, 'PBE' functional
  Generated using ONCVPSP code by D. R. Hamann
  Author: Martin Schlipf and Francois Gygi  Date: 150915.
  9 valence electrons, 3 orbitals, 6 projectors, 2222 radial grid points, with lMax = 2
  Transforming local potential to a uniform radial grid of dG=0.02 with 1489 points.
  Transforming nonlocal projectors to a uniform radial grid of dG=0.02 with 432 points.
    3S    l: 0   occupation:  2.0   eigenvalue: -1.298836
    3P    l: 1   occupation:  6.0   eigenvalue: -0.691386
    4S    l: 0   occupation:  1.0   eigenvalue: -0.085223
  Transforming atomic orbitals to a uniform radial grid of dG=0.02 with 432 points.
  Core radius for overlap checks: 2.06 bohrs.
  Reading pulay file /home/gridsan/aligho/DFT/build-Nov24/pseudopotentials/SG15/K_ONCV_PBE.pulay ... using dE_dnG = -1.597219e-05 computed for Ecut = 20.

Initialized 1 species with 1 total atoms.

Folded 1 k-points by 12x12x1 to 144 k-points.

---------- Setting up k-points, bands, fillings ----------
Reduced to 19 k-points under symmetry. 
Computing the number of bands and number of electrons
Calculating initial fillings.
nElectrons:   9.000000   nBands: 6   nStates: 38

----- Setting up reduced wavefunction bases (one per k-point) -----
average nbasis = 52924.021 , ideal nbasis = 52918.836

---------- Setting up coulomb interaction ----------
Initialized slab truncation along lattice direction 001

---------- Setting up 2D ewald sum ----------
Optimum gaussian width for ewald sums = 10.498040 bohr.
Real space sums over 289 unit cells with max indices [  8  8  0  ]
Reciprocal space sums over 81 terms with max indices [  4  4  0  ]

---------- Allocating electronic variables ----------
Initializing wave functions:  linear combination of atomic orbitals
Note: number of bands (6) exceeds available atomic orbitals (5)
K pseudo-atom occupations:   s ( 2 1 )  p ( 6 )
[d-6-7-4:40460] 18 more processes have sent help message help-mpi-common-cuda.txt / dlopen failed
[d-6-7-4:40460] Set MCA parameter "orte_base_help_aggregate" to 0 to see all help / error messages
[d-6-7-4:40460] 18 more processes have sent help message help-mpi-btl-openib-cpc-base.txt / no cpcs for port
	FillingsUpdate:  mu: -0.085681924  nElectrons: 9.000000  magneticMoment: [ Abs: 0.42000  Tot: -0.42000 ]
LCAOMinimize: Iter:   0  F: -28.3780650215180721  |grad|_K:  3.320e-06  alpha:  1.000e+00
	FillingsUpdate:  mu: -0.085681215  nElectrons: 9.000000  magneticMoment: [ Abs: 0.42000  Tot: -0.42000 ]
LCAOMinimize: Iter:   1  F: -28.3780650289793357  |grad|_K:  1.503e-08  alpha:  9.896e-01  linmin: -2.189e-03  cgtest:  2.210e-01  t[s]:     14.82
LCAOMinimize: Encountered beta<0, resetting CG.
LCAOMinimize: 	Wrong curvature in test step, increasing alphaT to 2.968712e+00.
	FillingsUpdate:  mu: -0.085681214  nElectrons: 9.000000  magneticMoment: [ Abs: 0.42000  Tot: -0.42000 ]
LCAOMinimize: Iter:   2  F: -28.3780650289797656  |grad|_K:  1.593e-10  alpha: -1.218e+00  linmin: -7.894e-03  cgtest:  9.750e-01  t[s]:     18.72
LCAOMinimize: Encountered beta<0, resetting CG.
LCAOMinimize: Converged (|Delta F|<1.000000e-06 for 2 iters).


---- Citations for features of the code used in this run ----

   Software package:
      R. Sundararaman, K. Letchworth-Weaver, K.A. Schwarz, D. Gunceler, Y. Ozhabes and T.A. Arias, 'JDFTx: software for joint density-functional theory', SoftwareX 6, 278 (2017)

   gga-PBE exchange-correlation functional:
      J.P. Perdew, K. Burke and M. Ernzerhof, Phys. Rev. Lett. 77, 3865 (1996)

   Pseudopotentials:
      M Schlipf and F Gygi, Comput. Phys. Commun. 196, 36 (2015)

   Truncated Coulomb potentials:
      R. Sundararaman and T.A. Arias, Phys. Rev. B 87, 165122 (2013)

This list may not be complete. Please suggest additional citations or
report any other bugs at https://github.com/shankar1729/jdftx/issues

Initialization completed successfully at t[s]:     18.97


-------- Electronic minimization -----------
Will mix electronic density at each iteration.
	FillingsUpdate:  mu: -0.085681214  nElectrons: 9.000000  magneticMoment: [ Abs: 0.42000  Tot: -0.42000 ]
	FillingsUpdate:  mu: -0.085762340  nElectrons: 9.000000  magneticMoment: [ Abs: 0.42000  Tot: -0.42000 ]
SCF: Cycle:  0   F: -28.378145097908956   dF: -8.007e-05   |Residual|: 9.654e-04   |deigs|: 1.744e-01  t[s]:     26.96
	FillingsUpdate:  mu: -0.085778452  nElectrons: 9.000000  magneticMoment: [ Abs: 0.42065  Tot: -0.42000 ]
SCF: Cycle:  1   F: -28.378146044281252   dF: -9.464e-07   |Residual|: 3.267e-04   |deigs|: 6.069e-03  t[s]:     33.27
	FillingsUpdate:  mu: -0.085792332  nElectrons: 9.000000  magneticMoment: [ Abs: 0.42076  Tot: -0.42000 ]
SCF: Cycle:  2   F: -28.378146263640328   dF: -2.194e-07   |Residual|: 2.203e-04   |deigs|: 1.882e-03  t[s]:     39.62
	FillingsUpdate:  mu: -0.085812004  nElectrons: 9.000000  magneticMoment: [ Abs: 0.42094  Tot: -0.42000 ]
SCF: Cycle:  3   F: -28.378146419975803   dF: -1.563e-07   |Residual|: 1.690e-04   |deigs|: 6.240e-04  t[s]:     46.17
	FillingsUpdate:  mu: -0.085836478  nElectrons: 9.000000  magneticMoment: [ Abs: 0.42090  Tot: -0.42000 ]
SCF: Cycle:  4   F: -28.378146642135601   dF: -2.222e-07   |Residual|: 1.211e-04   |deigs|: 5.702e-04  t[s]:     52.80
	FillingsUpdate:  mu: -0.085868218  nElectrons: 9.000000  magneticMoment: [ Abs: 0.42102  Tot: -0.42000 ]
SCF: Cycle:  5   F: -28.378146807025150   dF: -1.649e-07   |Residual|: 7.830e-05   |deigs|: 4.702e-04  t[s]:     59.60
	FillingsUpdate:  mu: -0.085869876  nElectrons: 9.000000  magneticMoment: [ Abs: 0.42099  Tot: -0.42000 ]
SCF: Cycle:  6   F: -28.378146908834577   dF: -1.018e-07   |Residual|: 5.205e-05   |deigs|: 4.697e-04  t[s]:     66.45
	FillingsUpdate:  mu: -0.085869198  nElectrons: 9.000000  magneticMoment: [ Abs: 0.42098  Tot: -0.42000 ]
SCF: Cycle:  7   F: -28.378146968972974   dF: -6.014e-08   |Residual|: 3.751e-05   |deigs|: 3.751e-04  t[s]:     73.38
	FillingsUpdate:  mu: -0.085858291  nElectrons: 9.000000  magneticMoment: [ Abs: 0.42096  Tot: -0.42000 ]
SCF: Cycle:  8   F: -28.378147003692824   dF: -3.472e-08   |Residual|: 3.011e-05   |deigs|: 1.833e-04  t[s]:     80.41
	FillingsUpdate:  mu: -0.085836623  nElectrons: 9.000000  magneticMoment: [ Abs: 0.42092  Tot: -0.42000 ]
SCF: Cycle:  9   F: -28.378147029058240   dF: -2.537e-08   |Residual|: 2.254e-05   |deigs|: 1.428e-04  t[s]:     87.57
	FillingsUpdate:  mu: -0.085821659  nElectrons: 9.000000  magneticMoment: [ Abs: 0.42091  Tot: -0.42000 ]
SCF: Cycle: 10   F: -28.378147031088812   dF: -2.031e-09   |Residual|: 2.091e-05   |deigs|: 1.214e-04  t[s]:     94.89
	FillingsUpdate:  mu: -0.085802960  nElectrons: 9.000000  magneticMoment: [ Abs: 0.42099  Tot: -0.42000 ]
SCF: Cycle: 11   F: -28.378147001388669   dF: +2.970e-08   |Residual|: 1.946e-05   |deigs|: 9.349e-05  t[s]:    102.16
	FillingsUpdate:  mu: -0.085779426  nElectrons: 9.000000  magneticMoment: [ Abs: 0.42109  Tot: -0.42000 ]
SCF: Cycle: 12   F: -28.378146932000696   dF: +6.939e-08   |Residual|: 1.722e-05   |deigs|: 8.526e-05  t[s]:    109.38
	FillingsUpdate:  mu: -0.085758075  nElectrons: 9.000000  magneticMoment: [ Abs: 0.42102  Tot: -0.42000 ]
SCF: Cycle: 13   F: -28.378146964059074   dF: -3.206e-08   |Residual|: 1.593e-05   |deigs|: 8.352e-05  t[s]:    116.51
	FillingsUpdate:  mu: -0.085742023  nElectrons: 9.000000  magneticMoment: [ Abs: 0.42101  Tot: -0.42000 ]
SCF: Cycle: 14   F: -28.378146946676868   dF: +1.738e-08   |Residual|: 1.447e-05   |deigs|: 7.796e-05  t[s]:    123.64
	FillingsUpdate:  mu: -0.085726862  nElectrons: 9.000000  magneticMoment: [ Abs: 0.42102  Tot: -0.42000 ]
SCF: Cycle: 15   F: -28.378147014754809   dF: -6.808e-08   |Residual|: 1.261e-05   |deigs|: 8.058e-05  t[s]:    130.97
	FillingsUpdate:  mu: -0.085709063  nElectrons: 9.000000  magneticMoment: [ Abs: 0.42099  Tot: -0.42000 ]
SCF: Cycle: 16   F: -28.378146985016198   dF: +2.974e-08   |Residual|: 1.242e-05   |deigs|: 8.585e-05  t[s]:    137.71
	FillingsUpdate:  mu: -0.085697068  nElectrons: 9.000000  magneticMoment: [ Abs: 0.42095  Tot: -0.42000 ]
SCF: Cycle: 17   F: -28.378146956357632   dF: +2.866e-08   |Residual|: 1.072e-05   |deigs|: 7.732e-05  t[s]:    144.59
	FillingsUpdate:  mu: -0.085688940  nElectrons: 9.000000  magneticMoment: [ Abs: 0.42094  Tot: -0.42000 ]
SCF: Cycle: 18   F: -28.378147060461771   dF: -1.041e-07   |Residual|: 7.716e-06   |deigs|: 5.918e-05  t[s]:    151.69
	FillingsUpdate:  mu: -0.085682210  nElectrons: 9.000000  magneticMoment: [ Abs: 0.42090  Tot: -0.42000 ]
SCF: Cycle: 19   F: -28.378147053541930   dF: +6.920e-09   |Residual|: 5.695e-06   |deigs|: 3.619e-05  t[s]:    158.27
	FillingsUpdate:  mu: -0.085678531  nElectrons: 9.000000  magneticMoment: [ Abs: 0.42092  Tot: -0.42000 ]
SCF: Cycle: 20   F: -28.378147078655623   dF: -2.511e-08   |Residual|: 3.746e-06   |deigs|: 2.071e-05  t[s]:    165.52
	FillingsUpdate:  mu: -0.085678297  nElectrons: 9.000000  magneticMoment: [ Abs: 0.42092  Tot: -0.42000 ]
SCF: Cycle: 21   F: -28.378147081490397   dF: -2.835e-09   |Residual|: 2.812e-06   |deigs|: 1.094e-05  t[s]:    171.97
	FillingsUpdate:  mu: -0.085678251  nElectrons: 9.000000  magneticMoment: [ Abs: 0.42091  Tot: -0.42000 ]
SCF: Cycle: 22   F: -28.378147082907141   dF: -1.417e-09   |Residual|: 2.038e-06   |deigs|: 5.901e-06  t[s]:    178.95
SCF: Converged (|Delta E|<1.000000e-08 for 2 iters).


# Ionic positions in lattice coordinates:
ion K   0.000000000000000   0.000000000000000   0.000000000000000 0

# Forces in Lattice coordinates:
force K  -0.000000000000000  -0.000000000000000   0.000000000000000 0

# Energy components:
   Eewald =       -9.0240130501663280
       EH =       13.7636631484031415
     Eloc =      -35.9731255584540079
      Enl =       -2.7672107341615169
   Epulay =        0.0000000066859396
      Exc =       -4.2402823244884313
       KE =        9.8628229280300310
-------------------------------------
     Etot =      -28.3781455841511736
       TS =        0.0000014987559659
-------------------------------------
        F =      -28.3781470829071409

IonicMinimize: Iter:   0  F: -28.378147082907141  |grad|_K:  0.000e+00  t[s]:    179.35
IonicMinimize: Converged (|grad|_K<1.000000e-04).

#--- Lowdin population analysis ---
# oxidation-state K +0.001
# magnetic-moments K -0.420

End date and time: Sat Feb  5 23:42:33 2022  (Duration: 0-0:02:59.41)
Done!
