The alkali metal is K
scale=2
magnetization=0.7
--------------------------------------------------------------------------
The library attempted to open the following supporting CUDA libraries,
but each of them failed.  CUDA-aware support is disabled.
libcuda.so.1: cannot open shared object file: No such file or directory
libcuda.dylib: cannot open shared object file: No such file or directory
/usr/lib64/libcuda.so.1: cannot open shared object file: No such file or directory
/usr/lib64/libcuda.dylib: cannot open shared object file: No such file or directory
If you are not interested in CUDA-aware support, then run with
--mca opal_warn_on_missing_libcuda 0 to suppress this message.  If you are interested
in CUDA-aware support, then try setting LD_LIBRARY_PATH to the location
of libcuda.so.1 to get passed this issue.
--------------------------------------------------------------------------
--------------------------------------------------------------------------
No OpenFabrics connection schemes reported that they were able to be
used on a specific port.  As such, the openib BTL (OpenFabrics
support) will be disabled for this port.

  Local host:           d-6-8-2
  Local device:         mlx5_1
  Local port:           1
  CPCs attempted:       rdmacm, udcm
--------------------------------------------------------------------------

*************** JDFTx 1.6.0 (git hash 42ebbcc2) ***************

Start date and time: Sat Feb  5 23:49:25 2022
Executable jdftx with command-line: -i Alkali.in
Running on hosts (process indices):  d-6-8-2 (0-18)
Divided in process groups (process indices):  0 (0)  1 (1)  2 (2)  3 (3)  4 (4)  5 (5)  6 (6)  7 (7)  8 (8)  9 (9)  10 (10)  11 (11)  12 (12)  13 (13)  14 (14)  15 (15)  16 (16)  17 (17)  18 (18)
Resource initialization completed at t[s]:      0.00
Run totals: 19 processes, 48 threads, 0 GPUs


Input parsed successfully to the following command list (including defaults):

basis kpoint-dependent
coords-type Lattice
core-overlap-check vector
coulomb-interaction Slab 001
davidson-band-ratio 1.1
dump End None
dump-name $INPUT.$VAR
elec-cutoff 20
elec-eigen-algo Davidson
elec-ex-corr gga-PBE
elec-initial-magnetization 0.700000 yes
elec-smearing Fermi 1e-05
electronic-minimize  \
	dirUpdateScheme      FletcherReeves \
	linminMethod         DirUpdateRecommended \
	nIterations          100 \
	history              15 \
	knormThreshold       0 \
	energyDiffThreshold  1e-08 \
	nEnergyDiff          2 \
	alphaTstart          1 \
	alphaTmin            1e-10 \
	updateTestStepSize   yes \
	alphaTreduceFactor   0.1 \
	alphaTincreaseFactor 3 \
	nAlphaAdjustMax      3 \
	wolfeEnergy          0.0001 \
	wolfeGradient        0.9 \
	fdTest               no
electronic-scf  \
	nIterations	10000 \
	energyDiffThreshold	1e-08 \
	residualThreshold	1e-07 \
	mixFraction	0.5 \
	qMetric	0.8 \
	history	10 \
	nEigSteps	2 \
	eigDiffThreshold	1e-08 \
	mixedVariable	Density \
	qKerker	0.8 \
	qKappa	-1 \
	verbose	no \
	mixFractionMag	1.5
exchange-regularization WignerSeitzTruncated
fluid None
fluid-ex-corr (null) lda-PZ
fluid-gummel-loop 10 1.000000e-05
fluid-minimize  \
	dirUpdateScheme      PolakRibiere \
	linminMethod         DirUpdateRecommended \
	nIterations          100 \
	history              15 \
	knormThreshold       0 \
	energyDiffThreshold  0 \
	nEnergyDiff          2 \
	alphaTstart          1 \
	alphaTmin            1e-10 \
	updateTestStepSize   yes \
	alphaTreduceFactor   0.1 \
	alphaTincreaseFactor 3 \
	nAlphaAdjustMax      3 \
	wolfeEnergy          0.0001 \
	wolfeGradient        0.9 \
	fdTest               no
fluid-solvent H2O 55.338 ScalarEOS \
	epsBulk 78.4 \
	pMol 0.92466 \
	epsInf 1.77 \
	Pvap 1.06736e-10 \
	sigmaBulk 4.62e-05 \
	Rvdw 2.61727 \
	Res 1.42 \
	tauNuc 343133 \
	poleEl 15 7 1
forces-output-coords Positions
ion K   0.000000000000000   0.000000000000000   0.000000000000000 0
ion-species SG15/$ID_ONCV_PBE.upf
ion-width 0
ionic-minimize  \
	dirUpdateScheme      L-BFGS \
	linminMethod         DirUpdateRecommended \
	nIterations          0 \
	history              15 \
	knormThreshold       0.0001 \
	energyDiffThreshold  1e-06 \
	nEnergyDiff          2 \
	alphaTstart          1 \
	alphaTmin            1e-10 \
	updateTestStepSize   yes \
	alphaTreduceFactor   0.1 \
	alphaTincreaseFactor 3 \
	nAlphaAdjustMax      3 \
	wolfeEnergy          0.0001 \
	wolfeGradient        0.9 \
	fdTest               no
kpoint   0.000000000000   0.000000000000   0.000000000000  1.00000000000000
kpoint-folding 12 12 1 
latt-move-scale 1 1 1
latt-scale 2 2 1 
lattice  \
	   4.727486978767153   -2.363743489383575    0.000000000000000  \
	  -0.000000000000000    4.094123819672498    0.000000000000000  \
	   0.000000000000000    0.000000000000000   40.000000000000000 
lattice-minimize  \
	dirUpdateScheme      L-BFGS \
	linminMethod         DirUpdateRecommended \
	nIterations          0 \
	history              15 \
	knormThreshold       0 \
	energyDiffThreshold  1e-06 \
	nEnergyDiff          2 \
	alphaTstart          1 \
	alphaTmin            1e-10 \
	updateTestStepSize   yes \
	alphaTreduceFactor   0.1 \
	alphaTincreaseFactor 3 \
	nAlphaAdjustMax      3 \
	wolfeEnergy          0.0001 \
	wolfeGradient        0.9 \
	fdTest               no
lcao-params -1 1e-06 1e-05
pcm-variant GLSSA13
spintype z-spin
subspace-rotation-factor 1 yes
symmetries automatic
symmetry-threshold 0.0001



---------- Setting up symmetries ----------

Found 24 point-group symmetries of the bravais lattice
Found 24 space-group symmetries with basis
Applied RMS atom displacement 0 bohrs to make symmetries exact.

---------- Initializing the Grid ----------
R = 
[      9.45497     -4.72749            0  ]
[            0      8.18825            0  ]
[            0            0           40  ]
unit cell volume = 3096.79
G =
[   0.664538   0.383671         -0  ]
[          0   0.767342         -0  ]
[         -0         -0    0.15708  ]
Minimum fftbox size, Smin = [  40  40  164  ]
Chosen fftbox size, S = [  40  40  168  ]

---------- Exchange Correlation functional ----------
Initalized PBE GGA exchange.
Initalized PBE GGA correlation.

---------- Setting up pseudopotentials ----------
Width of ionic core gaussian charges (only for fluid interactions / plotting) set to 0

Reading pseudopotential file '/home/gridsan/aligho/DFT/build-Nov24/pseudopotentials/SG15/K_ONCV_PBE.upf':
  'K' pseudopotential, 'PBE' functional
  Generated using ONCVPSP code by D. R. Hamann
  Author: Martin Schlipf and Francois Gygi  Date: 150915.
  9 valence electrons, 3 orbitals, 6 projectors, 2222 radial grid points, with lMax = 2
  Transforming local potential to a uniform radial grid of dG=0.02 with 1489 points.
  Transforming nonlocal projectors to a uniform radial grid of dG=0.02 with 432 points.
    3S    l: 0   occupation:  2.0   eigenvalue: -1.298836
    3P    l: 1   occupation:  6.0   eigenvalue: -0.691386
    4S    l: 0   occupation:  1.0   eigenvalue: -0.085223
  Transforming atomic orbitals to a uniform radial grid of dG=0.02 with 432 points.
  Core radius for overlap checks: 2.06 bohrs.
  Reading pulay file /home/gridsan/aligho/DFT/build-Nov24/pseudopotentials/SG15/K_ONCV_PBE.pulay ... using dE_dnG = -1.597219e-05 computed for Ecut = 20.

Initialized 1 species with 1 total atoms.

Folded 1 k-points by 12x12x1 to 144 k-points.

---------- Setting up k-points, bands, fillings ----------
Reduced to 19 k-points under symmetry. 
Computing the number of bands and number of electrons
Calculating initial fillings.
nElectrons:   9.000000   nBands: 6   nStates: 38

----- Setting up reduced wavefunction bases (one per k-point) -----
average nbasis = 13230.521 , ideal nbasis = 13229.709

---------- Setting up coulomb interaction ----------
Initialized slab truncation along lattice direction 001

---------- Setting up 2D ewald sum ----------
Optimum gaussian width for ewald sums = 5.249020 bohr.
Real space sums over 289 unit cells with max indices [  8  8  0  ]
Reciprocal space sums over 81 terms with max indices [  4  4  0  ]

---------- Allocating electronic variables ----------
Initializing wave functions:  linear combination of atomic orbitals
Note: number of bands (6) exceeds available atomic orbitals (5)
K pseudo-atom occupations:   s ( 2 1 )  p ( 6 )
	FillingsUpdate:  mu: -0.096918938  nElectrons: 9.000000  magneticMoment: [ Abs: 0.70000  Tot: +0.70000 ]
LCAOMinimize: Iter:   0  F: -28.3881172076118737  |grad|_K:  2.120e-05  alpha:  1.000e+00
	FillingsUpdate:  mu: -0.096913890  nElectrons: 9.000000  magneticMoment: [ Abs: 0.70000  Tot: +0.70000 ]
LCAOMinimize: Iter:   1  F: -28.3881175099922487  |grad|_K:  1.941e-07  alpha:  9.835e-01  linmin: -1.821e-02  cgtest:  3.117e-01  t[s]:      4.52
LCAOMinimize: Encountered beta<0, resetting CG.
[d-6-8-2:31464] 18 more processes have sent help message help-mpi-common-cuda.txt / dlopen failed
[d-6-8-2:31464] Set MCA parameter "orte_base_help_aggregate" to 0 to see all help / error messages
[d-6-8-2:31464] 18 more processes have sent help message help-mpi-btl-openib-cpc-base.txt / no cpcs for port
	FillingsUpdate:  mu: -0.096913934  nElectrons: 9.000000  magneticMoment: [ Abs: 0.70000  Tot: +0.70000 ]
LCAOMinimize: Iter:   2  F: -28.3881175100177003  |grad|_K:  9.446e-10  alpha:  9.986e-01  linmin: -5.581e-02  cgtest:  4.890e-01  t[s]:      5.65
LCAOMinimize: Encountered beta<0, resetting CG.
LCAOMinimize: Converged (|Delta F|<1.000000e-06 for 2 iters).


---- Citations for features of the code used in this run ----

   Software package:
      R. Sundararaman, K. Letchworth-Weaver, K.A. Schwarz, D. Gunceler, Y. Ozhabes and T.A. Arias, 'JDFTx: software for joint density-functional theory', SoftwareX 6, 278 (2017)

   gga-PBE exchange-correlation functional:
      J.P. Perdew, K. Burke and M. Ernzerhof, Phys. Rev. Lett. 77, 3865 (1996)

   Pseudopotentials:
      M Schlipf and F Gygi, Comput. Phys. Commun. 196, 36 (2015)

   Truncated Coulomb potentials:
      R. Sundararaman and T.A. Arias, Phys. Rev. B 87, 165122 (2013)

This list may not be complete. Please suggest additional citations or
report any other bugs at https://github.com/shankar1729/jdftx/issues

Initialization completed successfully at t[s]:      5.74


-------- Electronic minimization -----------
Will mix electronic density at each iteration.
	FillingsUpdate:  mu: -0.096913934  nElectrons: 9.000000  magneticMoment: [ Abs: 0.70000  Tot: +0.70000 ]
	FillingsUpdate:  mu: -0.103232120  nElectrons: 9.000000  magneticMoment: [ Abs: 0.70000  Tot: +0.70000 ]
SCF: Cycle:  0   F: -28.396968102469373   dF: -8.851e-03   |Residual|: 1.382e-02   |deigs|: 1.732e-01  t[s]:      8.10
	FillingsUpdate:  mu: -0.104145912  nElectrons: 9.000000  magneticMoment: [ Abs: 0.70000  Tot: +0.70000 ]
SCF: Cycle:  1   F: -28.397379346456571   dF: -4.112e-04   |Residual|: 1.036e-02   |deigs|: 8.295e-03  t[s]:      9.88
	FillingsUpdate:  mu: -0.105200452  nElectrons: 9.000000  magneticMoment: [ Abs: 0.70294  Tot: +0.70000 ]
SCF: Cycle:  2   F: -28.397483690784380   dF: -1.043e-04   |Residual|: 6.343e-03   |deigs|: 3.800e-03  t[s]:     11.70
	FillingsUpdate:  mu: -0.102405589  nElectrons: 9.000000  magneticMoment: [ Abs: 0.70000  Tot: +0.70000 ]
SCF: Cycle:  3   F: -28.397567468643370   dF: -8.378e-05   |Residual|: 3.608e-03   |deigs|: 4.608e-03  t[s]:     13.55
	FillingsUpdate:  mu: -0.100600854  nElectrons: 9.000000  magneticMoment: [ Abs: 0.70002  Tot: +0.70000 ]
SCF: Cycle:  4   F: -28.397613569387250   dF: -4.610e-05   |Residual|: 2.103e-03   |deigs|: 3.543e-03  t[s]:     15.40
	FillingsUpdate:  mu: -0.099091532  nElectrons: 9.000000  magneticMoment: [ Abs: 0.70026  Tot: +0.70000 ]
SCF: Cycle:  5   F: -28.397635524319149   dF: -2.195e-05   |Residual|: 1.817e-03   |deigs|: 2.550e-03  t[s]:     17.32
	FillingsUpdate:  mu: -0.096842919  nElectrons: 9.000000  magneticMoment: [ Abs: 0.70495  Tot: +0.70000 ]
SCF: Cycle:  6   F: -28.397645920668293   dF: -1.040e-05   |Residual|: 1.295e-03   |deigs|: 2.559e-03  t[s]:     19.21
	FillingsUpdate:  mu: -0.094845210  nElectrons: 9.000000  magneticMoment: [ Abs: 0.70589  Tot: +0.70000 ]
SCF: Cycle:  7   F: -28.397668196922755   dF: -2.228e-05   |Residual|: 1.002e-03   |deigs|: 2.728e-03  t[s]:     21.12
	FillingsUpdate:  mu: -0.094387941  nElectrons: 9.000000  magneticMoment: [ Abs: 0.70097  Tot: +0.70000 ]
SCF: Cycle:  8   F: -28.397689774653212   dF: -2.158e-05   |Residual|: 7.960e-04   |deigs|: 7.825e-04  t[s]:     23.12
	FillingsUpdate:  mu: -0.093426802  nElectrons: 9.000000  magneticMoment: [ Abs: 0.70048  Tot: +0.70000 ]
SCF: Cycle:  9   F: -28.397696100895534   dF: -6.326e-06   |Residual|: 6.637e-04   |deigs|: 9.587e-04  t[s]:     25.17
	FillingsUpdate:  mu: -0.092137937  nElectrons: 9.000000  magneticMoment: [ Abs: 0.70299  Tot: +0.70000 ]
SCF: Cycle: 10   F: -28.397697100150189   dF: -9.993e-07   |Residual|: 5.592e-04   |deigs|: 1.323e-03  t[s]:     27.19
	FillingsUpdate:  mu: -0.091416231  nElectrons: 9.000000  magneticMoment: [ Abs: 0.70322  Tot: +0.70000 ]
SCF: Cycle: 11   F: -28.397700035282032   dF: -2.935e-06   |Residual|: 4.994e-04   |deigs|: 7.070e-04  t[s]:     29.23
	FillingsUpdate:  mu: -0.090664328  nElectrons: 9.000000  magneticMoment: [ Abs: 0.70350  Tot: +0.70000 ]
SCF: Cycle: 12   F: -28.397707441356996   dF: -7.406e-06   |Residual|: 4.385e-04   |deigs|: 7.526e-04  t[s]:     31.24
	FillingsUpdate:  mu: -0.089427687  nElectrons: 9.000000  magneticMoment: [ Abs: 0.70471  Tot: +0.70000 ]
SCF: Cycle: 13   F: -28.397712570622691   dF: -5.129e-06   |Residual|: 3.930e-04   |deigs|: 1.293e-03  t[s]:     33.31
	FillingsUpdate:  mu: -0.088111813  nElectrons: 9.000000  magneticMoment: [ Abs: 0.70268  Tot: +0.70000 ]
SCF: Cycle: 14   F: -28.397716229465029   dF: -3.659e-06   |Residual|: 3.826e-04   |deigs|: 1.359e-03  t[s]:     35.43
	FillingsUpdate:  mu: -0.087146292  nElectrons: 9.000000  magneticMoment: [ Abs: 0.70073  Tot: +0.70000 ]
SCF: Cycle: 15   F: -28.397718945095505   dF: -2.716e-06   |Residual|: 3.254e-04   |deigs|: 1.261e-03  t[s]:     37.48
	FillingsUpdate:  mu: -0.086450944  nElectrons: 9.000000  magneticMoment: [ Abs: 0.70118  Tot: +0.70000 ]
SCF: Cycle: 16   F: -28.397721343593467   dF: -2.398e-06   |Residual|: 2.339e-04   |deigs|: 8.618e-04  t[s]:     39.54
	FillingsUpdate:  mu: -0.086029139  nElectrons: 9.000000  magneticMoment: [ Abs: 0.70071  Tot: +0.70000 ]
SCF: Cycle: 17   F: -28.397722158743580   dF: -8.152e-07   |Residual|: 1.758e-04   |deigs|: 4.647e-04  t[s]:     41.53
	FillingsUpdate:  mu: -0.085782430  nElectrons: 9.000000  magneticMoment: [ Abs: 0.70061  Tot: +0.70000 ]
SCF: Cycle: 18   F: -28.397722563375854   dF: -4.046e-07   |Residual|: 1.074e-04   |deigs|: 2.783e-04  t[s]:     43.57
	FillingsUpdate:  mu: -0.085752169  nElectrons: 9.000000  magneticMoment: [ Abs: 0.70062  Tot: +0.70000 ]
SCF: Cycle: 19   F: -28.397722993605623   dF: -4.302e-07   |Residual|: 6.535e-05   |deigs|: 1.921e-04  t[s]:     45.58
	FillingsUpdate:  mu: -0.085787956  nElectrons: 9.000000  magneticMoment: [ Abs: 0.70046  Tot: +0.70000 ]
SCF: Cycle: 20   F: -28.397723107014425   dF: -1.134e-07   |Residual|: 4.473e-05   |deigs|: 1.508e-04  t[s]:     47.56
	FillingsUpdate:  mu: -0.085773986  nElectrons: 9.000000  magneticMoment: [ Abs: 0.70036  Tot: +0.70000 ]
SCF: Cycle: 21   F: -28.397723158446059   dF: -5.143e-08   |Residual|: 2.679e-05   |deigs|: 7.480e-05  t[s]:     49.64
	FillingsUpdate:  mu: -0.085755383  nElectrons: 9.000000  magneticMoment: [ Abs: 0.70033  Tot: +0.70000 ]
SCF: Cycle: 22   F: -28.397723194497043   dF: -3.605e-08   |Residual|: 1.808e-05   |deigs|: 4.895e-05  t[s]:     51.69
	FillingsUpdate:  mu: -0.085747769  nElectrons: 9.000000  magneticMoment: [ Abs: 0.70029  Tot: +0.70000 ]
SCF: Cycle: 23   F: -28.397723218781401   dF: -2.428e-08   |Residual|: 1.615e-05   |deigs|: 4.574e-05  t[s]:     53.64
	FillingsUpdate:  mu: -0.085746876  nElectrons: 9.000000  magneticMoment: [ Abs: 0.70024  Tot: +0.70000 ]
SCF: Cycle: 24   F: -28.397723236269346   dF: -1.749e-08   |Residual|: 1.484e-05   |deigs|: 5.707e-05  t[s]:     55.66
	FillingsUpdate:  mu: -0.085738084  nElectrons: 9.000000  magneticMoment: [ Abs: 0.70020  Tot: +0.70000 ]
SCF: Cycle: 25   F: -28.397723245179478   dF: -8.910e-09   |Residual|: 1.204e-05   |deigs|: 5.724e-05  t[s]:     57.64
	FillingsUpdate:  mu: -0.085730349  nElectrons: 9.000000  magneticMoment: [ Abs: 0.70016  Tot: +0.70000 ]
SCF: Cycle: 26   F: -28.397723251874314   dF: -6.695e-09   |Residual|: 9.678e-06   |deigs|: 4.245e-04  t[s]:     59.59
SCF: Converged (|Delta E|<1.000000e-08 for 2 iters).


# Ionic positions in lattice coordinates:
ion K   0.000000000000000   0.000000000000000   0.000000000000000 0

# Forces in Lattice coordinates:
force K  -0.000000000000000   0.000000000000000   0.000000000000000 0

# Energy components:
   Eewald =      -18.0480261003326561
       EH =        4.8896385267996019
     Eloc =      -18.0820357248308881
      Enl =       -2.7776791404531762
   Epulay =        0.0000000041876954
      Exc =       -4.2676091568038830
       KE =        9.8879889190484960
-------------------------------------
     Etot =      -28.3977226723848091
       TS =        0.0000005794895062
-------------------------------------
        F =      -28.3977232518743143

IonicMinimize: Iter:   0  F: -28.397723251874314  |grad|_K:  0.000e+00  t[s]:     59.71
IonicMinimize: Converged (|grad|_K<1.000000e-04).

#--- Lowdin population analysis ---
# oxidation-state K +0.127
# magnetic-moments K +0.577

End date and time: Sat Feb  5 23:50:24 2022  (Duration: 0-0:00:59.74)
Done!
scale=3
magnetization=0.7
--------------------------------------------------------------------------
The library attempted to open the following supporting CUDA libraries,
but each of them failed.  CUDA-aware support is disabled.
libcuda.so.1: cannot open shared object file: No such file or directory
libcuda.dylib: cannot open shared object file: No such file or directory
/usr/lib64/libcuda.so.1: cannot open shared object file: No such file or directory
/usr/lib64/libcuda.dylib: cannot open shared object file: No such file or directory
If you are not interested in CUDA-aware support, then run with
--mca opal_warn_on_missing_libcuda 0 to suppress this message.  If you are interested
in CUDA-aware support, then try setting LD_LIBRARY_PATH to the location
of libcuda.so.1 to get passed this issue.
--------------------------------------------------------------------------
--------------------------------------------------------------------------
No OpenFabrics connection schemes reported that they were able to be
used on a specific port.  As such, the openib BTL (OpenFabrics
support) will be disabled for this port.

  Local host:           d-6-8-2
  Local device:         mlx5_1
  Local port:           1
  CPCs attempted:       rdmacm, udcm
--------------------------------------------------------------------------

*************** JDFTx 1.6.0 (git hash 42ebbcc2) ***************

Start date and time: Sat Feb  5 23:50:25 2022
Executable jdftx with command-line: -i Alkali.in
Running on hosts (process indices):  d-6-8-2 (0-18)
Divided in process groups (process indices):  0 (0)  1 (1)  2 (2)  3 (3)  4 (4)  5 (5)  6 (6)  7 (7)  8 (8)  9 (9)  10 (10)  11 (11)  12 (12)  13 (13)  14 (14)  15 (15)  16 (16)  17 (17)  18 (18)
Resource initialization completed at t[s]:      0.00
Run totals: 19 processes, 48 threads, 0 GPUs


Input parsed successfully to the following command list (including defaults):

basis kpoint-dependent
coords-type Lattice
core-overlap-check vector
coulomb-interaction Slab 001
davidson-band-ratio 1.1
dump End None
dump-name $INPUT.$VAR
elec-cutoff 20
elec-eigen-algo Davidson
elec-ex-corr gga-PBE
elec-initial-magnetization 0.700000 yes
elec-smearing Fermi 1e-05
electronic-minimize  \
	dirUpdateScheme      FletcherReeves \
	linminMethod         DirUpdateRecommended \
	nIterations          100 \
	history              15 \
	knormThreshold       0 \
	energyDiffThreshold  1e-08 \
	nEnergyDiff          2 \
	alphaTstart          1 \
	alphaTmin            1e-10 \
	updateTestStepSize   yes \
	alphaTreduceFactor   0.1 \
	alphaTincreaseFactor 3 \
	nAlphaAdjustMax      3 \
	wolfeEnergy          0.0001 \
	wolfeGradient        0.9 \
	fdTest               no
electronic-scf  \
	nIterations	10000 \
	energyDiffThreshold	1e-08 \
	residualThreshold	1e-07 \
	mixFraction	0.5 \
	qMetric	0.8 \
	history	10 \
	nEigSteps	2 \
	eigDiffThreshold	1e-08 \
	mixedVariable	Density \
	qKerker	0.8 \
	qKappa	-1 \
	verbose	no \
	mixFractionMag	1.5
exchange-regularization WignerSeitzTruncated
fluid None
fluid-ex-corr (null) lda-PZ
fluid-gummel-loop 10 1.000000e-05
fluid-minimize  \
	dirUpdateScheme      PolakRibiere \
	linminMethod         DirUpdateRecommended \
	nIterations          100 \
	history              15 \
	knormThreshold       0 \
	energyDiffThreshold  0 \
	nEnergyDiff          2 \
	alphaTstart          1 \
	alphaTmin            1e-10 \
	updateTestStepSize   yes \
	alphaTreduceFactor   0.1 \
	alphaTincreaseFactor 3 \
	nAlphaAdjustMax      3 \
	wolfeEnergy          0.0001 \
	wolfeGradient        0.9 \
	fdTest               no
fluid-solvent H2O 55.338 ScalarEOS \
	epsBulk 78.4 \
	pMol 0.92466 \
	epsInf 1.77 \
	Pvap 1.06736e-10 \
	sigmaBulk 4.62e-05 \
	Rvdw 2.61727 \
	Res 1.42 \
	tauNuc 343133 \
	poleEl 15 7 1
forces-output-coords Positions
ion K   0.000000000000000   0.000000000000000   0.000000000000000 0
ion-species SG15/$ID_ONCV_PBE.upf
ion-width 0
ionic-minimize  \
	dirUpdateScheme      L-BFGS \
	linminMethod         DirUpdateRecommended \
	nIterations          0 \
	history              15 \
	knormThreshold       0.0001 \
	energyDiffThreshold  1e-06 \
	nEnergyDiff          2 \
	alphaTstart          1 \
	alphaTmin            1e-10 \
	updateTestStepSize   yes \
	alphaTreduceFactor   0.1 \
	alphaTincreaseFactor 3 \
	nAlphaAdjustMax      3 \
	wolfeEnergy          0.0001 \
	wolfeGradient        0.9 \
	fdTest               no
kpoint   0.000000000000   0.000000000000   0.000000000000  1.00000000000000
kpoint-folding 12 12 1 
latt-move-scale 1 1 1
latt-scale 3 3 1 
lattice  \
	   4.727486978767153   -2.363743489383575    0.000000000000000  \
	  -0.000000000000000    4.094123819672498    0.000000000000000  \
	   0.000000000000000    0.000000000000000   40.000000000000000 
lattice-minimize  \
	dirUpdateScheme      L-BFGS \
	linminMethod         DirUpdateRecommended \
	nIterations          0 \
	history              15 \
	knormThreshold       0 \
	energyDiffThreshold  1e-06 \
	nEnergyDiff          2 \
	alphaTstart          1 \
	alphaTmin            1e-10 \
	updateTestStepSize   yes \
	alphaTreduceFactor   0.1 \
	alphaTincreaseFactor 3 \
	nAlphaAdjustMax      3 \
	wolfeEnergy          0.0001 \
	wolfeGradient        0.9 \
	fdTest               no
lcao-params -1 1e-06 1e-05
pcm-variant GLSSA13
spintype z-spin
subspace-rotation-factor 1 yes
symmetries automatic
symmetry-threshold 0.0001



---------- Setting up symmetries ----------

Found 24 point-group symmetries of the bravais lattice
Found 24 space-group symmetries with basis
Applied RMS atom displacement 0 bohrs to make symmetries exact.

---------- Initializing the Grid ----------
R = 
[      14.1825     -7.09123            0  ]
[            0      12.2824            0  ]
[            0            0           40  ]
unit cell volume = 6967.77
G =
[   0.443025   0.255781         -0  ]
[          0   0.511561         -0  ]
[         -0         -0    0.15708  ]
Minimum fftbox size, Smin = [  60  60  164  ]
Chosen fftbox size, S = [  60  60  168  ]

---------- Exchange Correlation functional ----------
Initalized PBE GGA exchange.
Initalized PBE GGA correlation.

---------- Setting up pseudopotentials ----------
Width of ionic core gaussian charges (only for fluid interactions / plotting) set to 0

Reading pseudopotential file '/home/gridsan/aligho/DFT/build-Nov24/pseudopotentials/SG15/K_ONCV_PBE.upf':
  'K' pseudopotential, 'PBE' functional
  Generated using ONCVPSP code by D. R. Hamann
  Author: Martin Schlipf and Francois Gygi  Date: 150915.
  9 valence electrons, 3 orbitals, 6 projectors, 2222 radial grid points, with lMax = 2
  Transforming local potential to a uniform radial grid of dG=0.02 with 1489 points.
  Transforming nonlocal projectors to a uniform radial grid of dG=0.02 with 432 points.
    3S    l: 0   occupation:  2.0   eigenvalue: -1.298836
    3P    l: 1   occupation:  6.0   eigenvalue: -0.691386
    4S    l: 0   occupation:  1.0   eigenvalue: -0.085223
  Transforming atomic orbitals to a uniform radial grid of dG=0.02 with 432 points.
  Core radius for overlap checks: 2.06 bohrs.
  Reading pulay file /home/gridsan/aligho/DFT/build-Nov24/pseudopotentials/SG15/K_ONCV_PBE.pulay ... using dE_dnG = -1.597219e-05 computed for Ecut = 20.

Initialized 1 species with 1 total atoms.

Folded 1 k-points by 12x12x1 to 144 k-points.

---------- Setting up k-points, bands, fillings ----------
Reduced to 19 k-points under symmetry. 
Computing the number of bands and number of electrons
Calculating initial fillings.
nElectrons:   9.000000   nBands: 6   nStates: 38

----- Setting up reduced wavefunction bases (one per k-point) -----
average nbasis = 29766.104 , ideal nbasis = 29766.845

---------- Setting up coulomb interaction ----------
Initialized slab truncation along lattice direction 001

---------- Setting up 2D ewald sum ----------
Optimum gaussian width for ewald sums = 7.873530 bohr.
Real space sums over 289 unit cells with max indices [  8  8  0  ]
Reciprocal space sums over 81 terms with max indices [  4  4  0  ]

---------- Allocating electronic variables ----------
Initializing wave functions:  linear combination of atomic orbitals
Note: number of bands (6) exceeds available atomic orbitals (5)
K pseudo-atom occupations:   s ( 2 1 )  p ( 6 )
[d-6-8-2:09264] 18 more processes have sent help message help-mpi-common-cuda.txt / dlopen failed
[d-6-8-2:09264] Set MCA parameter "orte_base_help_aggregate" to 0 to see all help / error messages
[d-6-8-2:09264] 18 more processes have sent help message help-mpi-btl-openib-cpc-base.txt / no cpcs for port
	FillingsUpdate:  mu: -0.088279660  nElectrons: 9.000000  magneticMoment: [ Abs: 0.70000  Tot: +0.70000 ]
LCAOMinimize: Iter:   0  F: -28.3820936561892267  |grad|_K:  9.802e-06  alpha:  1.000e+00
	FillingsUpdate:  mu: -0.088277897  nElectrons: 9.000000  magneticMoment: [ Abs: 0.70000  Tot: +0.70000 ]
LCAOMinimize: Iter:   1  F: -28.3820937213986575  |grad|_K:  6.390e-08  alpha:  9.922e-01  linmin: -8.300e-03  cgtest:  2.175e-01  t[s]:      8.65
LCAOMinimize: Encountered beta<0, resetting CG.
	FillingsUpdate:  mu: -0.088277902  nElectrons: 9.000000  magneticMoment: [ Abs: 0.70000  Tot: +0.70000 ]
LCAOMinimize: Iter:   2  F: -28.3820937214011977  |grad|_K:  1.106e-08  alpha:  8.252e-01  linmin: -1.105e-01  cgtest:  9.997e-01  t[s]:     11.03
LCAOMinimize: Encountered beta<0, resetting CG.
LCAOMinimize: Converged (|Delta F|<1.000000e-06 for 2 iters).


---- Citations for features of the code used in this run ----

   Software package:
      R. Sundararaman, K. Letchworth-Weaver, K.A. Schwarz, D. Gunceler, Y. Ozhabes and T.A. Arias, 'JDFTx: software for joint density-functional theory', SoftwareX 6, 278 (2017)

   gga-PBE exchange-correlation functional:
      J.P. Perdew, K. Burke and M. Ernzerhof, Phys. Rev. Lett. 77, 3865 (1996)

   Pseudopotentials:
      M Schlipf and F Gygi, Comput. Phys. Commun. 196, 36 (2015)

   Truncated Coulomb potentials:
      R. Sundararaman and T.A. Arias, Phys. Rev. B 87, 165122 (2013)

This list may not be complete. Please suggest additional citations or
report any other bugs at https://github.com/shankar1729/jdftx/issues

Initialization completed successfully at t[s]:     11.19


-------- Electronic minimization -----------
Will mix electronic density at each iteration.
	FillingsUpdate:  mu: -0.088277902  nElectrons: 9.000000  magneticMoment: [ Abs: 0.70000  Tot: +0.70000 ]
	FillingsUpdate:  mu: -0.089044797  nElectrons: 9.000000  magneticMoment: [ Abs: 0.70000  Tot: +0.70000 ]
SCF: Cycle:  0   F: -28.383220265879896   dF: -1.127e-03   |Residual|: 3.301e-03   |deigs|: 1.740e-01  t[s]:     15.95
	FillingsUpdate:  mu: -0.089196827  nElectrons: 9.000000  magneticMoment: [ Abs: 0.70020  Tot: +0.70000 ]
SCF: Cycle:  1   F: -28.383253115480166   dF: -3.285e-05   |Residual|: 2.308e-03   |deigs|: 5.111e-03  t[s]:     19.66
	FillingsUpdate:  mu: -0.089313082  nElectrons: 9.000000  magneticMoment: [ Abs: 0.70135  Tot: +0.70000 ]
SCF: Cycle:  2   F: -28.383276758521582   dF: -2.364e-05   |Residual|: 1.770e-03   |deigs|: 2.962e-03  t[s]:     23.38
	FillingsUpdate:  mu: -0.089559612  nElectrons: 9.000000  magneticMoment: [ Abs: 0.70170  Tot: +0.70000 ]
SCF: Cycle:  3   F: -28.383296155219757   dF: -1.940e-05   |Residual|: 1.253e-03   |deigs|: 1.813e-03  t[s]:     27.13
	FillingsUpdate:  mu: -0.089697586  nElectrons: 9.000000  magneticMoment: [ Abs: 0.70115  Tot: +0.70000 ]
SCF: Cycle:  4   F: -28.383309784684794   dF: -1.363e-05   |Residual|: 7.362e-04   |deigs|: 2.162e-03  t[s]:     30.99
	FillingsUpdate:  mu: -0.089812593  nElectrons: 9.000000  magneticMoment: [ Abs: 0.70144  Tot: +0.70000 ]
SCF: Cycle:  5   F: -28.383317062874028   dF: -7.278e-06   |Residual|: 4.093e-04   |deigs|: 1.490e-03  t[s]:     34.93
	FillingsUpdate:  mu: -0.089775783  nElectrons: 9.000000  magneticMoment: [ Abs: 0.70112  Tot: +0.70000 ]
SCF: Cycle:  6   F: -28.383320493430340   dF: -3.431e-06   |Residual|: 2.884e-04   |deigs|: 1.151e-03  t[s]:     38.81
	FillingsUpdate:  mu: -0.089655921  nElectrons: 9.000000  magneticMoment: [ Abs: 0.70145  Tot: +0.70000 ]
SCF: Cycle:  7   F: -28.383322539810560   dF: -2.046e-06   |Residual|: 2.250e-04   |deigs|: 8.497e-04  t[s]:     42.80
	FillingsUpdate:  mu: -0.089524846  nElectrons: 9.000000  magneticMoment: [ Abs: 0.70166  Tot: +0.70000 ]
SCF: Cycle:  8   F: -28.383323110582570   dF: -5.708e-07   |Residual|: 1.800e-04   |deigs|: 5.648e-04  t[s]:     46.91
	FillingsUpdate:  mu: -0.089277324  nElectrons: 9.000000  magneticMoment: [ Abs: 0.70211  Tot: +0.70000 ]
SCF: Cycle:  9   F: -28.383323243770946   dF: -1.332e-07   |Residual|: 1.576e-04   |deigs|: 3.227e-04  t[s]:     51.06
	FillingsUpdate:  mu: -0.089105723  nElectrons: 9.000000  magneticMoment: [ Abs: 0.70190  Tot: +0.70000 ]
SCF: Cycle: 10   F: -28.383323430746255   dF: -1.870e-07   |Residual|: 1.479e-04   |deigs|: 1.997e-04  t[s]:     55.31
	FillingsUpdate:  mu: -0.088881026  nElectrons: 9.000000  magneticMoment: [ Abs: 0.70241  Tot: +0.70000 ]
SCF: Cycle: 11   F: -28.383324186035654   dF: -7.553e-07   |Residual|: 1.192e-04   |deigs|: 2.315e-04  t[s]:     59.51
	FillingsUpdate:  mu: -0.088893842  nElectrons: 9.000000  magneticMoment: [ Abs: 0.70197  Tot: +0.70000 ]
SCF: Cycle: 12   F: -28.383324957793203   dF: -7.718e-07   |Residual|: 9.578e-05   |deigs|: 8.817e-05  t[s]:     63.73
	FillingsUpdate:  mu: -0.088660989  nElectrons: 9.000000  magneticMoment: [ Abs: 0.70165  Tot: +0.70000 ]
SCF: Cycle: 13   F: -28.383325073553351   dF: -1.158e-07   |Residual|: 9.592e-05   |deigs|: 2.552e-04  t[s]:     67.98
	FillingsUpdate:  mu: -0.088471737  nElectrons: 9.000000  magneticMoment: [ Abs: 0.70181  Tot: +0.70000 ]
SCF: Cycle: 14   F: -28.383324900983215   dF: +1.726e-07   |Residual|: 9.352e-05   |deigs|: 2.064e-04  t[s]:     72.22
	FillingsUpdate:  mu: -0.088233208  nElectrons: 9.000000  magneticMoment: [ Abs: 0.70206  Tot: +0.70000 ]
SCF: Cycle: 15   F: -28.383325113407974   dF: -2.124e-07   |Residual|: 8.259e-05   |deigs|: 3.311e-04  t[s]:     76.45
	FillingsUpdate:  mu: -0.088218244  nElectrons: 9.000000  magneticMoment: [ Abs: 0.70159  Tot: +0.70000 ]
SCF: Cycle: 16   F: -28.383325578495146   dF: -4.651e-07   |Residual|: 6.619e-05   |deigs|: 1.378e-04  t[s]:     80.70
	FillingsUpdate:  mu: -0.088125756  nElectrons: 9.000000  magneticMoment: [ Abs: 0.70131  Tot: +0.70000 ]
SCF: Cycle: 17   F: -28.383325825872440   dF: -2.474e-07   |Residual|: 5.159e-05   |deigs|: 1.982e-04  t[s]:     84.94
	FillingsUpdate:  mu: -0.088056806  nElectrons: 9.000000  magneticMoment: [ Abs: 0.70132  Tot: +0.70000 ]
SCF: Cycle: 18   F: -28.383326018299083   dF: -1.924e-07   |Residual|: 3.125e-05   |deigs|: 3.132e-04  t[s]:     89.12
	FillingsUpdate:  mu: -0.088044647  nElectrons: 9.000000  magneticMoment: [ Abs: 0.70131  Tot: +0.70000 ]
SCF: Cycle: 19   F: -28.383326092003539   dF: -7.370e-08   |Residual|: 2.091e-05   |deigs|: 3.835e-05  t[s]:     93.27
	FillingsUpdate:  mu: -0.088043733  nElectrons: 9.000000  magneticMoment: [ Abs: 0.70128  Tot: +0.70000 ]
SCF: Cycle: 20   F: -28.383326137116395   dF: -4.511e-08   |Residual|: 1.337e-05   |deigs|: 2.815e-05  t[s]:     97.47
	FillingsUpdate:  mu: -0.088049352  nElectrons: 9.000000  magneticMoment: [ Abs: 0.70130  Tot: +0.70000 ]
SCF: Cycle: 21   F: -28.383326159799328   dF: -2.268e-08   |Residual|: 7.405e-06   |deigs|: 2.473e-05  t[s]:    101.61
	FillingsUpdate:  mu: -0.088046298  nElectrons: 9.000000  magneticMoment: [ Abs: 0.70130  Tot: +0.70000 ]
SCF: Cycle: 22   F: -28.383326175513485   dF: -1.571e-08   |Residual|: 4.994e-06   |deigs|: 1.710e-05  t[s]:    105.71
	FillingsUpdate:  mu: -0.088047278  nElectrons: 9.000000  magneticMoment: [ Abs: 0.70131  Tot: +0.70000 ]
SCF: Cycle: 23   F: -28.383326184860731   dF: -9.347e-09   |Residual|: 3.137e-06   |deigs|: 1.560e-05  t[s]:    109.77
	FillingsUpdate:  mu: -0.088048939  nElectrons: 9.000000  magneticMoment: [ Abs: 0.70131  Tot: +0.70000 ]
SCF: Cycle: 24   F: -28.383326190749294   dF: -5.889e-09   |Residual|: 2.367e-06   |deigs|: 1.870e-05  t[s]:    113.85
SCF: Converged (|Delta E|<1.000000e-08 for 2 iters).


# Ionic positions in lattice coordinates:
ion K   0.000000000000000   0.000000000000000   0.000000000000000 0

# Forces in Lattice coordinates:
force K   0.000000000000000  -0.000000000000000   0.000000000000000 0

# Energy components:
   Eewald =      -12.0320174002217755
       EH =       10.7405363626000501
     Eloc =      -29.9383987731671830
      Enl =       -2.7704330088426263
   Epulay =       -0.0000000016982517
      Exc =       -4.2410233411313358
       KE =        9.8580105512013354
-------------------------------------
     Etot =      -28.3833256112597887
       TS =        0.0000005794895062
-------------------------------------
        F =      -28.3833261907492940

IonicMinimize: Iter:   0  F: -28.383326190749294  |grad|_K:  0.000e+00  t[s]:    114.11
IonicMinimize: Converged (|grad|_K<1.000000e-04).

#--- Lowdin population analysis ---
# oxidation-state K +0.025
# magnetic-moments K +0.678

End date and time: Sat Feb  5 23:52:20 2022  (Duration: 0-0:01:54.15)
Done!
scale=4
magnetization=0.7
--------------------------------------------------------------------------
The library attempted to open the following supporting CUDA libraries,
but each of them failed.  CUDA-aware support is disabled.
libcuda.so.1: cannot open shared object file: No such file or directory
libcuda.dylib: cannot open shared object file: No such file or directory
/usr/lib64/libcuda.so.1: cannot open shared object file: No such file or directory
/usr/lib64/libcuda.dylib: cannot open shared object file: No such file or directory
If you are not interested in CUDA-aware support, then run with
--mca opal_warn_on_missing_libcuda 0 to suppress this message.  If you are interested
in CUDA-aware support, then try setting LD_LIBRARY_PATH to the location
of libcuda.so.1 to get passed this issue.
--------------------------------------------------------------------------
--------------------------------------------------------------------------
No OpenFabrics connection schemes reported that they were able to be
used on a specific port.  As such, the openib BTL (OpenFabrics
support) will be disabled for this port.

  Local host:           d-6-8-2
  Local device:         mlx5_1
  Local port:           1
  CPCs attempted:       rdmacm, udcm
--------------------------------------------------------------------------

*************** JDFTx 1.6.0 (git hash 42ebbcc2) ***************

Start date and time: Sat Feb  5 23:52:21 2022
Executable jdftx with command-line: -i Alkali.in
Running on hosts (process indices):  d-6-8-2 (0-18)
Divided in process groups (process indices):  0 (0)  1 (1)  2 (2)  3 (3)  4 (4)  5 (5)  6 (6)  7 (7)  8 (8)  9 (9)  10 (10)  11 (11)  12 (12)  13 (13)  14 (14)  15 (15)  16 (16)  17 (17)  18 (18)
Resource initialization completed at t[s]:      0.00
Run totals: 19 processes, 48 threads, 0 GPUs


Input parsed successfully to the following command list (including defaults):

basis kpoint-dependent
coords-type Lattice
core-overlap-check vector
coulomb-interaction Slab 001
davidson-band-ratio 1.1
dump End None
dump-name $INPUT.$VAR
elec-cutoff 20
elec-eigen-algo Davidson
elec-ex-corr gga-PBE
elec-initial-magnetization 0.700000 yes
elec-smearing Fermi 1e-05
electronic-minimize  \
	dirUpdateScheme      FletcherReeves \
	linminMethod         DirUpdateRecommended \
	nIterations          100 \
	history              15 \
	knormThreshold       0 \
	energyDiffThreshold  1e-08 \
	nEnergyDiff          2 \
	alphaTstart          1 \
	alphaTmin            1e-10 \
	updateTestStepSize   yes \
	alphaTreduceFactor   0.1 \
	alphaTincreaseFactor 3 \
	nAlphaAdjustMax      3 \
	wolfeEnergy          0.0001 \
	wolfeGradient        0.9 \
	fdTest               no
electronic-scf  \
	nIterations	10000 \
	energyDiffThreshold	1e-08 \
	residualThreshold	1e-07 \
	mixFraction	0.5 \
	qMetric	0.8 \
	history	10 \
	nEigSteps	2 \
	eigDiffThreshold	1e-08 \
	mixedVariable	Density \
	qKerker	0.8 \
	qKappa	-1 \
	verbose	no \
	mixFractionMag	1.5
exchange-regularization WignerSeitzTruncated
fluid None
fluid-ex-corr (null) lda-PZ
fluid-gummel-loop 10 1.000000e-05
fluid-minimize  \
	dirUpdateScheme      PolakRibiere \
	linminMethod         DirUpdateRecommended \
	nIterations          100 \
	history              15 \
	knormThreshold       0 \
	energyDiffThreshold  0 \
	nEnergyDiff          2 \
	alphaTstart          1 \
	alphaTmin            1e-10 \
	updateTestStepSize   yes \
	alphaTreduceFactor   0.1 \
	alphaTincreaseFactor 3 \
	nAlphaAdjustMax      3 \
	wolfeEnergy          0.0001 \
	wolfeGradient        0.9 \
	fdTest               no
fluid-solvent H2O 55.338 ScalarEOS \
	epsBulk 78.4 \
	pMol 0.92466 \
	epsInf 1.77 \
	Pvap 1.06736e-10 \
	sigmaBulk 4.62e-05 \
	Rvdw 2.61727 \
	Res 1.42 \
	tauNuc 343133 \
	poleEl 15 7 1
forces-output-coords Positions
ion K   0.000000000000000   0.000000000000000   0.000000000000000 0
ion-species SG15/$ID_ONCV_PBE.upf
ion-width 0
ionic-minimize  \
	dirUpdateScheme      L-BFGS \
	linminMethod         DirUpdateRecommended \
	nIterations          0 \
	history              15 \
	knormThreshold       0.0001 \
	energyDiffThreshold  1e-06 \
	nEnergyDiff          2 \
	alphaTstart          1 \
	alphaTmin            1e-10 \
	updateTestStepSize   yes \
	alphaTreduceFactor   0.1 \
	alphaTincreaseFactor 3 \
	nAlphaAdjustMax      3 \
	wolfeEnergy          0.0001 \
	wolfeGradient        0.9 \
	fdTest               no
kpoint   0.000000000000   0.000000000000   0.000000000000  1.00000000000000
kpoint-folding 12 12 1 
latt-move-scale 1 1 1
latt-scale 4 4 1 
lattice  \
	   4.727486978767153   -2.363743489383575    0.000000000000000  \
	  -0.000000000000000    4.094123819672498    0.000000000000000  \
	   0.000000000000000    0.000000000000000   40.000000000000000 
lattice-minimize  \
	dirUpdateScheme      L-BFGS \
	linminMethod         DirUpdateRecommended \
	nIterations          0 \
	history              15 \
	knormThreshold       0 \
	energyDiffThreshold  1e-06 \
	nEnergyDiff          2 \
	alphaTstart          1 \
	alphaTmin            1e-10 \
	updateTestStepSize   yes \
	alphaTreduceFactor   0.1 \
	alphaTincreaseFactor 3 \
	nAlphaAdjustMax      3 \
	wolfeEnergy          0.0001 \
	wolfeGradient        0.9 \
	fdTest               no
lcao-params -1 1e-06 1e-05
pcm-variant GLSSA13
spintype z-spin
subspace-rotation-factor 1 yes
symmetries automatic
symmetry-threshold 0.0001



---------- Setting up symmetries ----------

Found 24 point-group symmetries of the bravais lattice
Found 24 space-group symmetries with basis
Applied RMS atom displacement 0 bohrs to make symmetries exact.

---------- Initializing the Grid ----------
R = 
[      18.9099     -9.45497            0  ]
[            0      16.3765            0  ]
[            0            0           40  ]
unit cell volume = 12387.1
G =
[   0.332269   0.191835         -0  ]
[          0   0.383671         -0  ]
[         -0         -0    0.15708  ]
Minimum fftbox size, Smin = [  80  80  164  ]
Chosen fftbox size, S = [  80  80  168  ]

---------- Exchange Correlation functional ----------
Initalized PBE GGA exchange.
Initalized PBE GGA correlation.

---------- Setting up pseudopotentials ----------
Width of ionic core gaussian charges (only for fluid interactions / plotting) set to 0

Reading pseudopotential file '/home/gridsan/aligho/DFT/build-Nov24/pseudopotentials/SG15/K_ONCV_PBE.upf':
  'K' pseudopotential, 'PBE' functional
  Generated using ONCVPSP code by D. R. Hamann
  Author: Martin Schlipf and Francois Gygi  Date: 150915.
  9 valence electrons, 3 orbitals, 6 projectors, 2222 radial grid points, with lMax = 2
  Transforming local potential to a uniform radial grid of dG=0.02 with 1489 points.
  Transforming nonlocal projectors to a uniform radial grid of dG=0.02 with 432 points.
    3S    l: 0   occupation:  2.0   eigenvalue: -1.298836
    3P    l: 1   occupation:  6.0   eigenvalue: -0.691386
    4S    l: 0   occupation:  1.0   eigenvalue: -0.085223
  Transforming atomic orbitals to a uniform radial grid of dG=0.02 with 432 points.
  Core radius for overlap checks: 2.06 bohrs.
  Reading pulay file /home/gridsan/aligho/DFT/build-Nov24/pseudopotentials/SG15/K_ONCV_PBE.pulay ... using dE_dnG = -1.597219e-05 computed for Ecut = 20.

Initialized 1 species with 1 total atoms.

Folded 1 k-points by 12x12x1 to 144 k-points.

---------- Setting up k-points, bands, fillings ----------
Reduced to 19 k-points under symmetry. 
Computing the number of bands and number of electrons
Calculating initial fillings.
nElectrons:   9.000000   nBands: 6   nStates: 38

----- Setting up reduced wavefunction bases (one per k-point) -----
average nbasis = 52924.021 , ideal nbasis = 52918.836

---------- Setting up coulomb interaction ----------
Initialized slab truncation along lattice direction 001

---------- Setting up 2D ewald sum ----------
Optimum gaussian width for ewald sums = 10.498040 bohr.
Real space sums over 289 unit cells with max indices [  8  8  0  ]
Reciprocal space sums over 81 terms with max indices [  4  4  0  ]

---------- Allocating electronic variables ----------
Initializing wave functions:  linear combination of atomic orbitals
Note: number of bands (6) exceeds available atomic orbitals (5)
K pseudo-atom occupations:   s ( 2 1 )  p ( 6 )
[d-6-8-2:74678] 18 more processes have sent help message help-mpi-common-cuda.txt / dlopen failed
[d-6-8-2:74678] Set MCA parameter "orte_base_help_aggregate" to 0 to see all help / error messages
[d-6-8-2:74678] 18 more processes have sent help message help-mpi-btl-openib-cpc-base.txt / no cpcs for port
	FillingsUpdate:  mu: -0.085543785  nElectrons: 9.000000  magneticMoment: [ Abs: 0.70000  Tot: +0.70000 ]
LCAOMinimize: Iter:   0  F: -28.3793598841288848  |grad|_K:  2.167e-06  alpha:  1.000e+00
	FillingsUpdate:  mu: -0.085543322  nElectrons: 9.000000  magneticMoment: [ Abs: 0.70000  Tot: +0.70000 ]
LCAOMinimize: Iter:   1  F: -28.3793598873112565  |grad|_K:  1.013e-08  alpha:  9.912e-01  linmin: -3.122e-03  cgtest:  1.211e-01  t[s]:     14.95
LCAOMinimize: Encountered beta<0, resetting CG.
LCAOMinimize: 	Step increased F by 1.456613e-13, reducing alpha to 5.547553e-02.
	FillingsUpdate:  mu: -0.085543322  nElectrons: 9.000000  magneticMoment: [ Abs: 0.70000  Tot: +0.70000 ]
LCAOMinimize: Iter:   2  F: -28.3793598873114270  |grad|_K:  9.569e-09  alpha:  5.548e-02  linmin: -3.083e-02  cgtest:  1.000e+00  t[s]:     21.11
LCAOMinimize: Encountered beta<0, resetting CG.
LCAOMinimize: Converged (|Delta F|<1.000000e-06 for 2 iters).


---- Citations for features of the code used in this run ----

   Software package:
      R. Sundararaman, K. Letchworth-Weaver, K.A. Schwarz, D. Gunceler, Y. Ozhabes and T.A. Arias, 'JDFTx: software for joint density-functional theory', SoftwareX 6, 278 (2017)

   gga-PBE exchange-correlation functional:
      J.P. Perdew, K. Burke and M. Ernzerhof, Phys. Rev. Lett. 77, 3865 (1996)

   Pseudopotentials:
      M Schlipf and F Gygi, Comput. Phys. Commun. 196, 36 (2015)

   Truncated Coulomb potentials:
      R. Sundararaman and T.A. Arias, Phys. Rev. B 87, 165122 (2013)

This list may not be complete. Please suggest additional citations or
report any other bugs at https://github.com/shankar1729/jdftx/issues

Initialization completed successfully at t[s]:     21.37


-------- Electronic minimization -----------
Will mix electronic density at each iteration.
	FillingsUpdate:  mu: -0.085543322  nElectrons: 9.000000  magneticMoment: [ Abs: 0.70000  Tot: +0.70000 ]
	FillingsUpdate:  mu: -0.085657658  nElectrons: 9.000000  magneticMoment: [ Abs: 0.70000  Tot: +0.70000 ]
SCF: Cycle:  0   F: -28.379454976036758   dF: -9.509e-05   |Residual|: 1.525e-03   |deigs|: 1.688e-01  t[s]:     29.51
	FillingsUpdate:  mu: -0.085672280  nElectrons: 9.000000  magneticMoment: [ Abs: 0.70142  Tot: +0.70000 ]
SCF: Cycle:  1   F: -28.379456478354307   dF: -1.502e-06   |Residual|: 3.869e-04   |deigs|: 1.112e-02  t[s]:     35.94
	FillingsUpdate:  mu: -0.085631976  nElectrons: 9.000000  magneticMoment: [ Abs: 0.70145  Tot: +0.70000 ]
SCF: Cycle:  2   F: -28.379456882968576   dF: -4.046e-07   |Residual|: 2.327e-04   |deigs|: 1.742e-03  t[s]:     42.47
	FillingsUpdate:  mu: -0.085606622  nElectrons: 9.000000  magneticMoment: [ Abs: 0.70169  Tot: +0.70000 ]
SCF: Cycle:  3   F: -28.379457117992835   dF: -2.350e-07   |Residual|: 1.741e-04   |deigs|: 5.669e-04  t[s]:     49.07
	FillingsUpdate:  mu: -0.085540308  nElectrons: 9.000000  magneticMoment: [ Abs: 0.70164  Tot: +0.70000 ]
SCF: Cycle:  4   F: -28.379457293064117   dF: -1.751e-07   |Residual|: 1.220e-04   |deigs|: 3.225e-04  t[s]:     55.76
	FillingsUpdate:  mu: -0.085453836  nElectrons: 9.000000  magneticMoment: [ Abs: 0.70166  Tot: +0.70000 ]
SCF: Cycle:  5   F: -28.379457356586492   dF: -6.352e-08   |Residual|: 7.814e-05   |deigs|: 4.429e-04  t[s]:     62.61
	FillingsUpdate:  mu: -0.085408797  nElectrons: 9.000000  magneticMoment: [ Abs: 0.70160  Tot: +0.70000 ]
SCF: Cycle:  6   F: -28.379457416299960   dF: -5.971e-08   |Residual|: 6.048e-05   |deigs|: 4.392e-04  t[s]:     69.59
	FillingsUpdate:  mu: -0.085391616  nElectrons: 9.000000  magneticMoment: [ Abs: 0.70163  Tot: +0.70000 ]
SCF: Cycle:  7   F: -28.379457473110207   dF: -5.681e-08   |Residual|: 4.737e-05   |deigs|: 2.671e-04  t[s]:     76.62
	FillingsUpdate:  mu: -0.085374060  nElectrons: 9.000000  magneticMoment: [ Abs: 0.70162  Tot: +0.70000 ]
SCF: Cycle:  8   F: -28.379457512440357   dF: -3.933e-08   |Residual|: 4.088e-05   |deigs|: 1.558e-04  t[s]:     83.74
	FillingsUpdate:  mu: -0.085349043  nElectrons: 9.000000  magneticMoment: [ Abs: 0.70162  Tot: +0.70000 ]
SCF: Cycle:  9   F: -28.379457530489901   dF: -1.805e-08   |Residual|: 3.425e-05   |deigs|: 1.576e-04  t[s]:     90.95
	FillingsUpdate:  mu: -0.085334233  nElectrons: 9.000000  magneticMoment: [ Abs: 0.70164  Tot: +0.70000 ]
SCF: Cycle: 10   F: -28.379457507871596   dF: +2.262e-08   |Residual|: 2.858e-05   |deigs|: 1.480e-04  t[s]:     98.33
	FillingsUpdate:  mu: -0.085309546  nElectrons: 9.000000  magneticMoment: [ Abs: 0.70171  Tot: +0.70000 ]
SCF: Cycle: 11   F: -28.379457397856498   dF: +1.100e-07   |Residual|: 2.521e-05   |deigs|: 8.827e-05  t[s]:    105.71
	FillingsUpdate:  mu: -0.085289409  nElectrons: 9.000000  magneticMoment: [ Abs: 0.70177  Tot: +0.70000 ]
SCF: Cycle: 12   F: -28.379457158443685   dF: +2.394e-07   |Residual|: 2.257e-05   |deigs|: 1.182e-04  t[s]:    113.05
	FillingsUpdate:  mu: -0.085292728  nElectrons: 9.000000  magneticMoment: [ Abs: 0.70174  Tot: +0.70000 ]
SCF: Cycle: 13   F: -28.379457228663540   dF: -7.022e-08   |Residual|: 2.313e-05   |deigs|: 8.064e-05  t[s]:    120.32
	FillingsUpdate:  mu: -0.085255901  nElectrons: 9.000000  magneticMoment: [ Abs: 0.70178  Tot: +0.70000 ]
SCF: Cycle: 14   F: -28.379457549221360   dF: -3.206e-07   |Residual|: 1.913e-05   |deigs|: 8.394e-05  t[s]:    127.52
	FillingsUpdate:  mu: -0.085218932  nElectrons: 9.000000  magneticMoment: [ Abs: 0.70178  Tot: +0.70000 ]
SCF: Cycle: 15   F: -28.379457448809653   dF: +1.004e-07   |Residual|: 1.869e-05   |deigs|: 6.388e-05  t[s]:    134.18
	FillingsUpdate:  mu: -0.085188337  nElectrons: 9.000000  magneticMoment: [ Abs: 0.70170  Tot: +0.70000 ]
SCF: Cycle: 16   F: -28.379457473539823   dF: -2.473e-08   |Residual|: 1.730e-05   |deigs|: 4.666e-05  t[s]:    141.43
	FillingsUpdate:  mu: -0.085171868  nElectrons: 9.000000  magneticMoment: [ Abs: 0.70166  Tot: +0.70000 ]
SCF: Cycle: 17   F: -28.379457496860216   dF: -2.332e-08   |Residual|: 1.362e-05   |deigs|: 2.727e-05  t[s]:    148.73
	FillingsUpdate:  mu: -0.085162886  nElectrons: 9.000000  magneticMoment: [ Abs: 0.70165  Tot: +0.70000 ]
SCF: Cycle: 18   F: -28.379457504863069   dF: -8.003e-09   |Residual|: 9.192e-06   |deigs|: 1.681e-05  t[s]:    156.08
	FillingsUpdate:  mu: -0.085156221  nElectrons: 9.000000  magneticMoment: [ Abs: 0.70163  Tot: +0.70000 ]
SCF: Cycle: 19   F: -28.379457592333136   dF: -8.747e-08   |Residual|: 5.407e-06   |deigs|: 9.865e-06  t[s]:    163.42
	FillingsUpdate:  mu: -0.085154064  nElectrons: 9.000000  magneticMoment: [ Abs: 0.70162  Tot: +0.70000 ]
SCF: Cycle: 20   F: -28.379457610540790   dF: -1.821e-08   |Residual|: 3.262e-06   |deigs|: 5.321e-06  t[s]:    170.04
	FillingsUpdate:  mu: -0.085153910  nElectrons: 9.000000  magneticMoment: [ Abs: 0.70163  Tot: +0.70000 ]
SCF: Cycle: 21   F: -28.379457615485489   dF: -4.945e-09   |Residual|: 2.200e-06   |deigs|: 5.374e-06  t[s]:    176.83
	FillingsUpdate:  mu: -0.085153635  nElectrons: 9.000000  magneticMoment: [ Abs: 0.70162  Tot: +0.70000 ]
SCF: Cycle: 22   F: -28.379457616533930   dF: -1.048e-09   |Residual|: 1.488e-06   |deigs|: 6.995e-06  t[s]:    184.08
SCF: Converged (|Delta E|<1.000000e-08 for 2 iters).


# Ionic positions in lattice coordinates:
ion K   0.000000000000000   0.000000000000000   0.000000000000000 0

# Forces in Lattice coordinates:
force K  -0.000000000000000   0.000000000000000   0.000000000000000 0

# Energy components:
   Eewald =       -9.0240130501663280
       EH =       13.7783578841343903
     Eloc =      -35.9889095733702220
      Enl =       -2.7669321698284408
   Epulay =        0.0000000066859396
      Exc =       -4.2433090452360673
       KE =        9.8653491820600081
-------------------------------------
     Etot =      -28.3794567657207253
       TS =        0.0000008508132062
-------------------------------------
        F =      -28.3794576165339301

IonicMinimize: Iter:   0  F: -28.379457616533930  |grad|_K:  0.000e+00  t[s]:    184.48
IonicMinimize: Converged (|grad|_K<1.000000e-04).

#--- Lowdin population analysis ---
# oxidation-state K +0.001
# magnetic-moments K +0.700

End date and time: Sat Feb  5 23:55:25 2022  (Duration: 0-0:03:04.55)
Done!
