The alkali metal is K
scale=2
magnetization=-0.98
--------------------------------------------------------------------------
The library attempted to open the following supporting CUDA libraries,
but each of them failed.  CUDA-aware support is disabled.
libcuda.so.1: cannot open shared object file: No such file or directory
libcuda.dylib: cannot open shared object file: No such file or directory
/usr/lib64/libcuda.so.1: cannot open shared object file: No such file or directory
/usr/lib64/libcuda.dylib: cannot open shared object file: No such file or directory
If you are not interested in CUDA-aware support, then run with
--mca opal_warn_on_missing_libcuda 0 to suppress this message.  If you are interested
in CUDA-aware support, then try setting LD_LIBRARY_PATH to the location
of libcuda.so.1 to get passed this issue.
--------------------------------------------------------------------------
--------------------------------------------------------------------------
No OpenFabrics connection schemes reported that they were able to be
used on a specific port.  As such, the openib BTL (OpenFabrics
support) will be disabled for this port.

  Local host:           d-3-7-1
  Local device:         mlx5_1
  Local port:           1
  CPCs attempted:       rdmacm, udcm
--------------------------------------------------------------------------

*************** JDFTx 1.6.0 (git hash 42ebbcc2) ***************

Start date and time: Sat Feb  5 23:30:09 2022
Executable jdftx with command-line: -i Alkali.in
Running on hosts (process indices):  d-3-7-1 (0-18)
Divided in process groups (process indices):  0 (0)  1 (1)  2 (2)  3 (3)  4 (4)  5 (5)  6 (6)  7 (7)  8 (8)  9 (9)  10 (10)  11 (11)  12 (12)  13 (13)  14 (14)  15 (15)  16 (16)  17 (17)  18 (18)
Resource initialization completed at t[s]:      0.00
Run totals: 19 processes, 48 threads, 0 GPUs


Input parsed successfully to the following command list (including defaults):

basis kpoint-dependent
coords-type Lattice
core-overlap-check vector
coulomb-interaction Slab 001
davidson-band-ratio 1.1
dump End None
dump-name $INPUT.$VAR
elec-cutoff 20
elec-eigen-algo Davidson
elec-ex-corr gga-PBE
elec-initial-magnetization -0.980000 yes
elec-smearing Fermi 1e-05
electronic-minimize  \
	dirUpdateScheme      FletcherReeves \
	linminMethod         DirUpdateRecommended \
	nIterations          100 \
	history              15 \
	knormThreshold       0 \
	energyDiffThreshold  1e-08 \
	nEnergyDiff          2 \
	alphaTstart          1 \
	alphaTmin            1e-10 \
	updateTestStepSize   yes \
	alphaTreduceFactor   0.1 \
	alphaTincreaseFactor 3 \
	nAlphaAdjustMax      3 \
	wolfeEnergy          0.0001 \
	wolfeGradient        0.9 \
	fdTest               no
electronic-scf  \
	nIterations	10000 \
	energyDiffThreshold	1e-08 \
	residualThreshold	1e-07 \
	mixFraction	0.5 \
	qMetric	0.8 \
	history	10 \
	nEigSteps	2 \
	eigDiffThreshold	1e-08 \
	mixedVariable	Density \
	qKerker	0.8 \
	qKappa	-1 \
	verbose	no \
	mixFractionMag	1.5
exchange-regularization WignerSeitzTruncated
fluid None
fluid-ex-corr (null) lda-PZ
fluid-gummel-loop 10 1.000000e-05
fluid-minimize  \
	dirUpdateScheme      PolakRibiere \
	linminMethod         DirUpdateRecommended \
	nIterations          100 \
	history              15 \
	knormThreshold       0 \
	energyDiffThreshold  0 \
	nEnergyDiff          2 \
	alphaTstart          1 \
	alphaTmin            1e-10 \
	updateTestStepSize   yes \
	alphaTreduceFactor   0.1 \
	alphaTincreaseFactor 3 \
	nAlphaAdjustMax      3 \
	wolfeEnergy          0.0001 \
	wolfeGradient        0.9 \
	fdTest               no
fluid-solvent H2O 55.338 ScalarEOS \
	epsBulk 78.4 \
	pMol 0.92466 \
	epsInf 1.77 \
	Pvap 1.06736e-10 \
	sigmaBulk 4.62e-05 \
	Rvdw 2.61727 \
	Res 1.42 \
	tauNuc 343133 \
	poleEl 15 7 1
forces-output-coords Positions
ion K   0.000000000000000   0.000000000000000   0.000000000000000 0
ion-species SG15/$ID_ONCV_PBE.upf
ion-width 0
ionic-minimize  \
	dirUpdateScheme      L-BFGS \
	linminMethod         DirUpdateRecommended \
	nIterations          0 \
	history              15 \
	knormThreshold       0.0001 \
	energyDiffThreshold  1e-06 \
	nEnergyDiff          2 \
	alphaTstart          1 \
	alphaTmin            1e-10 \
	updateTestStepSize   yes \
	alphaTreduceFactor   0.1 \
	alphaTincreaseFactor 3 \
	nAlphaAdjustMax      3 \
	wolfeEnergy          0.0001 \
	wolfeGradient        0.9 \
	fdTest               no
kpoint   0.000000000000   0.000000000000   0.000000000000  1.00000000000000
kpoint-folding 12 12 1 
latt-move-scale 1 1 1
latt-scale 2 2 1 
lattice  \
	   4.727486978767153   -2.363743489383575    0.000000000000000  \
	  -0.000000000000000    4.094123819672498    0.000000000000000  \
	   0.000000000000000    0.000000000000000   40.000000000000000 
lattice-minimize  \
	dirUpdateScheme      L-BFGS \
	linminMethod         DirUpdateRecommended \
	nIterations          0 \
	history              15 \
	knormThreshold       0 \
	energyDiffThreshold  1e-06 \
	nEnergyDiff          2 \
	alphaTstart          1 \
	alphaTmin            1e-10 \
	updateTestStepSize   yes \
	alphaTreduceFactor   0.1 \
	alphaTincreaseFactor 3 \
	nAlphaAdjustMax      3 \
	wolfeEnergy          0.0001 \
	wolfeGradient        0.9 \
	fdTest               no
lcao-params -1 1e-06 1e-05
pcm-variant GLSSA13
spintype z-spin
subspace-rotation-factor 1 yes
symmetries automatic
symmetry-threshold 0.0001



---------- Setting up symmetries ----------

Found 24 point-group symmetries of the bravais lattice
Found 24 space-group symmetries with basis
Applied RMS atom displacement 0 bohrs to make symmetries exact.

---------- Initializing the Grid ----------
R = 
[      9.45497     -4.72749            0  ]
[            0      8.18825            0  ]
[            0            0           40  ]
unit cell volume = 3096.79
G =
[   0.664538   0.383671         -0  ]
[          0   0.767342         -0  ]
[         -0         -0    0.15708  ]
Minimum fftbox size, Smin = [  40  40  164  ]
Chosen fftbox size, S = [  40  40  168  ]

---------- Exchange Correlation functional ----------
Initalized PBE GGA exchange.
Initalized PBE GGA correlation.

---------- Setting up pseudopotentials ----------
Width of ionic core gaussian charges (only for fluid interactions / plotting) set to 0

Reading pseudopotential file '/home/gridsan/aligho/DFT/build-Nov24/pseudopotentials/SG15/K_ONCV_PBE.upf':
  'K' pseudopotential, 'PBE' functional
  Generated using ONCVPSP code by D. R. Hamann
  Author: Martin Schlipf and Francois Gygi  Date: 150915.
  9 valence electrons, 3 orbitals, 6 projectors, 2222 radial grid points, with lMax = 2
  Transforming local potential to a uniform radial grid of dG=0.02 with 1489 points.
  Transforming nonlocal projectors to a uniform radial grid of dG=0.02 with 432 points.
    3S    l: 0   occupation:  2.0   eigenvalue: -1.298836
    3P    l: 1   occupation:  6.0   eigenvalue: -0.691386
    4S    l: 0   occupation:  1.0   eigenvalue: -0.085223
  Transforming atomic orbitals to a uniform radial grid of dG=0.02 with 432 points.
  Core radius for overlap checks: 2.06 bohrs.
  Reading pulay file /home/gridsan/aligho/DFT/build-Nov24/pseudopotentials/SG15/K_ONCV_PBE.pulay ... using dE_dnG = -1.597219e-05 computed for Ecut = 20.

Initialized 1 species with 1 total atoms.

Folded 1 k-points by 12x12x1 to 144 k-points.

---------- Setting up k-points, bands, fillings ----------
Reduced to 19 k-points under symmetry. 
Computing the number of bands and number of electrons
Calculating initial fillings.
nElectrons:   9.000000   nBands: 6   nStates: 38

----- Setting up reduced wavefunction bases (one per k-point) -----
average nbasis = 13230.521 , ideal nbasis = 13229.709

---------- Setting up coulomb interaction ----------
Initialized slab truncation along lattice direction 001

---------- Setting up 2D ewald sum ----------
Optimum gaussian width for ewald sums = 5.249020 bohr.
Real space sums over 289 unit cells with max indices [  8  8  0  ]
Reciprocal space sums over 81 terms with max indices [  4  4  0  ]

---------- Allocating electronic variables ----------
Initializing wave functions:  linear combination of atomic orbitals
Note: number of bands (6) exceeds available atomic orbitals (5)
K pseudo-atom occupations:   s ( 2 1 )  p ( 6 )
	FillingsUpdate:  mu: -0.087953428  nElectrons: 9.000000  magneticMoment: [ Abs: 0.98000  Tot: -0.98000 ]
LCAOMinimize: Iter:   0  F: -28.3778732294608673  |grad|_K:  1.917e-06  alpha:  1.000e+00
	FillingsUpdate:  mu: -0.087952928  nElectrons: 9.000000  magneticMoment: [ Abs: 0.98000  Tot: -0.98000 ]
LCAOMinimize: Iter:   1  F: -28.3778732319485840  |grad|_K:  1.663e-08  alpha:  9.899e-01  linmin: -1.548e-03  cgtest:  3.858e-02  t[s]:      4.61
LCAOMinimize: Encountered beta<0, resetting CG.
[d-3-7-1:40728] 18 more processes have sent help message help-mpi-common-cuda.txt / dlopen failed
[d-3-7-1:40728] Set MCA parameter "orte_base_help_aggregate" to 0 to see all help / error messages
[d-3-7-1:40728] 18 more processes have sent help message help-mpi-btl-openib-cpc-base.txt / no cpcs for port
LCAOMinimize: 	Predicted alpha/alphaT>3.000000, increasing alphaT to 2.969789e+00.
	FillingsUpdate:  mu: -0.087952936  nElectrons: 9.000000  magneticMoment: [ Abs: 0.98000  Tot: -0.98000 ]
LCAOMinimize: Iter:   2  F: -28.3778732319487723  |grad|_K:  6.065e-10  alpha:  1.030e+00  linmin:  6.110e-02  cgtest: -9.698e-01  t[s]:      6.27
LCAOMinimize: Converged (|Delta F|<1.000000e-06 for 2 iters).


---- Citations for features of the code used in this run ----

   Software package:
      R. Sundararaman, K. Letchworth-Weaver, K.A. Schwarz, D. Gunceler, Y. Ozhabes and T.A. Arias, 'JDFTx: software for joint density-functional theory', SoftwareX 6, 278 (2017)

   gga-PBE exchange-correlation functional:
      J.P. Perdew, K. Burke and M. Ernzerhof, Phys. Rev. Lett. 77, 3865 (1996)

   Pseudopotentials:
      M Schlipf and F Gygi, Comput. Phys. Commun. 196, 36 (2015)

   Truncated Coulomb potentials:
      R. Sundararaman and T.A. Arias, Phys. Rev. B 87, 165122 (2013)

This list may not be complete. Please suggest additional citations or
report any other bugs at https://github.com/shankar1729/jdftx/issues

Initialization completed successfully at t[s]:      6.36


-------- Electronic minimization -----------
Will mix electronic density at each iteration.
	FillingsUpdate:  mu: -0.087952936  nElectrons: 9.000000  magneticMoment: [ Abs: 0.98000  Tot: -0.98000 ]
	FillingsUpdate:  mu: -0.103739179  nElectrons: 9.000000  magneticMoment: [ Abs: 0.98000  Tot: -0.98000 ]
SCF: Cycle:  0   F: -28.389415550451904   dF: -1.154e-02   |Residual|: 1.799e-02   |deigs|: 1.734e-01  t[s]:      8.78
	FillingsUpdate:  mu: -0.105324355  nElectrons: 9.000000  magneticMoment: [ Abs: 0.98000  Tot: -0.98000 ]
SCF: Cycle:  1   F: -28.390494005654734   dF: -1.078e-03   |Residual|: 1.442e-02   |deigs|: 6.918e-03  t[s]:     10.70
	FillingsUpdate:  mu: -0.106062273  nElectrons: 9.000000  magneticMoment: [ Abs: 0.98174  Tot: -0.98000 ]
SCF: Cycle:  2   F: -28.390681725181807   dF: -1.877e-04   |Residual|: 9.318e-03   |deigs|: 4.786e-03  t[s]:     12.64
	FillingsUpdate:  mu: -0.104739301  nElectrons: 9.000000  magneticMoment: [ Abs: 0.98000  Tot: -0.98000 ]
SCF: Cycle:  3   F: -28.390829479567330   dF: -1.478e-04   |Residual|: 5.545e-03   |deigs|: 4.612e-03  t[s]:     14.64
	FillingsUpdate:  mu: -0.104406644  nElectrons: 9.000000  magneticMoment: [ Abs: 0.98001  Tot: -0.98000 ]
SCF: Cycle:  4   F: -28.390905380745249   dF: -7.590e-05   |Residual|: 2.681e-03   |deigs|: 2.459e-03  t[s]:     16.55
	FillingsUpdate:  mu: -0.103343063  nElectrons: 9.000000  magneticMoment: [ Abs: 0.98010  Tot: -0.98000 ]
SCF: Cycle:  5   F: -28.390944782653655   dF: -3.940e-05   |Residual|: 2.171e-03   |deigs|: 1.805e-03  t[s]:     18.51
	FillingsUpdate:  mu: -0.100708424  nElectrons: 9.000000  magneticMoment: [ Abs: 0.98287  Tot: -0.98000 ]
SCF: Cycle:  6   F: -28.390981219443816   dF: -3.644e-05   |Residual|: 1.591e-03   |deigs|: 3.274e-03  t[s]:     20.53
	FillingsUpdate:  mu: -0.099526262  nElectrons: 9.000000  magneticMoment: [ Abs: 0.98334  Tot: -0.98000 ]
SCF: Cycle:  7   F: -28.391010365847862   dF: -2.915e-05   |Residual|: 1.317e-03   |deigs|: 2.769e-03  t[s]:     22.65
	FillingsUpdate:  mu: -0.098529962  nElectrons: 9.000000  magneticMoment: [ Abs: 0.98167  Tot: -0.98000 ]
SCF: Cycle:  8   F: -28.391035155508760   dF: -2.479e-05   |Residual|: 1.007e-03   |deigs|: 1.751e-03  t[s]:     24.71
	FillingsUpdate:  mu: -0.097791945  nElectrons: 9.000000  magneticMoment: [ Abs: 0.98011  Tot: -0.98000 ]
SCF: Cycle:  9   F: -28.391048012831170   dF: -1.286e-05   |Residual|: 7.618e-04   |deigs|: 7.843e-04  t[s]:     26.75
	FillingsUpdate:  mu: -0.097008043  nElectrons: 9.000000  magneticMoment: [ Abs: 0.98116  Tot: -0.98000 ]
SCF: Cycle: 10   F: -28.391056599758119   dF: -8.587e-06   |Residual|: 6.881e-04   |deigs|: 9.152e-04  t[s]:     28.80
	FillingsUpdate:  mu: -0.096291721  nElectrons: 9.000000  magneticMoment: [ Abs: 0.98303  Tot: -0.98000 ]
SCF: Cycle: 11   F: -28.391059993295954   dF: -3.394e-06   |Residual|: 5.668e-04   |deigs|: 8.505e-04  t[s]:     30.86
	FillingsUpdate:  mu: -0.096264776  nElectrons: 9.000000  magneticMoment: [ Abs: 0.98338  Tot: -0.98000 ]
SCF: Cycle: 12   F: -28.391061861664674   dF: -1.868e-06   |Residual|: 4.886e-04   |deigs|: 7.580e-04  t[s]:     32.93
	FillingsUpdate:  mu: -0.095631953  nElectrons: 9.000000  magneticMoment: [ Abs: 0.98407  Tot: -0.98000 ]
SCF: Cycle: 13   F: -28.391064953924378   dF: -3.092e-06   |Residual|: 4.337e-04   |deigs|: 1.244e-03  t[s]:     35.04
	FillingsUpdate:  mu: -0.093870962  nElectrons: 9.000000  magneticMoment: [ Abs: 0.98345  Tot: -0.98000 ]
SCF: Cycle: 14   F: -28.391066874353278   dF: -1.920e-06   |Residual|: 4.096e-04   |deigs|: 1.841e-03  t[s]:     37.18
	FillingsUpdate:  mu: -0.092635090  nElectrons: 9.000000  magneticMoment: [ Abs: 0.98232  Tot: -0.98000 ]
SCF: Cycle: 15   F: -28.391069206862021   dF: -2.333e-06   |Residual|: 3.697e-04   |deigs|: 1.065e-03  t[s]:     39.31
	FillingsUpdate:  mu: -0.091159599  nElectrons: 9.000000  magneticMoment: [ Abs: 0.98148  Tot: -0.98000 ]
SCF: Cycle: 16   F: -28.391072565298899   dF: -3.358e-06   |Residual|: 2.806e-04   |deigs|: 1.355e-03  t[s]:     41.39
	FillingsUpdate:  mu: -0.090147968  nElectrons: 9.000000  magneticMoment: [ Abs: 0.98112  Tot: -0.98000 ]
SCF: Cycle: 17   F: -28.391081373105418   dF: -8.808e-06   |Residual|: 4.479e-04   |deigs|: 1.118e-03  t[s]:     43.51
	FillingsUpdate:  mu: -0.090325714  nElectrons: 9.000000  magneticMoment: [ Abs: 0.98099  Tot: -0.98000 ]
SCF: Cycle: 18   F: -28.391081727166586   dF: -3.541e-07   |Residual|: 3.873e-04   |deigs|: 3.069e-04  t[s]:     45.43
	FillingsUpdate:  mu: -0.091227510  nElectrons: 9.000000  magneticMoment: [ Abs: 0.98074  Tot: -0.98000 ]
SCF: Cycle: 19   F: -28.391082585987615   dF: -8.588e-07   |Residual|: 1.733e-04   |deigs|: 8.863e-04  t[s]:     47.56
	FillingsUpdate:  mu: -0.091458050  nElectrons: 9.000000  magneticMoment: [ Abs: 0.98090  Tot: -0.98000 ]
SCF: Cycle: 20   F: -28.391083143984762   dF: -5.580e-07   |Residual|: 1.256e-04   |deigs|: 3.337e-04  t[s]:     49.64
	FillingsUpdate:  mu: -0.091392777  nElectrons: 9.000000  magneticMoment: [ Abs: 0.98109  Tot: -0.98000 ]
SCF: Cycle: 21   F: -28.391083408502343   dF: -2.645e-07   |Residual|: 9.087e-05   |deigs|: 2.843e-04  t[s]:     51.78
	FillingsUpdate:  mu: -0.091346552  nElectrons: 9.000000  magneticMoment: [ Abs: 0.98098  Tot: -0.98000 ]
SCF: Cycle: 22   F: -28.391083609446287   dF: -2.009e-07   |Residual|: 6.228e-05   |deigs|: 1.098e-04  t[s]:     53.89
	FillingsUpdate:  mu: -0.091304821  nElectrons: 9.000000  magneticMoment: [ Abs: 0.98081  Tot: -0.98000 ]
SCF: Cycle: 23   F: -28.391083729420441   dF: -1.200e-07   |Residual|: 3.306e-05   |deigs|: 9.445e-05  t[s]:     55.98
	FillingsUpdate:  mu: -0.091308675  nElectrons: 9.000000  magneticMoment: [ Abs: 0.98066  Tot: -0.98000 ]
SCF: Cycle: 24   F: -28.391083891758232   dF: -1.623e-07   |Residual|: 2.907e-05   |deigs|: 8.849e-05  t[s]:     58.04
	FillingsUpdate:  mu: -0.091279855  nElectrons: 9.000000  magneticMoment: [ Abs: 0.98045  Tot: -0.98000 ]
SCF: Cycle: 25   F: -28.391083924815764   dF: -3.306e-08   |Residual|: 2.421e-05   |deigs|: 1.013e-04  t[s]:     60.17
	FillingsUpdate:  mu: -0.091269636  nElectrons: 9.000000  magneticMoment: [ Abs: 0.98029  Tot: -0.98000 ]
SCF: Cycle: 26   F: -28.391083948165189   dF: -2.335e-08   |Residual|: 2.058e-05   |deigs|: 2.496e-04  t[s]:     62.28
	FillingsUpdate:  mu: -0.091265413  nElectrons: 9.000000  magneticMoment: [ Abs: 0.98012  Tot: -0.98000 ]
SCF: Cycle: 27   F: -28.391083962398195   dF: -1.423e-08   |Residual|: 1.216e-05   |deigs|: 2.086e-04  t[s]:     64.41
	FillingsUpdate:  mu: -0.091249235  nElectrons: 9.000000  magneticMoment: [ Abs: 0.98008  Tot: -0.98000 ]
SCF: Cycle: 28   F: -28.391083973001916   dF: -1.060e-08   |Residual|: 6.350e-06   |deigs|: 7.941e-05  t[s]:     66.49
	FillingsUpdate:  mu: -0.091255294  nElectrons: 9.000000  magneticMoment: [ Abs: 0.98008  Tot: -0.98000 ]
SCF: Cycle: 29   F: -28.391083976313478   dF: -3.312e-09   |Residual|: 5.264e-06   |deigs|: 5.973e-05  t[s]:     68.62
	FillingsUpdate:  mu: -0.091262173  nElectrons: 9.000000  magneticMoment: [ Abs: 0.98008  Tot: -0.98000 ]
SCF: Cycle: 30   F: -28.391083981544323   dF: -5.231e-09   |Residual|: 3.953e-06   |deigs|: 4.330e-05  t[s]:     70.72
SCF: Converged (|Delta E|<1.000000e-08 for 2 iters).


# Ionic positions in lattice coordinates:
ion K   0.000000000000000   0.000000000000000   0.000000000000000 0

# Forces in Lattice coordinates:
force K   0.000000000000000  -0.000000000000000   0.000000000000000 0

# Energy components:
   Eewald =      -18.0480261003326561
       EH =        4.9051091357898731
     Eloc =      -18.0976978684316734
      Enl =       -2.7820883384032347
   Epulay =        0.0000000041876954
      Exc =       -4.2721456923961343
       KE =        9.9037652715959155
-------------------------------------
     Etot =      -28.3910835879902166
       TS =        0.0000003935541075
-------------------------------------
        F =      -28.3910839815443232

IonicMinimize: Iter:   0  F: -28.391083981544323  |grad|_K:  0.000e+00  t[s]:     70.85
IonicMinimize: Converged (|grad|_K<1.000000e-04).

#--- Lowdin population analysis ---
# oxidation-state K +0.224
# magnetic-moments K -0.757

End date and time: Sat Feb  5 23:31:19 2022  (Duration: 0-0:01:10.87)
Done!
scale=3
magnetization=-0.98
--------------------------------------------------------------------------
The library attempted to open the following supporting CUDA libraries,
but each of them failed.  CUDA-aware support is disabled.
libcuda.so.1: cannot open shared object file: No such file or directory
libcuda.dylib: cannot open shared object file: No such file or directory
/usr/lib64/libcuda.so.1: cannot open shared object file: No such file or directory
/usr/lib64/libcuda.dylib: cannot open shared object file: No such file or directory
If you are not interested in CUDA-aware support, then run with
--mca opal_warn_on_missing_libcuda 0 to suppress this message.  If you are interested
in CUDA-aware support, then try setting LD_LIBRARY_PATH to the location
of libcuda.so.1 to get passed this issue.
--------------------------------------------------------------------------
--------------------------------------------------------------------------
No OpenFabrics connection schemes reported that they were able to be
used on a specific port.  As such, the openib BTL (OpenFabrics
support) will be disabled for this port.

  Local host:           d-3-7-1
  Local device:         mlx5_1
  Local port:           1
  CPCs attempted:       rdmacm, udcm
--------------------------------------------------------------------------

*************** JDFTx 1.6.0 (git hash 42ebbcc2) ***************

Start date and time: Sat Feb  5 23:31:20 2022
Executable jdftx with command-line: -i Alkali.in
Running on hosts (process indices):  d-3-7-1 (0-18)
Divided in process groups (process indices):  0 (0)  1 (1)  2 (2)  3 (3)  4 (4)  5 (5)  6 (6)  7 (7)  8 (8)  9 (9)  10 (10)  11 (11)  12 (12)  13 (13)  14 (14)  15 (15)  16 (16)  17 (17)  18 (18)
Resource initialization completed at t[s]:      0.00
Run totals: 19 processes, 48 threads, 0 GPUs


Input parsed successfully to the following command list (including defaults):

basis kpoint-dependent
coords-type Lattice
core-overlap-check vector
coulomb-interaction Slab 001
davidson-band-ratio 1.1
dump End None
dump-name $INPUT.$VAR
elec-cutoff 20
elec-eigen-algo Davidson
elec-ex-corr gga-PBE
elec-initial-magnetization -0.980000 yes
elec-smearing Fermi 1e-05
electronic-minimize  \
	dirUpdateScheme      FletcherReeves \
	linminMethod         DirUpdateRecommended \
	nIterations          100 \
	history              15 \
	knormThreshold       0 \
	energyDiffThreshold  1e-08 \
	nEnergyDiff          2 \
	alphaTstart          1 \
	alphaTmin            1e-10 \
	updateTestStepSize   yes \
	alphaTreduceFactor   0.1 \
	alphaTincreaseFactor 3 \
	nAlphaAdjustMax      3 \
	wolfeEnergy          0.0001 \
	wolfeGradient        0.9 \
	fdTest               no
electronic-scf  \
	nIterations	10000 \
	energyDiffThreshold	1e-08 \
	residualThreshold	1e-07 \
	mixFraction	0.5 \
	qMetric	0.8 \
	history	10 \
	nEigSteps	2 \
	eigDiffThreshold	1e-08 \
	mixedVariable	Density \
	qKerker	0.8 \
	qKappa	-1 \
	verbose	no \
	mixFractionMag	1.5
exchange-regularization WignerSeitzTruncated
fluid None
fluid-ex-corr (null) lda-PZ
fluid-gummel-loop 10 1.000000e-05
fluid-minimize  \
	dirUpdateScheme      PolakRibiere \
	linminMethod         DirUpdateRecommended \
	nIterations          100 \
	history              15 \
	knormThreshold       0 \
	energyDiffThreshold  0 \
	nEnergyDiff          2 \
	alphaTstart          1 \
	alphaTmin            1e-10 \
	updateTestStepSize   yes \
	alphaTreduceFactor   0.1 \
	alphaTincreaseFactor 3 \
	nAlphaAdjustMax      3 \
	wolfeEnergy          0.0001 \
	wolfeGradient        0.9 \
	fdTest               no
fluid-solvent H2O 55.338 ScalarEOS \
	epsBulk 78.4 \
	pMol 0.92466 \
	epsInf 1.77 \
	Pvap 1.06736e-10 \
	sigmaBulk 4.62e-05 \
	Rvdw 2.61727 \
	Res 1.42 \
	tauNuc 343133 \
	poleEl 15 7 1
forces-output-coords Positions
ion K   0.000000000000000   0.000000000000000   0.000000000000000 0
ion-species SG15/$ID_ONCV_PBE.upf
ion-width 0
ionic-minimize  \
	dirUpdateScheme      L-BFGS \
	linminMethod         DirUpdateRecommended \
	nIterations          0 \
	history              15 \
	knormThreshold       0.0001 \
	energyDiffThreshold  1e-06 \
	nEnergyDiff          2 \
	alphaTstart          1 \
	alphaTmin            1e-10 \
	updateTestStepSize   yes \
	alphaTreduceFactor   0.1 \
	alphaTincreaseFactor 3 \
	nAlphaAdjustMax      3 \
	wolfeEnergy          0.0001 \
	wolfeGradient        0.9 \
	fdTest               no
kpoint   0.000000000000   0.000000000000   0.000000000000  1.00000000000000
kpoint-folding 12 12 1 
latt-move-scale 1 1 1
latt-scale 3 3 1 
lattice  \
	   4.727486978767153   -2.363743489383575    0.000000000000000  \
	  -0.000000000000000    4.094123819672498    0.000000000000000  \
	   0.000000000000000    0.000000000000000   40.000000000000000 
lattice-minimize  \
	dirUpdateScheme      L-BFGS \
	linminMethod         DirUpdateRecommended \
	nIterations          0 \
	history              15 \
	knormThreshold       0 \
	energyDiffThreshold  1e-06 \
	nEnergyDiff          2 \
	alphaTstart          1 \
	alphaTmin            1e-10 \
	updateTestStepSize   yes \
	alphaTreduceFactor   0.1 \
	alphaTincreaseFactor 3 \
	nAlphaAdjustMax      3 \
	wolfeEnergy          0.0001 \
	wolfeGradient        0.9 \
	fdTest               no
lcao-params -1 1e-06 1e-05
pcm-variant GLSSA13
spintype z-spin
subspace-rotation-factor 1 yes
symmetries automatic
symmetry-threshold 0.0001



---------- Setting up symmetries ----------

Found 24 point-group symmetries of the bravais lattice
Found 24 space-group symmetries with basis
Applied RMS atom displacement 0 bohrs to make symmetries exact.

---------- Initializing the Grid ----------
R = 
[      14.1825     -7.09123            0  ]
[            0      12.2824            0  ]
[            0            0           40  ]
unit cell volume = 6967.77
G =
[   0.443025   0.255781         -0  ]
[          0   0.511561         -0  ]
[         -0         -0    0.15708  ]
Minimum fftbox size, Smin = [  60  60  164  ]
Chosen fftbox size, S = [  60  60  168  ]

---------- Exchange Correlation functional ----------
Initalized PBE GGA exchange.
Initalized PBE GGA correlation.

---------- Setting up pseudopotentials ----------
Width of ionic core gaussian charges (only for fluid interactions / plotting) set to 0

Reading pseudopotential file '/home/gridsan/aligho/DFT/build-Nov24/pseudopotentials/SG15/K_ONCV_PBE.upf':
  'K' pseudopotential, 'PBE' functional
  Generated using ONCVPSP code by D. R. Hamann
  Author: Martin Schlipf and Francois Gygi  Date: 150915.
  9 valence electrons, 3 orbitals, 6 projectors, 2222 radial grid points, with lMax = 2
  Transforming local potential to a uniform radial grid of dG=0.02 with 1489 points.
  Transforming nonlocal projectors to a uniform radial grid of dG=0.02 with 432 points.
    3S    l: 0   occupation:  2.0   eigenvalue: -1.298836
    3P    l: 1   occupation:  6.0   eigenvalue: -0.691386
    4S    l: 0   occupation:  1.0   eigenvalue: -0.085223
  Transforming atomic orbitals to a uniform radial grid of dG=0.02 with 432 points.
  Core radius for overlap checks: 2.06 bohrs.
  Reading pulay file /home/gridsan/aligho/DFT/build-Nov24/pseudopotentials/SG15/K_ONCV_PBE.pulay ... using dE_dnG = -1.597219e-05 computed for Ecut = 20.

Initialized 1 species with 1 total atoms.

Folded 1 k-points by 12x12x1 to 144 k-points.

---------- Setting up k-points, bands, fillings ----------
Reduced to 19 k-points under symmetry. 
Computing the number of bands and number of electrons
Calculating initial fillings.
nElectrons:   9.000000   nBands: 6   nStates: 38

----- Setting up reduced wavefunction bases (one per k-point) -----
average nbasis = 29766.104 , ideal nbasis = 29766.845

---------- Setting up coulomb interaction ----------
Initialized slab truncation along lattice direction 001

---------- Setting up 2D ewald sum ----------
Optimum gaussian width for ewald sums = 7.873530 bohr.
Real space sums over 289 unit cells with max indices [  8  8  0  ]
Reciprocal space sums over 81 terms with max indices [  4  4  0  ]

---------- Allocating electronic variables ----------
Initializing wave functions:  linear combination of atomic orbitals
Note: number of bands (6) exceeds available atomic orbitals (5)
K pseudo-atom occupations:   s ( 2 1 )  p ( 6 )
[d-3-7-1:72115] 18 more processes have sent help message help-mpi-common-cuda.txt / dlopen failed
[d-3-7-1:72115] Set MCA parameter "orte_base_help_aggregate" to 0 to see all help / error messages
[d-3-7-1:72115] 18 more processes have sent help message help-mpi-btl-openib-cpc-base.txt / no cpcs for port
	FillingsUpdate:  mu: -0.083426775  nElectrons: 9.000000  magneticMoment: [ Abs: 0.98000  Tot: -0.98000 ]
LCAOMinimize: Iter:   0  F: -28.3816378296857010  |grad|_K:  1.499e-06  alpha:  1.000e+00
	FillingsUpdate:  mu: -0.083426871  nElectrons: 9.000000  magneticMoment: [ Abs: 0.98000  Tot: -0.98000 ]
LCAOMinimize: Iter:   1  F: -28.3816378312235784  |grad|_K:  4.580e-09  alpha:  1.000e+00  linmin:  9.036e-03  cgtest: -1.076e-01  t[s]:      8.95
LCAOMinimize: 	Step increased F by 1.989520e-13, reducing alpha to 4.992985e-02.
LCAOMinimize: 	Step increased F by 5.329071e-14, reducing alpha to 4.992985e-03.
LCAOMinimize: 	Step increased F by 1.136868e-13, reducing alpha to 4.992985e-04.
LCAOMinimize: 	Step failed to reduce F after 3 attempts. Quitting step.
LCAOMinimize: 	Undoing step.
LCAOMinimize: 	Step failed: resetting search direction.
	FillingsUpdate:  mu: -0.083426871  nElectrons: 9.000000  magneticMoment: [ Abs: 0.98000  Tot: -0.98000 ]
LCAOMinimize: Iter:   2  F: -28.3816378312234932  |grad|_K:  4.560e-09  alpha:  4.993e-04
LCAOMinimize: 	Wrong curvature in test step, increasing alphaT to 3.001311e+00.
	FillingsUpdate:  mu: -0.083426872  nElectrons: 9.000000  magneticMoment: [ Abs: 0.98000  Tot: -0.98000 ]
LCAOMinimize: Iter:   3  F: -28.3816378312236850  |grad|_K:  4.590e-11  alpha: -8.710e-02  linmin:  5.851e-02  cgtest: -9.252e-01  t[s]:     17.99
	FillingsUpdate:  mu: -0.083426872  nElectrons: 9.000000  magneticMoment: [ Abs: 0.98000  Tot: -0.98000 ]
LCAOMinimize: Iter:   4  F: -28.3816378312236850  |grad|_K:  4.590e-11  alpha:  1.367e-06  linmin: -2.506e-02  cgtest:  1.000e+00  t[s]:     20.41
LCAOMinimize: Encountered beta<0, resetting CG.
LCAOMinimize: 	Step increased F by 3.552714e-14, reducing alpha to 1.894020e-17.
LCAOMinimize: 	Step increased F by 2.842171e-14, reducing alpha to 1.894020e-18.
LCAOMinimize: 	Step increased F by 3.552714e-15, reducing alpha to 1.894020e-19.
LCAOMinimize: 	Step failed to reduce F after 3 attempts. Quitting step.
LCAOMinimize: 	Undoing step.
LCAOMinimize: 	Step failed along negative gradient direction.
LCAOMinimize: Probably at roundoff error limit. (Stopping)


---- Citations for features of the code used in this run ----

   Software package:
      R. Sundararaman, K. Letchworth-Weaver, K.A. Schwarz, D. Gunceler, Y. Ozhabes and T.A. Arias, 'JDFTx: software for joint density-functional theory', SoftwareX 6, 278 (2017)

   gga-PBE exchange-correlation functional:
      J.P. Perdew, K. Burke and M. Ernzerhof, Phys. Rev. Lett. 77, 3865 (1996)

   Pseudopotentials:
      M Schlipf and F Gygi, Comput. Phys. Commun. 196, 36 (2015)

   Truncated Coulomb potentials:
      R. Sundararaman and T.A. Arias, Phys. Rev. B 87, 165122 (2013)

This list may not be complete. Please suggest additional citations or
report any other bugs at https://github.com/shankar1729/jdftx/issues

Initialization completed successfully at t[s]:     27.23


-------- Electronic minimization -----------
Will mix electronic density at each iteration.
	FillingsUpdate:  mu: -0.083426872  nElectrons: 9.000000  magneticMoment: [ Abs: 0.98000  Tot: -0.98000 ]
	FillingsUpdate:  mu: -0.083947588  nElectrons: 9.000000  magneticMoment: [ Abs: 0.98000  Tot: -0.98000 ]
SCF: Cycle:  0   F: -28.382489759186235   dF: -8.519e-04   |Residual|: 2.870e-03   |deigs|: 1.719e-01  t[s]:     32.11
	FillingsUpdate:  mu: -0.082786723  nElectrons: 9.000000  magneticMoment: [ Abs: 0.98155  Tot: -0.98000 ]
SCF: Cycle:  1   F: -28.382508024415724   dF: -1.827e-05   |Residual|: 1.448e-03   |deigs|: 5.059e-03  t[s]:     35.90
	FillingsUpdate:  mu: -0.082966091  nElectrons: 9.000000  magneticMoment: [ Abs: 0.98213  Tot: -0.98000 ]
SCF: Cycle:  2   F: -28.382521317052785   dF: -1.329e-05   |Residual|: 1.187e-03   |deigs|: 4.125e-03  t[s]:     39.73
	FillingsUpdate:  mu: -0.083134977  nElectrons: 9.000000  magneticMoment: [ Abs: 0.98265  Tot: -0.98000 ]
SCF: Cycle:  3   F: -28.382533271900989   dF: -1.195e-05   |Residual|: 9.224e-04   |deigs|: 1.547e-03  t[s]:     43.60
	FillingsUpdate:  mu: -0.083611418  nElectrons: 9.000000  magneticMoment: [ Abs: 0.98228  Tot: -0.98000 ]
SCF: Cycle:  4   F: -28.382543598312900   dF: -1.033e-05   |Residual|: 6.447e-04   |deigs|: 1.280e-03  t[s]:     47.53
	FillingsUpdate:  mu: -0.083649645  nElectrons: 9.000000  magneticMoment: [ Abs: 0.98241  Tot: -0.98000 ]
SCF: Cycle:  5   F: -28.382549148408437   dF: -5.550e-06   |Residual|: 3.508e-04   |deigs|: 7.215e-04  t[s]:     51.53
	FillingsUpdate:  mu: -0.083875557  nElectrons: 9.000000  magneticMoment: [ Abs: 0.98220  Tot: -0.98000 ]
SCF: Cycle:  6   F: -28.382553187585799   dF: -4.039e-06   |Residual|: 2.481e-04   |deigs|: 1.817e-03  t[s]:     55.63
	FillingsUpdate:  mu: -0.083822489  nElectrons: 9.000000  magneticMoment: [ Abs: 0.98242  Tot: -0.98000 ]
SCF: Cycle:  7   F: -28.382555206938321   dF: -2.019e-06   |Residual|: 2.070e-04   |deigs|: 3.609e-04  t[s]:     59.82
	FillingsUpdate:  mu: -0.083500859  nElectrons: 9.000000  magneticMoment: [ Abs: 0.98242  Tot: -0.98000 ]
SCF: Cycle:  8   F: -28.382556293695096   dF: -1.087e-06   |Residual|: 1.562e-04   |deigs|: 5.551e-04  t[s]:     64.03
	FillingsUpdate:  mu: -0.083372185  nElectrons: 9.000000  magneticMoment: [ Abs: 0.98257  Tot: -0.98000 ]
SCF: Cycle:  9   F: -28.382556945680946   dF: -6.520e-07   |Residual|: 1.466e-04   |deigs|: 2.272e-04  t[s]:     68.33
	FillingsUpdate:  mu: -0.083325953  nElectrons: 9.000000  magneticMoment: [ Abs: 0.98242  Tot: -0.98000 ]
SCF: Cycle: 10   F: -28.382557267007623   dF: -3.213e-07   |Residual|: 1.247e-04   |deigs|: 2.462e-04  t[s]:     72.78
	FillingsUpdate:  mu: -0.083474307  nElectrons: 9.000000  magneticMoment: [ Abs: 0.98307  Tot: -0.98000 ]
SCF: Cycle: 11   F: -28.382556508192330   dF: +7.588e-07   |Residual|: 1.012e-04   |deigs|: 2.379e-04  t[s]:     77.12
	FillingsUpdate:  mu: -0.083603680  nElectrons: 9.000000  magneticMoment: [ Abs: 0.98277  Tot: -0.98000 ]
SCF: Cycle: 12   F: -28.382557658672496   dF: -1.150e-06   |Residual|: 7.576e-05   |deigs|: 2.612e-04  t[s]:     81.56
	FillingsUpdate:  mu: -0.083667683  nElectrons: 9.000000  magneticMoment: [ Abs: 0.98302  Tot: -0.98000 ]
SCF: Cycle: 13   F: -28.382558589578082   dF: -9.309e-07   |Residual|: 7.816e-05   |deigs|: 2.454e-04  t[s]:     85.88
	FillingsUpdate:  mu: -0.083573968  nElectrons: 9.000000  magneticMoment: [ Abs: 0.98313  Tot: -0.98000 ]
SCF: Cycle: 14   F: -28.382558680125754   dF: -9.055e-08   |Residual|: 8.184e-05   |deigs|: 3.043e-04  t[s]:     90.15
	FillingsUpdate:  mu: -0.083304246  nElectrons: 9.000000  magneticMoment: [ Abs: 0.98293  Tot: -0.98000 ]
SCF: Cycle: 15   F: -28.382558672524400   dF: +7.601e-09   |Residual|: 6.670e-05   |deigs|: 2.930e-04  t[s]:     94.54
	FillingsUpdate:  mu: -0.083138840  nElectrons: 9.000000  magneticMoment: [ Abs: 0.98278  Tot: -0.98000 ]
SCF: Cycle: 16   F: -28.382558772533329   dF: -1.000e-07   |Residual|: 5.488e-05   |deigs|: 1.808e-04  t[s]:     98.90
	FillingsUpdate:  mu: -0.083036655  nElectrons: 9.000000  magneticMoment: [ Abs: 0.98251  Tot: -0.98000 ]
SCF: Cycle: 17   F: -28.382559016639256   dF: -2.441e-07   |Residual|: 4.723e-05   |deigs|: 1.495e-04  t[s]:    103.21
	FillingsUpdate:  mu: -0.083052731  nElectrons: 9.000000  magneticMoment: [ Abs: 0.98231  Tot: -0.98000 ]
SCF: Cycle: 18   F: -28.382559170253153   dF: -1.536e-07   |Residual|: 3.559e-05   |deigs|: 7.729e-05  t[s]:    107.57
	FillingsUpdate:  mu: -0.083096494  nElectrons: 9.000000  magneticMoment: [ Abs: 0.98237  Tot: -0.98000 ]
SCF: Cycle: 19   F: -28.382559330517886   dF: -1.603e-07   |Residual|: 2.593e-05   |deigs|: 6.556e-05  t[s]:    111.86
	FillingsUpdate:  mu: -0.083140015  nElectrons: 9.000000  magneticMoment: [ Abs: 0.98231  Tot: -0.98000 ]
SCF: Cycle: 20   F: -28.382559333465242   dF: -2.947e-09   |Residual|: 1.655e-05   |deigs|: 4.973e-05  t[s]:    116.18
	FillingsUpdate:  mu: -0.083150940  nElectrons: 9.000000  magneticMoment: [ Abs: 0.98232  Tot: -0.98000 ]
SCF: Cycle: 21   F: -28.382559385591613   dF: -5.213e-08   |Residual|: 1.146e-05   |deigs|: 2.623e-05  t[s]:    120.58
	FillingsUpdate:  mu: -0.083161110  nElectrons: 9.000000  magneticMoment: [ Abs: 0.98233  Tot: -0.98000 ]
SCF: Cycle: 22   F: -28.382559397303368   dF: -1.171e-08   |Residual|: 9.576e-06   |deigs|: 1.027e-05  t[s]:    124.94
	FillingsUpdate:  mu: -0.083160299  nElectrons: 9.000000  magneticMoment: [ Abs: 0.98234  Tot: -0.98000 ]
SCF: Cycle: 23   F: -28.382559412610053   dF: -1.531e-08   |Residual|: 5.504e-06   |deigs|: 1.211e-05  t[s]:    129.45
	FillingsUpdate:  mu: -0.083160229  nElectrons: 9.000000  magneticMoment: [ Abs: 0.98234  Tot: -0.98000 ]
SCF: Cycle: 24   F: -28.382559421524050   dF: -8.914e-09   |Residual|: 4.090e-06   |deigs|: 1.007e-05  t[s]:    133.87
	FillingsUpdate:  mu: -0.083161854  nElectrons: 9.000000  magneticMoment: [ Abs: 0.98233  Tot: -0.98000 ]
SCF: Cycle: 25   F: -28.382559423302567   dF: -1.779e-09   |Residual|: 3.274e-06   |deigs|: 8.103e-06  t[s]:    138.21
SCF: Converged (|Delta E|<1.000000e-08 for 2 iters).


# Ionic positions in lattice coordinates:
ion K   0.000000000000000   0.000000000000000   0.000000000000000 0

# Forces in Lattice coordinates:
force K  -0.000000000000000   0.000000000000000   0.000000000000000 0

# Energy components:
   Eewald =      -12.0320174002217755
       EH =       10.7800204329612956
     Eloc =      -29.9822497151842171
      Enl =       -2.7683632688616804
   Epulay =       -0.0000000016982517
      Exc =       -4.2469682390890808
       KE =        9.8670189603862486
-------------------------------------
     Etot =      -28.3825592317074680
       TS =        0.0000001915950980
-------------------------------------
        F =      -28.3825594233025669

IonicMinimize: Iter:   0  F: -28.382559423302567  |grad|_K:  0.000e+00  t[s]:    138.48
IonicMinimize: Converged (|grad|_K<1.000000e-04).

#--- Lowdin population analysis ---
# oxidation-state K +0.016
# magnetic-moments K -0.964

End date and time: Sat Feb  5 23:33:39 2022  (Duration: 0-0:02:18.52)
Done!
scale=4
magnetization=-0.98
--------------------------------------------------------------------------
The library attempted to open the following supporting CUDA libraries,
but each of them failed.  CUDA-aware support is disabled.
libcuda.so.1: cannot open shared object file: No such file or directory
libcuda.dylib: cannot open shared object file: No such file or directory
/usr/lib64/libcuda.so.1: cannot open shared object file: No such file or directory
/usr/lib64/libcuda.dylib: cannot open shared object file: No such file or directory
If you are not interested in CUDA-aware support, then run with
--mca opal_warn_on_missing_libcuda 0 to suppress this message.  If you are interested
in CUDA-aware support, then try setting LD_LIBRARY_PATH to the location
of libcuda.so.1 to get passed this issue.
--------------------------------------------------------------------------
--------------------------------------------------------------------------
No OpenFabrics connection schemes reported that they were able to be
used on a specific port.  As such, the openib BTL (OpenFabrics
support) will be disabled for this port.

  Local host:           d-3-7-1
  Local device:         mlx5_1
  Local port:           1
  CPCs attempted:       rdmacm, udcm
--------------------------------------------------------------------------

*************** JDFTx 1.6.0 (git hash 42ebbcc2) ***************

Start date and time: Sat Feb  5 23:33:40 2022
Executable jdftx with command-line: -i Alkali.in
Running on hosts (process indices):  d-3-7-1 (0-18)
Divided in process groups (process indices):  0 (0)  1 (1)  2 (2)  3 (3)  4 (4)  5 (5)  6 (6)  7 (7)  8 (8)  9 (9)  10 (10)  11 (11)  12 (12)  13 (13)  14 (14)  15 (15)  16 (16)  17 (17)  18 (18)
Resource initialization completed at t[s]:      0.00
Run totals: 19 processes, 48 threads, 0 GPUs


Input parsed successfully to the following command list (including defaults):

basis kpoint-dependent
coords-type Lattice
core-overlap-check vector
coulomb-interaction Slab 001
davidson-band-ratio 1.1
dump End None
dump-name $INPUT.$VAR
elec-cutoff 20
elec-eigen-algo Davidson
elec-ex-corr gga-PBE
elec-initial-magnetization -0.980000 yes
elec-smearing Fermi 1e-05
electronic-minimize  \
	dirUpdateScheme      FletcherReeves \
	linminMethod         DirUpdateRecommended \
	nIterations          100 \
	history              15 \
	knormThreshold       0 \
	energyDiffThreshold  1e-08 \
	nEnergyDiff          2 \
	alphaTstart          1 \
	alphaTmin            1e-10 \
	updateTestStepSize   yes \
	alphaTreduceFactor   0.1 \
	alphaTincreaseFactor 3 \
	nAlphaAdjustMax      3 \
	wolfeEnergy          0.0001 \
	wolfeGradient        0.9 \
	fdTest               no
electronic-scf  \
	nIterations	10000 \
	energyDiffThreshold	1e-08 \
	residualThreshold	1e-07 \
	mixFraction	0.5 \
	qMetric	0.8 \
	history	10 \
	nEigSteps	2 \
	eigDiffThreshold	1e-08 \
	mixedVariable	Density \
	qKerker	0.8 \
	qKappa	-1 \
	verbose	no \
	mixFractionMag	1.5
exchange-regularization WignerSeitzTruncated
fluid None
fluid-ex-corr (null) lda-PZ
fluid-gummel-loop 10 1.000000e-05
fluid-minimize  \
	dirUpdateScheme      PolakRibiere \
	linminMethod         DirUpdateRecommended \
	nIterations          100 \
	history              15 \
	knormThreshold       0 \
	energyDiffThreshold  0 \
	nEnergyDiff          2 \
	alphaTstart          1 \
	alphaTmin            1e-10 \
	updateTestStepSize   yes \
	alphaTreduceFactor   0.1 \
	alphaTincreaseFactor 3 \
	nAlphaAdjustMax      3 \
	wolfeEnergy          0.0001 \
	wolfeGradient        0.9 \
	fdTest               no
fluid-solvent H2O 55.338 ScalarEOS \
	epsBulk 78.4 \
	pMol 0.92466 \
	epsInf 1.77 \
	Pvap 1.06736e-10 \
	sigmaBulk 4.62e-05 \
	Rvdw 2.61727 \
	Res 1.42 \
	tauNuc 343133 \
	poleEl 15 7 1
forces-output-coords Positions
ion K   0.000000000000000   0.000000000000000   0.000000000000000 0
ion-species SG15/$ID_ONCV_PBE.upf
ion-width 0
ionic-minimize  \
	dirUpdateScheme      L-BFGS \
	linminMethod         DirUpdateRecommended \
	nIterations          0 \
	history              15 \
	knormThreshold       0.0001 \
	energyDiffThreshold  1e-06 \
	nEnergyDiff          2 \
	alphaTstart          1 \
	alphaTmin            1e-10 \
	updateTestStepSize   yes \
	alphaTreduceFactor   0.1 \
	alphaTincreaseFactor 3 \
	nAlphaAdjustMax      3 \
	wolfeEnergy          0.0001 \
	wolfeGradient        0.9 \
	fdTest               no
kpoint   0.000000000000   0.000000000000   0.000000000000  1.00000000000000
kpoint-folding 12 12 1 
latt-move-scale 1 1 1
latt-scale 4 4 1 
lattice  \
	   4.727486978767153   -2.363743489383575    0.000000000000000  \
	  -0.000000000000000    4.094123819672498    0.000000000000000  \
	   0.000000000000000    0.000000000000000   40.000000000000000 
lattice-minimize  \
	dirUpdateScheme      L-BFGS \
	linminMethod         DirUpdateRecommended \
	nIterations          0 \
	history              15 \
	knormThreshold       0 \
	energyDiffThreshold  1e-06 \
	nEnergyDiff          2 \
	alphaTstart          1 \
	alphaTmin            1e-10 \
	updateTestStepSize   yes \
	alphaTreduceFactor   0.1 \
	alphaTincreaseFactor 3 \
	nAlphaAdjustMax      3 \
	wolfeEnergy          0.0001 \
	wolfeGradient        0.9 \
	fdTest               no
lcao-params -1 1e-06 1e-05
pcm-variant GLSSA13
spintype z-spin
subspace-rotation-factor 1 yes
symmetries automatic
symmetry-threshold 0.0001



---------- Setting up symmetries ----------

Found 24 point-group symmetries of the bravais lattice
Found 24 space-group symmetries with basis
Applied RMS atom displacement 0 bohrs to make symmetries exact.

---------- Initializing the Grid ----------
R = 
[      18.9099     -9.45497            0  ]
[            0      16.3765            0  ]
[            0            0           40  ]
unit cell volume = 12387.1
G =
[   0.332269   0.191835         -0  ]
[          0   0.383671         -0  ]
[         -0         -0    0.15708  ]
Minimum fftbox size, Smin = [  80  80  164  ]
Chosen fftbox size, S = [  80  80  168  ]

---------- Exchange Correlation functional ----------
Initalized PBE GGA exchange.
Initalized PBE GGA correlation.

---------- Setting up pseudopotentials ----------
Width of ionic core gaussian charges (only for fluid interactions / plotting) set to 0

Reading pseudopotential file '/home/gridsan/aligho/DFT/build-Nov24/pseudopotentials/SG15/K_ONCV_PBE.upf':
  'K' pseudopotential, 'PBE' functional
  Generated using ONCVPSP code by D. R. Hamann
  Author: Martin Schlipf and Francois Gygi  Date: 150915.
  9 valence electrons, 3 orbitals, 6 projectors, 2222 radial grid points, with lMax = 2
  Transforming local potential to a uniform radial grid of dG=0.02 with 1489 points.
  Transforming nonlocal projectors to a uniform radial grid of dG=0.02 with 432 points.
    3S    l: 0   occupation:  2.0   eigenvalue: -1.298836
    3P    l: 1   occupation:  6.0   eigenvalue: -0.691386
    4S    l: 0   occupation:  1.0   eigenvalue: -0.085223
  Transforming atomic orbitals to a uniform radial grid of dG=0.02 with 432 points.
  Core radius for overlap checks: 2.06 bohrs.
  Reading pulay file /home/gridsan/aligho/DFT/build-Nov24/pseudopotentials/SG15/K_ONCV_PBE.pulay ... using dE_dnG = -1.597219e-05 computed for Ecut = 20.

Initialized 1 species with 1 total atoms.

Folded 1 k-points by 12x12x1 to 144 k-points.

---------- Setting up k-points, bands, fillings ----------
Reduced to 19 k-points under symmetry. 
Computing the number of bands and number of electrons
Calculating initial fillings.
nElectrons:   9.000000   nBands: 6   nStates: 38

----- Setting up reduced wavefunction bases (one per k-point) -----
average nbasis = 52924.021 , ideal nbasis = 52918.836

---------- Setting up coulomb interaction ----------
Initialized slab truncation along lattice direction 001

---------- Setting up 2D ewald sum ----------
Optimum gaussian width for ewald sums = 10.498040 bohr.
Real space sums over 289 unit cells with max indices [  8  8  0  ]
Reciprocal space sums over 81 terms with max indices [  4  4  0  ]

---------- Allocating electronic variables ----------
Initializing wave functions:  linear combination of atomic orbitals
Note: number of bands (6) exceeds available atomic orbitals (5)
K pseudo-atom occupations:   s ( 2 1 )  p ( 6 )
[d-3-7-1:76360] 18 more processes have sent help message help-mpi-common-cuda.txt / dlopen failed
[d-3-7-1:76360] Set MCA parameter "orte_base_help_aggregate" to 0 to see all help / error messages
[d-3-7-1:76360] 18 more processes have sent help message help-mpi-btl-openib-cpc-base.txt / no cpcs for port
	FillingsUpdate:  mu: -0.080437831  nElectrons: 9.000000  magneticMoment: [ Abs: 0.98000  Tot: -0.98000 ]
LCAOMinimize: Iter:   0  F: -28.3814846173696047  |grad|_K:  1.666e-07  alpha:  1.000e+00
	FillingsUpdate:  mu: -0.080437813  nElectrons: 9.000000  magneticMoment: [ Abs: 0.98000  Tot: -0.98000 ]
LCAOMinimize: Iter:   1  F: -28.3814846173887112  |grad|_K:  1.443e-09  alpha:  1.009e+00  linmin:  1.483e-02  cgtest: -9.938e-01  t[s]:     15.29
	FillingsUpdate:  mu: -0.080437813  nElectrons: 9.000000  magneticMoment: [ Abs: 0.98000  Tot: -0.98000 ]
LCAOMinimize: Iter:   2  F: -28.3814846173887112  |grad|_K:  1.443e-09  alpha:  2.161e-05  linmin: -9.762e-04  cgtest:  1.000e+00  t[s]:     19.35
LCAOMinimize: Encountered beta<0, resetting CG.
	FillingsUpdate:  mu: -0.080437813  nElectrons: 9.000000  magneticMoment: [ Abs: 0.98000  Tot: -0.98000 ]
LCAOMinimize: Iter:   3  F: -28.3814846173887219  |grad|_K:  1.443e-09  alpha:  9.353e-11  linmin: -1.507e-02  cgtest:  1.000e+00  t[s]:     23.39
LCAOMinimize: 	Step increased F by 7.105427e-15, reducing alpha to 1.430806e-03.
	FillingsUpdate:  mu: -0.080437813  nElectrons: 9.000000  magneticMoment: [ Abs: 0.98000  Tot: -0.98000 ]
LCAOMinimize: Iter:   4  F: -28.3814846173887325  |grad|_K:  1.440e-09  alpha:  1.431e-03  linmin: -1.507e-02  cgtest:  1.000e+00  t[s]:     29.84
LCAOMinimize: Encountered beta<0, resetting CG.
LCAOMinimize: Converged (|Delta F|<1.000000e-06 for 2 iters).


---- Citations for features of the code used in this run ----

   Software package:
      R. Sundararaman, K. Letchworth-Weaver, K.A. Schwarz, D. Gunceler, Y. Ozhabes and T.A. Arias, 'JDFTx: software for joint density-functional theory', SoftwareX 6, 278 (2017)

   gga-PBE exchange-correlation functional:
      J.P. Perdew, K. Burke and M. Ernzerhof, Phys. Rev. Lett. 77, 3865 (1996)

   Pseudopotentials:
      M Schlipf and F Gygi, Comput. Phys. Commun. 196, 36 (2015)

   Truncated Coulomb potentials:
      R. Sundararaman and T.A. Arias, Phys. Rev. B 87, 165122 (2013)

This list may not be complete. Please suggest additional citations or
report any other bugs at https://github.com/shankar1729/jdftx/issues

Initialization completed successfully at t[s]:     30.10


-------- Electronic minimization -----------
Will mix electronic density at each iteration.
	FillingsUpdate:  mu: -0.080437813  nElectrons: 9.000000  magneticMoment: [ Abs: 0.98000  Tot: -0.98000 ]
	FillingsUpdate:  mu: -0.080819844  nElectrons: 9.000000  magneticMoment: [ Abs: 0.98000  Tot: -0.98000 ]
SCF: Cycle:  0   F: -28.381631071730517   dF: -1.465e-04   |Residual|: 2.301e-03   |deigs|: 1.602e-01  t[s]:     38.36
	FillingsUpdate:  mu: -0.081158354  nElectrons: 9.000000  magneticMoment: [ Abs: 0.98295  Tot: -0.98000 ]
SCF: Cycle:  1   F: -28.381633657838186   dF: -2.586e-06   |Residual|: 7.026e-04   |deigs|: 1.466e-02  t[s]:     44.82
	FillingsUpdate:  mu: -0.080983135  nElectrons: 9.000000  magneticMoment: [ Abs: 0.98257  Tot: -0.98000 ]
SCF: Cycle:  2   F: -28.381634493485848   dF: -8.356e-07   |Residual|: 5.257e-04   |deigs|: 4.527e-03  t[s]:     51.40
	FillingsUpdate:  mu: -0.080575976  nElectrons: 9.000000  magneticMoment: [ Abs: 0.98302  Tot: -0.98000 ]
SCF: Cycle:  3   F: -28.381635087045392   dF: -5.936e-07   |Residual|: 3.929e-04   |deigs|: 1.581e-03  t[s]:     58.20
	FillingsUpdate:  mu: -0.078437400  nElectrons: 9.000000  magneticMoment: [ Abs: 0.98264  Tot: -0.98000 ]
SCF: Cycle:  4   F: -28.381633048663797   dF: +2.038e-06   |Residual|: 2.292e-04   |deigs|: 1.559e-03  t[s]:     65.10
	FillingsUpdate:  mu: -0.078708788  nElectrons: 9.000000  magneticMoment: [ Abs: 0.98257  Tot: -0.98000 ]
SCF: Cycle:  5   F: -28.381634086992985   dF: -1.038e-06   |Residual|: 1.532e-04   |deigs|: 4.830e-04  t[s]:     72.09
	FillingsUpdate:  mu: -0.079092636  nElectrons: 9.000000  magneticMoment: [ Abs: 0.98267  Tot: -0.98000 ]
SCF: Cycle:  6   F: -28.381635424495116   dF: -1.338e-06   |Residual|: 1.018e-04   |deigs|: 3.989e-04  t[s]:     79.22
	FillingsUpdate:  mu: -0.079228006  nElectrons: 9.000000  magneticMoment: [ Abs: 0.98271  Tot: -0.98000 ]
SCF: Cycle:  7   F: -28.381635721461883   dF: -2.970e-07   |Residual|: 7.911e-05   |deigs|: 2.166e-04  t[s]:     86.45
	FillingsUpdate:  mu: -0.079439679  nElectrons: 9.000000  magneticMoment: [ Abs: 0.98265  Tot: -0.98000 ]
SCF: Cycle:  8   F: -28.381635807729847   dF: -8.627e-08   |Residual|: 5.669e-05   |deigs|: 3.456e-04  t[s]:     93.76
	FillingsUpdate:  mu: -0.079556325  nElectrons: 9.000000  magneticMoment: [ Abs: 0.98268  Tot: -0.98000 ]
SCF: Cycle:  9   F: -28.381635713684688   dF: +9.405e-08   |Residual|: 4.695e-05   |deigs|: 1.304e-04  t[s]:    101.19
	FillingsUpdate:  mu: -0.079619661  nElectrons: 9.000000  magneticMoment: [ Abs: 0.98278  Tot: -0.98000 ]
SCF: Cycle: 10   F: -28.381635840404648   dF: -1.267e-07   |Residual|: 4.194e-05   |deigs|: 1.299e-04  t[s]:    108.71
	FillingsUpdate:  mu: -0.079640433  nElectrons: 9.000000  magneticMoment: [ Abs: 0.98281  Tot: -0.98000 ]
SCF: Cycle: 11   F: -28.381635850530532   dF: -1.013e-08   |Residual|: 3.769e-05   |deigs|: 1.571e-04  t[s]:    116.18
	FillingsUpdate:  mu: -0.079638108  nElectrons: 9.000000  magneticMoment: [ Abs: 0.98279  Tot: -0.98000 ]
SCF: Cycle: 12   F: -28.381636129410385   dF: -2.789e-07   |Residual|: 2.893e-05   |deigs|: 2.873e-04  t[s]:    123.68
	FillingsUpdate:  mu: -0.079584443  nElectrons: 9.000000  magneticMoment: [ Abs: 0.98282  Tot: -0.98000 ]
SCF: Cycle: 13   F: -28.381636121854005   dF: +7.556e-09   |Residual|: 2.645e-05   |deigs|: 5.673e-05  t[s]:    131.04
	FillingsUpdate:  mu: -0.079520867  nElectrons: 9.000000  magneticMoment: [ Abs: 0.98288  Tot: -0.98000 ]
SCF: Cycle: 14   F: -28.381636090116569   dF: +3.174e-08   |Residual|: 2.397e-05   |deigs|: 1.017e-04  t[s]:    138.47
	FillingsUpdate:  mu: -0.079493448  nElectrons: 9.000000  magneticMoment: [ Abs: 0.98296  Tot: -0.98000 ]
SCF: Cycle: 15   F: -28.381636134498002   dF: -4.438e-08   |Residual|: 2.156e-05   |deigs|: 4.337e-05  t[s]:    146.03
	FillingsUpdate:  mu: -0.079525618  nElectrons: 9.000000  magneticMoment: [ Abs: 0.98290  Tot: -0.98000 ]
SCF: Cycle: 16   F: -28.381636192059744   dF: -5.756e-08   |Residual|: 1.923e-05   |deigs|: 1.298e-04  t[s]:    153.60
	FillingsUpdate:  mu: -0.079532624  nElectrons: 9.000000  magneticMoment: [ Abs: 0.98287  Tot: -0.98000 ]
SCF: Cycle: 17   F: -28.381636189511777   dF: +2.548e-09   |Residual|: 1.643e-05   |deigs|: 2.388e-05  t[s]:    160.94
	FillingsUpdate:  mu: -0.079530078  nElectrons: 9.000000  magneticMoment: [ Abs: 0.98278  Tot: -0.98000 ]
SCF: Cycle: 18   F: -28.381636196578103   dF: -7.066e-09   |Residual|: 1.070e-05   |deigs|: 4.812e-05  t[s]:    168.52
	FillingsUpdate:  mu: -0.079534846  nElectrons: 9.000000  magneticMoment: [ Abs: 0.98275  Tot: -0.98000 ]
SCF: Cycle: 19   F: -28.381636203950041   dF: -7.372e-09   |Residual|: 8.975e-06   |deigs|: 3.501e-05  t[s]:    176.10
SCF: Converged (|Delta E|<1.000000e-08 for 2 iters).


# Ionic positions in lattice coordinates:
ion K   0.000000000000000   0.000000000000000   0.000000000000000 0

# Forces in Lattice coordinates:
force K   0.000000000000000   0.000000000000000   0.000000000000000 0

# Energy components:
   Eewald =       -9.0240130501663280
       EH =       13.7988319243610480
     Eloc =      -36.0109998371267395
      Enl =       -2.7664640600802817
   Epulay =        0.0000000066859396
      Exc =       -4.2479611967956403
       KE =        9.8689702007970066
-------------------------------------
     Etot =      -28.3816360123249964
       TS =        0.0000001916250431
-------------------------------------
        F =      -28.3816362039500412

IonicMinimize: Iter:   0  F: -28.381636203950041  |grad|_K:  0.000e+00  t[s]:    176.52
IonicMinimize: Converged (|grad|_K<1.000000e-04).

#--- Lowdin population analysis ---
# oxidation-state K +0.001
# magnetic-moments K -0.979

End date and time: Sat Feb  5 23:36:37 2022  (Duration: 0-0:02:56.59)
Done!
