The alkali metal is K
scale=2
magnetization=-0.62
--------------------------------------------------------------------------
The library attempted to open the following supporting CUDA libraries,
but each of them failed.  CUDA-aware support is disabled.
libcuda.so.1: cannot open shared object file: No such file or directory
libcuda.dylib: cannot open shared object file: No such file or directory
/usr/lib64/libcuda.so.1: cannot open shared object file: No such file or directory
/usr/lib64/libcuda.dylib: cannot open shared object file: No such file or directory
If you are not interested in CUDA-aware support, then run with
--mca opal_warn_on_missing_libcuda 0 to suppress this message.  If you are interested
in CUDA-aware support, then try setting LD_LIBRARY_PATH to the location
of libcuda.so.1 to get passed this issue.
--------------------------------------------------------------------------
--------------------------------------------------------------------------
No OpenFabrics connection schemes reported that they were able to be
used on a specific port.  As such, the openib BTL (OpenFabrics
support) will be disabled for this port.

  Local host:           d-16-6-2
  Local device:         mlx5_1
  Local port:           1
  CPCs attempted:       rdmacm, udcm
--------------------------------------------------------------------------

*************** JDFTx 1.6.0 (git hash 42ebbcc2) ***************

Start date and time: Sat Feb  5 23:30:09 2022
Executable jdftx with command-line: -i Alkali.in
Running on hosts (process indices):  d-16-6-2 (0-18)
Divided in process groups (process indices):  0 (0)  1 (1)  2 (2)  3 (3)  4 (4)  5 (5)  6 (6)  7 (7)  8 (8)  9 (9)  10 (10)  11 (11)  12 (12)  13 (13)  14 (14)  15 (15)  16 (16)  17 (17)  18 (18)
Resource initialization completed at t[s]:      0.00
Run totals: 19 processes, 48 threads, 0 GPUs


Input parsed successfully to the following command list (including defaults):

basis kpoint-dependent
coords-type Lattice
core-overlap-check vector
coulomb-interaction Slab 001
davidson-band-ratio 1.1
dump End None
dump-name $INPUT.$VAR
elec-cutoff 20
elec-eigen-algo Davidson
elec-ex-corr gga-PBE
elec-initial-magnetization -0.620000 yes
elec-smearing Fermi 1e-05
electronic-minimize  \
	dirUpdateScheme      FletcherReeves \
	linminMethod         DirUpdateRecommended \
	nIterations          100 \
	history              15 \
	knormThreshold       0 \
	energyDiffThreshold  1e-08 \
	nEnergyDiff          2 \
	alphaTstart          1 \
	alphaTmin            1e-10 \
	updateTestStepSize   yes \
	alphaTreduceFactor   0.1 \
	alphaTincreaseFactor 3 \
	nAlphaAdjustMax      3 \
	wolfeEnergy          0.0001 \
	wolfeGradient        0.9 \
	fdTest               no
electronic-scf  \
	nIterations	10000 \
	energyDiffThreshold	1e-08 \
	residualThreshold	1e-07 \
	mixFraction	0.5 \
	qMetric	0.8 \
	history	10 \
	nEigSteps	2 \
	eigDiffThreshold	1e-08 \
	mixedVariable	Density \
	qKerker	0.8 \
	qKappa	-1 \
	verbose	no \
	mixFractionMag	1.5
exchange-regularization WignerSeitzTruncated
fluid None
fluid-ex-corr (null) lda-PZ
fluid-gummel-loop 10 1.000000e-05
fluid-minimize  \
	dirUpdateScheme      PolakRibiere \
	linminMethod         DirUpdateRecommended \
	nIterations          100 \
	history              15 \
	knormThreshold       0 \
	energyDiffThreshold  0 \
	nEnergyDiff          2 \
	alphaTstart          1 \
	alphaTmin            1e-10 \
	updateTestStepSize   yes \
	alphaTreduceFactor   0.1 \
	alphaTincreaseFactor 3 \
	nAlphaAdjustMax      3 \
	wolfeEnergy          0.0001 \
	wolfeGradient        0.9 \
	fdTest               no
fluid-solvent H2O 55.338 ScalarEOS \
	epsBulk 78.4 \
	pMol 0.92466 \
	epsInf 1.77 \
	Pvap 1.06736e-10 \
	sigmaBulk 4.62e-05 \
	Rvdw 2.61727 \
	Res 1.42 \
	tauNuc 343133 \
	poleEl 15 7 1
forces-output-coords Positions
ion K   0.000000000000000   0.000000000000000   0.000000000000000 0
ion-species SG15/$ID_ONCV_PBE.upf
ion-width 0
ionic-minimize  \
	dirUpdateScheme      L-BFGS \
	linminMethod         DirUpdateRecommended \
	nIterations          0 \
	history              15 \
	knormThreshold       0.0001 \
	energyDiffThreshold  1e-06 \
	nEnergyDiff          2 \
	alphaTstart          1 \
	alphaTmin            1e-10 \
	updateTestStepSize   yes \
	alphaTreduceFactor   0.1 \
	alphaTincreaseFactor 3 \
	nAlphaAdjustMax      3 \
	wolfeEnergy          0.0001 \
	wolfeGradient        0.9 \
	fdTest               no
kpoint   0.000000000000   0.000000000000   0.000000000000  1.00000000000000
kpoint-folding 12 12 1 
latt-move-scale 1 1 1
latt-scale 2 2 1 
lattice  \
	   4.727486978767153   -2.363743489383575    0.000000000000000  \
	  -0.000000000000000    4.094123819672498    0.000000000000000  \
	   0.000000000000000    0.000000000000000   40.000000000000000 
lattice-minimize  \
	dirUpdateScheme      L-BFGS \
	linminMethod         DirUpdateRecommended \
	nIterations          0 \
	history              15 \
	knormThreshold       0 \
	energyDiffThreshold  1e-06 \
	nEnergyDiff          2 \
	alphaTstart          1 \
	alphaTmin            1e-10 \
	updateTestStepSize   yes \
	alphaTreduceFactor   0.1 \
	alphaTincreaseFactor 3 \
	nAlphaAdjustMax      3 \
	wolfeEnergy          0.0001 \
	wolfeGradient        0.9 \
	fdTest               no
lcao-params -1 1e-06 1e-05
pcm-variant GLSSA13
spintype z-spin
subspace-rotation-factor 1 yes
symmetries automatic
symmetry-threshold 0.0001



---------- Setting up symmetries ----------

Found 24 point-group symmetries of the bravais lattice
Found 24 space-group symmetries with basis
Applied RMS atom displacement 0 bohrs to make symmetries exact.

---------- Initializing the Grid ----------
R = 
[      9.45497     -4.72749            0  ]
[            0      8.18825            0  ]
[            0            0           40  ]
unit cell volume = 3096.79
G =
[   0.664538   0.383671         -0  ]
[          0   0.767342         -0  ]
[         -0         -0    0.15708  ]
Minimum fftbox size, Smin = [  40  40  164  ]
Chosen fftbox size, S = [  40  40  168  ]

---------- Exchange Correlation functional ----------
Initalized PBE GGA exchange.
Initalized PBE GGA correlation.

---------- Setting up pseudopotentials ----------
Width of ionic core gaussian charges (only for fluid interactions / plotting) set to 0

Reading pseudopotential file '/home/gridsan/aligho/DFT/build-Nov24/pseudopotentials/SG15/K_ONCV_PBE.upf':
  'K' pseudopotential, 'PBE' functional
  Generated using ONCVPSP code by D. R. Hamann
  Author: Martin Schlipf and Francois Gygi  Date: 150915.
  9 valence electrons, 3 orbitals, 6 projectors, 2222 radial grid points, with lMax = 2
  Transforming local potential to a uniform radial grid of dG=0.02 with 1489 points.
  Transforming nonlocal projectors to a uniform radial grid of dG=0.02 with 432 points.
    3S    l: 0   occupation:  2.0   eigenvalue: -1.298836
    3P    l: 1   occupation:  6.0   eigenvalue: -0.691386
    4S    l: 0   occupation:  1.0   eigenvalue: -0.085223
  Transforming atomic orbitals to a uniform radial grid of dG=0.02 with 432 points.
  Core radius for overlap checks: 2.06 bohrs.
  Reading pulay file /home/gridsan/aligho/DFT/build-Nov24/pseudopotentials/SG15/K_ONCV_PBE.pulay ... using dE_dnG = -1.597219e-05 computed for Ecut = 20.

Initialized 1 species with 1 total atoms.

Folded 1 k-points by 12x12x1 to 144 k-points.

---------- Setting up k-points, bands, fillings ----------
Reduced to 19 k-points under symmetry. 
Computing the number of bands and number of electrons
Calculating initial fillings.
nElectrons:   9.000000   nBands: 6   nStates: 38

----- Setting up reduced wavefunction bases (one per k-point) -----
average nbasis = 13230.521 , ideal nbasis = 13229.709

---------- Setting up coulomb interaction ----------
Initialized slab truncation along lattice direction 001

---------- Setting up 2D ewald sum ----------
Optimum gaussian width for ewald sums = 5.249020 bohr.
Real space sums over 289 unit cells with max indices [  8  8  0  ]
Reciprocal space sums over 81 terms with max indices [  4  4  0  ]

---------- Allocating electronic variables ----------
Initializing wave functions:  linear combination of atomic orbitals
Note: number of bands (6) exceeds available atomic orbitals (5)
K pseudo-atom occupations:   s ( 2 1 )  p ( 6 )
	FillingsUpdate:  mu: -0.098325091  nElectrons: 9.000000  magneticMoment: [ Abs: 0.62000  Tot: -0.62000 ]
LCAOMinimize: Iter:   0  F: -28.3901444707709985  |grad|_K:  2.507e-05  alpha:  1.000e+00
	FillingsUpdate:  mu: -0.098318285  nElectrons: 9.000000  magneticMoment: [ Abs: 0.62000  Tot: -0.62000 ]
LCAOMinimize: Iter:   1  F: -28.3901448925037556  |grad|_K:  2.164e-07  alpha:  9.815e-01  linmin: -2.498e-02  cgtest:  4.042e-01  t[s]:      4.54
LCAOMinimize: Encountered beta<0, resetting CG.
[d-16-6-2:83955] 18 more processes have sent help message help-mpi-common-cuda.txt / dlopen failed
[d-16-6-2:83955] Set MCA parameter "orte_base_help_aggregate" to 0 to see all help / error messages
[d-16-6-2:83955] 18 more processes have sent help message help-mpi-btl-openib-cpc-base.txt / no cpcs for port
	FillingsUpdate:  mu: -0.098318320  nElectrons: 9.000000  magneticMoment: [ Abs: 0.62000  Tot: -0.62000 ]
LCAOMinimize: Iter:   2  F: -28.3901448925357194  |grad|_K:  2.715e-10  alpha:  1.002e+00  linmin:  3.258e-02  cgtest: -3.115e-01  t[s]:      5.71
LCAOMinimize: Converged (|Delta F|<1.000000e-06 for 2 iters).


---- Citations for features of the code used in this run ----

   Software package:
      R. Sundararaman, K. Letchworth-Weaver, K.A. Schwarz, D. Gunceler, Y. Ozhabes and T.A. Arias, 'JDFTx: software for joint density-functional theory', SoftwareX 6, 278 (2017)

   gga-PBE exchange-correlation functional:
      J.P. Perdew, K. Burke and M. Ernzerhof, Phys. Rev. Lett. 77, 3865 (1996)

   Pseudopotentials:
      M Schlipf and F Gygi, Comput. Phys. Commun. 196, 36 (2015)

   Truncated Coulomb potentials:
      R. Sundararaman and T.A. Arias, Phys. Rev. B 87, 165122 (2013)

This list may not be complete. Please suggest additional citations or
report any other bugs at https://github.com/shankar1729/jdftx/issues

Initialization completed successfully at t[s]:      5.80


-------- Electronic minimization -----------
Will mix electronic density at each iteration.
	FillingsUpdate:  mu: -0.098318320  nElectrons: 9.000000  magneticMoment: [ Abs: 0.62000  Tot: -0.62000 ]
	FillingsUpdate:  mu: -0.108042100  nElectrons: 9.000000  magneticMoment: [ Abs: 0.62000  Tot: -0.62000 ]
SCF: Cycle:  0   F: -28.398395021258327   dF: -8.250e-03   |Residual|: 1.286e-02   |deigs|: 1.731e-01  t[s]:      8.17
	FillingsUpdate:  mu: -0.108224613  nElectrons: 9.000000  magneticMoment: [ Abs: 0.62000  Tot: -0.62000 ]
SCF: Cycle:  1   F: -28.398719656969906   dF: -3.246e-04   |Residual|: 9.422e-03   |deigs|: 6.903e-03  t[s]:      9.92
	FillingsUpdate:  mu: -0.107383005  nElectrons: 9.000000  magneticMoment: [ Abs: 0.62335  Tot: -0.62000 ]
SCF: Cycle:  2   F: -28.398793887144670   dF: -7.423e-05   |Residual|: 5.547e-03   |deigs|: 4.010e-03  t[s]:     11.72
	FillingsUpdate:  mu: -0.106463969  nElectrons: 9.000000  magneticMoment: [ Abs: 0.62000  Tot: -0.62000 ]
SCF: Cycle:  3   F: -28.398864817127887   dF: -7.093e-05   |Residual|: 3.350e-03   |deigs|: 4.643e-03  t[s]:     13.54
	FillingsUpdate:  mu: -0.104948589  nElectrons: 9.000000  magneticMoment: [ Abs: 0.62002  Tot: -0.62000 ]
SCF: Cycle:  4   F: -28.398919031548566   dF: -5.421e-05   |Residual|: 2.018e-03   |deigs|: 4.164e-03  t[s]:     15.44
	FillingsUpdate:  mu: -0.103433587  nElectrons: 9.000000  magneticMoment: [ Abs: 0.62106  Tot: -0.62000 ]
SCF: Cycle:  5   F: -28.398939069989449   dF: -2.004e-05   |Residual|: 1.654e-03   |deigs|: 2.978e-03  t[s]:     17.32
	FillingsUpdate:  mu: -0.101587846  nElectrons: 9.000000  magneticMoment: [ Abs: 0.62575  Tot: -0.62000 ]
SCF: Cycle:  6   F: -28.398948569505166   dF: -9.500e-06   |Residual|: 1.223e-03   |deigs|: 2.746e-03  t[s]:     19.27
	FillingsUpdate:  mu: -0.099276758  nElectrons: 9.000000  magneticMoment: [ Abs: 0.62724  Tot: -0.62000 ]
SCF: Cycle:  7   F: -28.398967429214515   dF: -1.886e-05   |Residual|: 9.531e-04   |deigs|: 2.935e-03  t[s]:     21.25
	FillingsUpdate:  mu: -0.098979772  nElectrons: 9.000000  magneticMoment: [ Abs: 0.62202  Tot: -0.62000 ]
SCF: Cycle:  8   F: -28.398987842081350   dF: -2.041e-05   |Residual|: 7.739e-04   |deigs|: 6.036e-04  t[s]:     23.17
	FillingsUpdate:  mu: -0.098432625  nElectrons: 9.000000  magneticMoment: [ Abs: 0.62134  Tot: -0.62000 ]
SCF: Cycle:  9   F: -28.398994679088926   dF: -6.837e-06   |Residual|: 6.264e-04   |deigs|: 6.404e-04  t[s]:     25.14
	FillingsUpdate:  mu: -0.097197725  nElectrons: 9.000000  magneticMoment: [ Abs: 0.62369  Tot: -0.62000 ]
SCF: Cycle: 10   F: -28.398995059590014   dF: -3.805e-07   |Residual|: 5.319e-04   |deigs|: 1.623e-03  t[s]:     27.14
	FillingsUpdate:  mu: -0.096054409  nElectrons: 9.000000  magneticMoment: [ Abs: 0.62363  Tot: -0.62000 ]
SCF: Cycle: 11   F: -28.398994833257582   dF: +2.263e-07   |Residual|: 4.879e-04   |deigs|: 1.212e-03  t[s]:     29.16
	FillingsUpdate:  mu: -0.095199922  nElectrons: 9.000000  magneticMoment: [ Abs: 0.62320  Tot: -0.62000 ]
SCF: Cycle: 12   F: -28.399001335133853   dF: -6.502e-06   |Residual|: 4.340e-04   |deigs|: 8.316e-04  t[s]:     31.26
	FillingsUpdate:  mu: -0.094316611  nElectrons: 9.000000  magneticMoment: [ Abs: 0.62438  Tot: -0.62000 ]
SCF: Cycle: 13   F: -28.399007042698763   dF: -5.708e-06   |Residual|: 3.777e-04   |deigs|: 8.909e-04  t[s]:     33.24
	FillingsUpdate:  mu: -0.092705478  nElectrons: 9.000000  magneticMoment: [ Abs: 0.62267  Tot: -0.62000 ]
SCF: Cycle: 14   F: -28.399011952983500   dF: -4.910e-06   |Residual|: 3.576e-04   |deigs|: 1.676e-03  t[s]:     35.23
	FillingsUpdate:  mu: -0.091838227  nElectrons: 9.000000  magneticMoment: [ Abs: 0.62054  Tot: -0.62000 ]
SCF: Cycle: 15   F: -28.399014219533626   dF: -2.267e-06   |Residual|: 3.234e-04   |deigs|: 1.038e-03  t[s]:     37.29
	FillingsUpdate:  mu: -0.091058709  nElectrons: 9.000000  magneticMoment: [ Abs: 0.62142  Tot: -0.62000 ]
SCF: Cycle: 16   F: -28.399016259279975   dF: -2.040e-06   |Residual|: 2.339e-04   |deigs|: 8.522e-04  t[s]:     39.27
	FillingsUpdate:  mu: -0.090751033  nElectrons: 9.000000  magneticMoment: [ Abs: 0.62072  Tot: -0.62000 ]
SCF: Cycle: 17   F: -28.399017064974007   dF: -8.057e-07   |Residual|: 1.373e-04   |deigs|: 3.120e-04  t[s]:     41.28
	FillingsUpdate:  mu: -0.090638475  nElectrons: 9.000000  magneticMoment: [ Abs: 0.62029  Tot: -0.62000 ]
SCF: Cycle: 18   F: -28.399017536636961   dF: -4.717e-07   |Residual|: 8.731e-05   |deigs|: 1.301e-04  t[s]:     43.26
	FillingsUpdate:  mu: -0.090586519  nElectrons: 9.000000  magneticMoment: [ Abs: 0.62030  Tot: -0.62000 ]
SCF: Cycle: 19   F: -28.399017793555842   dF: -2.569e-07   |Residual|: 6.243e-05   |deigs|: 1.086e-04  t[s]:     45.29
	FillingsUpdate:  mu: -0.090591366  nElectrons: 9.000000  magneticMoment: [ Abs: 0.62031  Tot: -0.62000 ]
SCF: Cycle: 20   F: -28.399017886842643   dF: -9.329e-08   |Residual|: 3.297e-05   |deigs|: 1.314e-04  t[s]:     47.28
	FillingsUpdate:  mu: -0.090574341  nElectrons: 9.000000  magneticMoment: [ Abs: 0.62029  Tot: -0.62000 ]
SCF: Cycle: 21   F: -28.399017933355342   dF: -4.651e-08   |Residual|: 1.758e-05   |deigs|: 1.612e-04  t[s]:     49.26
	FillingsUpdate:  mu: -0.090564416  nElectrons: 9.000000  magneticMoment: [ Abs: 0.62030  Tot: -0.62000 ]
SCF: Cycle: 22   F: -28.399017963605196   dF: -3.025e-08   |Residual|: 1.240e-05   |deigs|: 1.606e-04  t[s]:     51.19
	FillingsUpdate:  mu: -0.090557073  nElectrons: 9.000000  magneticMoment: [ Abs: 0.62028  Tot: -0.62000 ]
SCF: Cycle: 23   F: -28.399017981687273   dF: -1.808e-08   |Residual|: 9.593e-06   |deigs|: 1.439e-04  t[s]:     53.09
	FillingsUpdate:  mu: -0.090554046  nElectrons: 9.000000  magneticMoment: [ Abs: 0.62024  Tot: -0.62000 ]
SCF: Cycle: 24   F: -28.399017993690936   dF: -1.200e-08   |Residual|: 9.153e-06   |deigs|: 1.097e-04  t[s]:     55.14
	FillingsUpdate:  mu: -0.090554611  nElectrons: 9.000000  magneticMoment: [ Abs: 0.62017  Tot: -0.62000 ]
SCF: Cycle: 25   F: -28.399018002640538   dF: -8.950e-09   |Residual|: 7.880e-06   |deigs|: 7.059e-05  t[s]:     57.19
	FillingsUpdate:  mu: -0.090552508  nElectrons: 9.000000  magneticMoment: [ Abs: 0.62012  Tot: -0.62000 ]
SCF: Cycle: 26   F: -28.399018010676571   dF: -8.036e-09   |Residual|: 6.362e-06   |deigs|: 5.339e-05  t[s]:     59.10
SCF: Converged (|Delta E|<1.000000e-08 for 2 iters).


# Ionic positions in lattice coordinates:
ion K   0.000000000000000   0.000000000000000   0.000000000000000 0

# Forces in Lattice coordinates:
force K  -0.000000000000000  -0.000000000000000   0.000000000000000 0

# Energy components:
   Eewald =      -18.0480261003326561
       EH =        4.8847568205901961
     Eloc =      -18.0772009065481782
      Enl =       -2.7766869165604966
   Epulay =        0.0000000041876954
      Exc =       -4.2664600945754954
       KE =        9.8846002400408732
-------------------------------------
     Etot =      -28.3990169531980499
       TS =        0.0000010574785198
-------------------------------------
        F =      -28.3990180106765706

IonicMinimize: Iter:   0  F: -28.399018010676571  |grad|_K:  0.000e+00  t[s]:     59.22
IonicMinimize: Converged (|grad|_K<1.000000e-04).

#--- Lowdin population analysis ---
# oxidation-state K +0.104
# magnetic-moments K -0.522

End date and time: Sat Feb  5 23:31:09 2022  (Duration: 0-0:00:59.24)
Done!
scale=3
magnetization=-0.62
--------------------------------------------------------------------------
The library attempted to open the following supporting CUDA libraries,
but each of them failed.  CUDA-aware support is disabled.
libcuda.so.1: cannot open shared object file: No such file or directory
libcuda.dylib: cannot open shared object file: No such file or directory
/usr/lib64/libcuda.so.1: cannot open shared object file: No such file or directory
/usr/lib64/libcuda.dylib: cannot open shared object file: No such file or directory
If you are not interested in CUDA-aware support, then run with
--mca opal_warn_on_missing_libcuda 0 to suppress this message.  If you are interested
in CUDA-aware support, then try setting LD_LIBRARY_PATH to the location
of libcuda.so.1 to get passed this issue.
--------------------------------------------------------------------------
--------------------------------------------------------------------------
No OpenFabrics connection schemes reported that they were able to be
used on a specific port.  As such, the openib BTL (OpenFabrics
support) will be disabled for this port.

  Local host:           d-16-6-2
  Local device:         mlx5_1
  Local port:           1
  CPCs attempted:       rdmacm, udcm
--------------------------------------------------------------------------

*************** JDFTx 1.6.0 (git hash 42ebbcc2) ***************

Start date and time: Sat Feb  5 23:31:10 2022
Executable jdftx with command-line: -i Alkali.in
Running on hosts (process indices):  d-16-6-2 (0-18)
Divided in process groups (process indices):  0 (0)  1 (1)  2 (2)  3 (3)  4 (4)  5 (5)  6 (6)  7 (7)  8 (8)  9 (9)  10 (10)  11 (11)  12 (12)  13 (13)  14 (14)  15 (15)  16 (16)  17 (17)  18 (18)
Resource initialization completed at t[s]:      0.00
Run totals: 19 processes, 48 threads, 0 GPUs


Input parsed successfully to the following command list (including defaults):

basis kpoint-dependent
coords-type Lattice
core-overlap-check vector
coulomb-interaction Slab 001
davidson-band-ratio 1.1
dump End None
dump-name $INPUT.$VAR
elec-cutoff 20
elec-eigen-algo Davidson
elec-ex-corr gga-PBE
elec-initial-magnetization -0.620000 yes
elec-smearing Fermi 1e-05
electronic-minimize  \
	dirUpdateScheme      FletcherReeves \
	linminMethod         DirUpdateRecommended \
	nIterations          100 \
	history              15 \
	knormThreshold       0 \
	energyDiffThreshold  1e-08 \
	nEnergyDiff          2 \
	alphaTstart          1 \
	alphaTmin            1e-10 \
	updateTestStepSize   yes \
	alphaTreduceFactor   0.1 \
	alphaTincreaseFactor 3 \
	nAlphaAdjustMax      3 \
	wolfeEnergy          0.0001 \
	wolfeGradient        0.9 \
	fdTest               no
electronic-scf  \
	nIterations	10000 \
	energyDiffThreshold	1e-08 \
	residualThreshold	1e-07 \
	mixFraction	0.5 \
	qMetric	0.8 \
	history	10 \
	nEigSteps	2 \
	eigDiffThreshold	1e-08 \
	mixedVariable	Density \
	qKerker	0.8 \
	qKappa	-1 \
	verbose	no \
	mixFractionMag	1.5
exchange-regularization WignerSeitzTruncated
fluid None
fluid-ex-corr (null) lda-PZ
fluid-gummel-loop 10 1.000000e-05
fluid-minimize  \
	dirUpdateScheme      PolakRibiere \
	linminMethod         DirUpdateRecommended \
	nIterations          100 \
	history              15 \
	knormThreshold       0 \
	energyDiffThreshold  0 \
	nEnergyDiff          2 \
	alphaTstart          1 \
	alphaTmin            1e-10 \
	updateTestStepSize   yes \
	alphaTreduceFactor   0.1 \
	alphaTincreaseFactor 3 \
	nAlphaAdjustMax      3 \
	wolfeEnergy          0.0001 \
	wolfeGradient        0.9 \
	fdTest               no
fluid-solvent H2O 55.338 ScalarEOS \
	epsBulk 78.4 \
	pMol 0.92466 \
	epsInf 1.77 \
	Pvap 1.06736e-10 \
	sigmaBulk 4.62e-05 \
	Rvdw 2.61727 \
	Res 1.42 \
	tauNuc 343133 \
	poleEl 15 7 1
forces-output-coords Positions
ion K   0.000000000000000   0.000000000000000   0.000000000000000 0
ion-species SG15/$ID_ONCV_PBE.upf
ion-width 0
ionic-minimize  \
	dirUpdateScheme      L-BFGS \
	linminMethod         DirUpdateRecommended \
	nIterations          0 \
	history              15 \
	knormThreshold       0.0001 \
	energyDiffThreshold  1e-06 \
	nEnergyDiff          2 \
	alphaTstart          1 \
	alphaTmin            1e-10 \
	updateTestStepSize   yes \
	alphaTreduceFactor   0.1 \
	alphaTincreaseFactor 3 \
	nAlphaAdjustMax      3 \
	wolfeEnergy          0.0001 \
	wolfeGradient        0.9 \
	fdTest               no
kpoint   0.000000000000   0.000000000000   0.000000000000  1.00000000000000
kpoint-folding 12 12 1 
latt-move-scale 1 1 1
latt-scale 3 3 1 
lattice  \
	   4.727486978767153   -2.363743489383575    0.000000000000000  \
	  -0.000000000000000    4.094123819672498    0.000000000000000  \
	   0.000000000000000    0.000000000000000   40.000000000000000 
lattice-minimize  \
	dirUpdateScheme      L-BFGS \
	linminMethod         DirUpdateRecommended \
	nIterations          0 \
	history              15 \
	knormThreshold       0 \
	energyDiffThreshold  1e-06 \
	nEnergyDiff          2 \
	alphaTstart          1 \
	alphaTmin            1e-10 \
	updateTestStepSize   yes \
	alphaTreduceFactor   0.1 \
	alphaTincreaseFactor 3 \
	nAlphaAdjustMax      3 \
	wolfeEnergy          0.0001 \
	wolfeGradient        0.9 \
	fdTest               no
lcao-params -1 1e-06 1e-05
pcm-variant GLSSA13
spintype z-spin
subspace-rotation-factor 1 yes
symmetries automatic
symmetry-threshold 0.0001



---------- Setting up symmetries ----------

Found 24 point-group symmetries of the bravais lattice
Found 24 space-group symmetries with basis
Applied RMS atom displacement 0 bohrs to make symmetries exact.

---------- Initializing the Grid ----------
R = 
[      14.1825     -7.09123            0  ]
[            0      12.2824            0  ]
[            0            0           40  ]
unit cell volume = 6967.77
G =
[   0.443025   0.255781         -0  ]
[          0   0.511561         -0  ]
[         -0         -0    0.15708  ]
Minimum fftbox size, Smin = [  60  60  164  ]
Chosen fftbox size, S = [  60  60  168  ]

---------- Exchange Correlation functional ----------
Initalized PBE GGA exchange.
Initalized PBE GGA correlation.

---------- Setting up pseudopotentials ----------
Width of ionic core gaussian charges (only for fluid interactions / plotting) set to 0

Reading pseudopotential file '/home/gridsan/aligho/DFT/build-Nov24/pseudopotentials/SG15/K_ONCV_PBE.upf':
  'K' pseudopotential, 'PBE' functional
  Generated using ONCVPSP code by D. R. Hamann
  Author: Martin Schlipf and Francois Gygi  Date: 150915.
  9 valence electrons, 3 orbitals, 6 projectors, 2222 radial grid points, with lMax = 2
  Transforming local potential to a uniform radial grid of dG=0.02 with 1489 points.
  Transforming nonlocal projectors to a uniform radial grid of dG=0.02 with 432 points.
    3S    l: 0   occupation:  2.0   eigenvalue: -1.298836
    3P    l: 1   occupation:  6.0   eigenvalue: -0.691386
    4S    l: 0   occupation:  1.0   eigenvalue: -0.085223
  Transforming atomic orbitals to a uniform radial grid of dG=0.02 with 432 points.
  Core radius for overlap checks: 2.06 bohrs.
  Reading pulay file /home/gridsan/aligho/DFT/build-Nov24/pseudopotentials/SG15/K_ONCV_PBE.pulay ... using dE_dnG = -1.597219e-05 computed for Ecut = 20.

Initialized 1 species with 1 total atoms.

Folded 1 k-points by 12x12x1 to 144 k-points.

---------- Setting up k-points, bands, fillings ----------
Reduced to 19 k-points under symmetry. 
Computing the number of bands and number of electrons
Calculating initial fillings.
nElectrons:   9.000000   nBands: 6   nStates: 38

----- Setting up reduced wavefunction bases (one per k-point) -----
average nbasis = 29766.104 , ideal nbasis = 29766.845

---------- Setting up coulomb interaction ----------
Initialized slab truncation along lattice direction 001

---------- Setting up 2D ewald sum ----------
Optimum gaussian width for ewald sums = 7.873530 bohr.
Real space sums over 289 unit cells with max indices [  8  8  0  ]
Reciprocal space sums over 81 terms with max indices [  4  4  0  ]

---------- Allocating electronic variables ----------
Initializing wave functions:  linear combination of atomic orbitals
Note: number of bands (6) exceeds available atomic orbitals (5)
K pseudo-atom occupations:   s ( 2 1 )  p ( 6 )
[d-16-6-2:63367] 18 more processes have sent help message help-mpi-common-cuda.txt / dlopen failed
[d-16-6-2:63367] Set MCA parameter "orte_base_help_aggregate" to 0 to see all help / error messages
[d-16-6-2:63367] 18 more processes have sent help message help-mpi-btl-openib-cpc-base.txt / no cpcs for port
	FillingsUpdate:  mu: -0.088612196  nElectrons: 9.000000  magneticMoment: [ Abs: 0.62000  Tot: -0.62000 ]
LCAOMinimize: Iter:   0  F: -28.3822143597827683  |grad|_K:  1.231e-05  alpha:  1.000e+00
	FillingsUpdate:  mu: -0.088610728  nElectrons: 9.000000  magneticMoment: [ Abs: 0.62000  Tot: -0.62000 ]
LCAOMinimize: Iter:   1  F: -28.3822144627598441  |grad|_K:  8.329e-08  alpha:  9.929e-01  linmin: -9.688e-03  cgtest:  2.372e-01  t[s]:      8.61
LCAOMinimize: Encountered beta<0, resetting CG.
	FillingsUpdate:  mu: -0.088610742  nElectrons: 9.000000  magneticMoment: [ Abs: 0.62000  Tot: -0.62000 ]
LCAOMinimize: Iter:   2  F: -28.3822144627650417  |grad|_K:  1.428e-08  alpha:  1.168e+00  linmin:  1.428e-01  cgtest: -9.992e-01  t[s]:     10.97
LCAOMinimize: Converged (|Delta F|<1.000000e-06 for 2 iters).


---- Citations for features of the code used in this run ----

   Software package:
      R. Sundararaman, K. Letchworth-Weaver, K.A. Schwarz, D. Gunceler, Y. Ozhabes and T.A. Arias, 'JDFTx: software for joint density-functional theory', SoftwareX 6, 278 (2017)

   gga-PBE exchange-correlation functional:
      J.P. Perdew, K. Burke and M. Ernzerhof, Phys. Rev. Lett. 77, 3865 (1996)

   Pseudopotentials:
      M Schlipf and F Gygi, Comput. Phys. Commun. 196, 36 (2015)

   Truncated Coulomb potentials:
      R. Sundararaman and T.A. Arias, Phys. Rev. B 87, 165122 (2013)

This list may not be complete. Please suggest additional citations or
report any other bugs at https://github.com/shankar1729/jdftx/issues

Initialization completed successfully at t[s]:     11.12


-------- Electronic minimization -----------
Will mix electronic density at each iteration.
	FillingsUpdate:  mu: -0.088610742  nElectrons: 9.000000  magneticMoment: [ Abs: 0.62000  Tot: -0.62000 ]
	FillingsUpdate:  mu: -0.089507724  nElectrons: 9.000000  magneticMoment: [ Abs: 0.62000  Tot: -0.62000 ]
SCF: Cycle:  0   F: -28.383409849613621   dF: -1.195e-03   |Residual|: 3.360e-03   |deigs|: 1.741e-01  t[s]:     15.86
	FillingsUpdate:  mu: -0.089656959  nElectrons: 9.000000  magneticMoment: [ Abs: 0.62008  Tot: -0.62000 ]
SCF: Cycle:  1   F: -28.383443801301329   dF: -3.395e-05   |Residual|: 2.460e-03   |deigs|: 4.907e-03  t[s]:     19.52
	FillingsUpdate:  mu: -0.089794917  nElectrons: 9.000000  magneticMoment: [ Abs: 0.62122  Tot: -0.62000 ]
SCF: Cycle:  2   F: -28.383468440757554   dF: -2.464e-05   |Residual|: 1.853e-03   |deigs|: 2.228e-03  t[s]:     23.22
	FillingsUpdate:  mu: -0.090053804  nElectrons: 9.000000  magneticMoment: [ Abs: 0.62152  Tot: -0.62000 ]
SCF: Cycle:  3   F: -28.383487659745366   dF: -1.922e-05   |Residual|: 1.262e-03   |deigs|: 3.294e-03  t[s]:     27.10
	FillingsUpdate:  mu: -0.090200396  nElectrons: 9.000000  magneticMoment: [ Abs: 0.62093  Tot: -0.62000 ]
SCF: Cycle:  4   F: -28.383499640015870   dF: -1.198e-05   |Residual|: 7.109e-04   |deigs|: 1.720e-03  t[s]:     30.93
	FillingsUpdate:  mu: -0.090321012  nElectrons: 9.000000  magneticMoment: [ Abs: 0.62122  Tot: -0.62000 ]
SCF: Cycle:  5   F: -28.383506051179591   dF: -6.411e-06   |Residual|: 4.130e-04   |deigs|: 1.063e-03  t[s]:     34.80
	FillingsUpdate:  mu: -0.090273979  nElectrons: 9.000000  magneticMoment: [ Abs: 0.62093  Tot: -0.62000 ]
SCF: Cycle:  6   F: -28.383509683993520   dF: -3.633e-06   |Residual|: 2.861e-04   |deigs|: 1.373e-03  t[s]:     38.70
	FillingsUpdate:  mu: -0.090173057  nElectrons: 9.000000  magneticMoment: [ Abs: 0.62121  Tot: -0.62000 ]
SCF: Cycle:  7   F: -28.383511335515713   dF: -1.652e-06   |Residual|: 2.293e-04   |deigs|: 6.168e-04  t[s]:     42.68
	FillingsUpdate:  mu: -0.090029995  nElectrons: 9.000000  magneticMoment: [ Abs: 0.62146  Tot: -0.62000 ]
SCF: Cycle:  8   F: -28.383512080036290   dF: -7.445e-07   |Residual|: 1.825e-04   |deigs|: 3.776e-04  t[s]:     46.81
	FillingsUpdate:  mu: -0.089776868  nElectrons: 9.000000  magneticMoment: [ Abs: 0.62198  Tot: -0.62000 ]
SCF: Cycle:  9   F: -28.383512307062013   dF: -2.270e-07   |Residual|: 1.621e-04   |deigs|: 3.564e-04  t[s]:     50.97
	FillingsUpdate:  mu: -0.089605331  nElectrons: 9.000000  magneticMoment: [ Abs: 0.62173  Tot: -0.62000 ]
SCF: Cycle: 10   F: -28.383512313222965   dF: -6.161e-09   |Residual|: 1.467e-04   |deigs|: 1.837e-04  t[s]:     55.18
	FillingsUpdate:  mu: -0.089373251  nElectrons: 9.000000  magneticMoment: [ Abs: 0.62211  Tot: -0.62000 ]
SCF: Cycle: 11   F: -28.383512910740517   dF: -5.975e-07   |Residual|: 1.234e-04   |deigs|: 2.342e-04  t[s]:     59.48
	FillingsUpdate:  mu: -0.089390494  nElectrons: 9.000000  magneticMoment: [ Abs: 0.62176  Tot: -0.62000 ]
SCF: Cycle: 12   F: -28.383513677297671   dF: -7.666e-07   |Residual|: 9.900e-05   |deigs|: 9.529e-05  t[s]:     63.70
	FillingsUpdate:  mu: -0.089170093  nElectrons: 9.000000  magneticMoment: [ Abs: 0.62142  Tot: -0.62000 ]
SCF: Cycle: 13   F: -28.383513877669209   dF: -2.004e-07   |Residual|: 9.222e-05   |deigs|: 2.341e-04  t[s]:     67.86
	FillingsUpdate:  mu: -0.088921668  nElectrons: 9.000000  magneticMoment: [ Abs: 0.62147  Tot: -0.62000 ]
SCF: Cycle: 14   F: -28.383513551173586   dF: +3.265e-07   |Residual|: 9.544e-05   |deigs|: 2.756e-04  t[s]:     72.04
	FillingsUpdate:  mu: -0.088781460  nElectrons: 9.000000  magneticMoment: [ Abs: 0.62173  Tot: -0.62000 ]
SCF: Cycle: 15   F: -28.383513808246537   dF: -2.571e-07   |Residual|: 8.418e-05   |deigs|: 3.617e-04  t[s]:     76.31
	FillingsUpdate:  mu: -0.088707556  nElectrons: 9.000000  magneticMoment: [ Abs: 0.62150  Tot: -0.62000 ]
SCF: Cycle: 16   F: -28.383514368837545   dF: -5.606e-07   |Residual|: 6.768e-05   |deigs|: 3.197e-04  t[s]:     80.53
	FillingsUpdate:  mu: -0.088568195  nElectrons: 9.000000  magneticMoment: [ Abs: 0.62113  Tot: -0.62000 ]
SCF: Cycle: 17   F: -28.383514490474202   dF: -1.216e-07   |Residual|: 5.268e-05   |deigs|: 1.436e-04  t[s]:     84.69
	FillingsUpdate:  mu: -0.088507191  nElectrons: 9.000000  magneticMoment: [ Abs: 0.62113  Tot: -0.62000 ]
SCF: Cycle: 18   F: -28.383514737088191   dF: -2.466e-07   |Residual|: 3.304e-05   |deigs|: 2.022e-04  t[s]:     88.91
	FillingsUpdate:  mu: -0.088527857  nElectrons: 9.000000  magneticMoment: [ Abs: 0.62113  Tot: -0.62000 ]
SCF: Cycle: 19   F: -28.383514803717620   dF: -6.663e-08   |Residual|: 2.030e-05   |deigs|: 4.390e-05  t[s]:     92.84
	FillingsUpdate:  mu: -0.088524874  nElectrons: 9.000000  magneticMoment: [ Abs: 0.62110  Tot: -0.62000 ]
SCF: Cycle: 20   F: -28.383514838485276   dF: -3.477e-08   |Residual|: 1.102e-05   |deigs|: 2.089e-05  t[s]:     97.00
	FillingsUpdate:  mu: -0.088519785  nElectrons: 9.000000  magneticMoment: [ Abs: 0.62110  Tot: -0.62000 ]
SCF: Cycle: 21   F: -28.383514860462249   dF: -2.198e-08   |Residual|: 7.219e-06   |deigs|: 1.687e-05  t[s]:    101.06
	FillingsUpdate:  mu: -0.088521163  nElectrons: 9.000000  magneticMoment: [ Abs: 0.62110  Tot: -0.62000 ]
SCF: Cycle: 22   F: -28.383514873742342   dF: -1.328e-08   |Residual|: 4.069e-06   |deigs|: 1.112e-05  t[s]:    105.08
	FillingsUpdate:  mu: -0.088517717  nElectrons: 9.000000  magneticMoment: [ Abs: 0.62111  Tot: -0.62000 ]
SCF: Cycle: 23   F: -28.383514881341810   dF: -7.599e-09   |Residual|: 2.923e-06   |deigs|: 7.280e-06  t[s]:    109.02
	FillingsUpdate:  mu: -0.088518099  nElectrons: 9.000000  magneticMoment: [ Abs: 0.62111  Tot: -0.62000 ]
SCF: Cycle: 24   F: -28.383514885908486   dF: -4.567e-09   |Residual|: 1.806e-06   |deigs|: 5.013e-06  t[s]:    113.11
SCF: Converged (|Delta E|<1.000000e-08 for 2 iters).


# Ionic positions in lattice coordinates:
ion K   0.000000000000000   0.000000000000000   0.000000000000000 0

# Forces in Lattice coordinates:
force K  -0.000000000000000   0.000000000000000   0.000000000000000 0

# Energy components:
   Eewald =      -12.0320174002217755
       EH =       10.7329327269523418
     Eloc =      -29.9299880163215306
      Enl =       -2.7708013069269439
   Epulay =       -0.0000000016982517
      Exc =       -4.2399444495081706
       KE =        9.8563046192943666
-------------------------------------
     Etot =      -28.3835138284299653
       TS =        0.0000010574785198
-------------------------------------
        F =      -28.3835148859084860

IonicMinimize: Iter:   0  F: -28.383514885908486  |grad|_K:  0.000e+00  t[s]:    113.36
IonicMinimize: Converged (|grad|_K<1.000000e-04).

#--- Lowdin population analysis ---
# oxidation-state K +0.026
# magnetic-moments K -0.598

End date and time: Sat Feb  5 23:33:03 2022  (Duration: 0-0:01:53.41)
Done!
scale=4
magnetization=-0.62
--------------------------------------------------------------------------
The library attempted to open the following supporting CUDA libraries,
but each of them failed.  CUDA-aware support is disabled.
libcuda.so.1: cannot open shared object file: No such file or directory
libcuda.dylib: cannot open shared object file: No such file or directory
/usr/lib64/libcuda.so.1: cannot open shared object file: No such file or directory
/usr/lib64/libcuda.dylib: cannot open shared object file: No such file or directory
If you are not interested in CUDA-aware support, then run with
--mca opal_warn_on_missing_libcuda 0 to suppress this message.  If you are interested
in CUDA-aware support, then try setting LD_LIBRARY_PATH to the location
of libcuda.so.1 to get passed this issue.
--------------------------------------------------------------------------
--------------------------------------------------------------------------
No OpenFabrics connection schemes reported that they were able to be
used on a specific port.  As such, the openib BTL (OpenFabrics
support) will be disabled for this port.

  Local host:           d-16-6-2
  Local device:         mlx5_1
  Local port:           1
  CPCs attempted:       rdmacm, udcm
--------------------------------------------------------------------------

*************** JDFTx 1.6.0 (git hash 42ebbcc2) ***************

Start date and time: Sat Feb  5 23:33:04 2022
Executable jdftx with command-line: -i Alkali.in
Running on hosts (process indices):  d-16-6-2 (0-18)
Divided in process groups (process indices):  0 (0)  1 (1)  2 (2)  3 (3)  4 (4)  5 (5)  6 (6)  7 (7)  8 (8)  9 (9)  10 (10)  11 (11)  12 (12)  13 (13)  14 (14)  15 (15)  16 (16)  17 (17)  18 (18)
Resource initialization completed at t[s]:      0.00
Run totals: 19 processes, 48 threads, 0 GPUs


Input parsed successfully to the following command list (including defaults):

basis kpoint-dependent
coords-type Lattice
core-overlap-check vector
coulomb-interaction Slab 001
davidson-band-ratio 1.1
dump End None
dump-name $INPUT.$VAR
elec-cutoff 20
elec-eigen-algo Davidson
elec-ex-corr gga-PBE
elec-initial-magnetization -0.620000 yes
elec-smearing Fermi 1e-05
electronic-minimize  \
	dirUpdateScheme      FletcherReeves \
	linminMethod         DirUpdateRecommended \
	nIterations          100 \
	history              15 \
	knormThreshold       0 \
	energyDiffThreshold  1e-08 \
	nEnergyDiff          2 \
	alphaTstart          1 \
	alphaTmin            1e-10 \
	updateTestStepSize   yes \
	alphaTreduceFactor   0.1 \
	alphaTincreaseFactor 3 \
	nAlphaAdjustMax      3 \
	wolfeEnergy          0.0001 \
	wolfeGradient        0.9 \
	fdTest               no
electronic-scf  \
	nIterations	10000 \
	energyDiffThreshold	1e-08 \
	residualThreshold	1e-07 \
	mixFraction	0.5 \
	qMetric	0.8 \
	history	10 \
	nEigSteps	2 \
	eigDiffThreshold	1e-08 \
	mixedVariable	Density \
	qKerker	0.8 \
	qKappa	-1 \
	verbose	no \
	mixFractionMag	1.5
exchange-regularization WignerSeitzTruncated
fluid None
fluid-ex-corr (null) lda-PZ
fluid-gummel-loop 10 1.000000e-05
fluid-minimize  \
	dirUpdateScheme      PolakRibiere \
	linminMethod         DirUpdateRecommended \
	nIterations          100 \
	history              15 \
	knormThreshold       0 \
	energyDiffThreshold  0 \
	nEnergyDiff          2 \
	alphaTstart          1 \
	alphaTmin            1e-10 \
	updateTestStepSize   yes \
	alphaTreduceFactor   0.1 \
	alphaTincreaseFactor 3 \
	nAlphaAdjustMax      3 \
	wolfeEnergy          0.0001 \
	wolfeGradient        0.9 \
	fdTest               no
fluid-solvent H2O 55.338 ScalarEOS \
	epsBulk 78.4 \
	pMol 0.92466 \
	epsInf 1.77 \
	Pvap 1.06736e-10 \
	sigmaBulk 4.62e-05 \
	Rvdw 2.61727 \
	Res 1.42 \
	tauNuc 343133 \
	poleEl 15 7 1
forces-output-coords Positions
ion K   0.000000000000000   0.000000000000000   0.000000000000000 0
ion-species SG15/$ID_ONCV_PBE.upf
ion-width 0
ionic-minimize  \
	dirUpdateScheme      L-BFGS \
	linminMethod         DirUpdateRecommended \
	nIterations          0 \
	history              15 \
	knormThreshold       0.0001 \
	energyDiffThreshold  1e-06 \
	nEnergyDiff          2 \
	alphaTstart          1 \
	alphaTmin            1e-10 \
	updateTestStepSize   yes \
	alphaTreduceFactor   0.1 \
	alphaTincreaseFactor 3 \
	nAlphaAdjustMax      3 \
	wolfeEnergy          0.0001 \
	wolfeGradient        0.9 \
	fdTest               no
kpoint   0.000000000000   0.000000000000   0.000000000000  1.00000000000000
kpoint-folding 12 12 1 
latt-move-scale 1 1 1
latt-scale 4 4 1 
lattice  \
	   4.727486978767153   -2.363743489383575    0.000000000000000  \
	  -0.000000000000000    4.094123819672498    0.000000000000000  \
	   0.000000000000000    0.000000000000000   40.000000000000000 
lattice-minimize  \
	dirUpdateScheme      L-BFGS \
	linminMethod         DirUpdateRecommended \
	nIterations          0 \
	history              15 \
	knormThreshold       0 \
	energyDiffThreshold  1e-06 \
	nEnergyDiff          2 \
	alphaTstart          1 \
	alphaTmin            1e-10 \
	updateTestStepSize   yes \
	alphaTreduceFactor   0.1 \
	alphaTincreaseFactor 3 \
	nAlphaAdjustMax      3 \
	wolfeEnergy          0.0001 \
	wolfeGradient        0.9 \
	fdTest               no
lcao-params -1 1e-06 1e-05
pcm-variant GLSSA13
spintype z-spin
subspace-rotation-factor 1 yes
symmetries automatic
symmetry-threshold 0.0001



---------- Setting up symmetries ----------

Found 24 point-group symmetries of the bravais lattice
Found 24 space-group symmetries with basis
Applied RMS atom displacement 0 bohrs to make symmetries exact.

---------- Initializing the Grid ----------
R = 
[      18.9099     -9.45497            0  ]
[            0      16.3765            0  ]
[            0            0           40  ]
unit cell volume = 12387.1
G =
[   0.332269   0.191835         -0  ]
[          0   0.383671         -0  ]
[         -0         -0    0.15708  ]
Minimum fftbox size, Smin = [  80  80  164  ]
Chosen fftbox size, S = [  80  80  168  ]

---------- Exchange Correlation functional ----------
Initalized PBE GGA exchange.
Initalized PBE GGA correlation.

---------- Setting up pseudopotentials ----------
Width of ionic core gaussian charges (only for fluid interactions / plotting) set to 0

Reading pseudopotential file '/home/gridsan/aligho/DFT/build-Nov24/pseudopotentials/SG15/K_ONCV_PBE.upf':
  'K' pseudopotential, 'PBE' functional
  Generated using ONCVPSP code by D. R. Hamann
  Author: Martin Schlipf and Francois Gygi  Date: 150915.
  9 valence electrons, 3 orbitals, 6 projectors, 2222 radial grid points, with lMax = 2
  Transforming local potential to a uniform radial grid of dG=0.02 with 1489 points.
  Transforming nonlocal projectors to a uniform radial grid of dG=0.02 with 432 points.
    3S    l: 0   occupation:  2.0   eigenvalue: -1.298836
    3P    l: 1   occupation:  6.0   eigenvalue: -0.691386
    4S    l: 0   occupation:  1.0   eigenvalue: -0.085223
  Transforming atomic orbitals to a uniform radial grid of dG=0.02 with 432 points.
  Core radius for overlap checks: 2.06 bohrs.
  Reading pulay file /home/gridsan/aligho/DFT/build-Nov24/pseudopotentials/SG15/K_ONCV_PBE.pulay ... using dE_dnG = -1.597219e-05 computed for Ecut = 20.

Initialized 1 species with 1 total atoms.

Folded 1 k-points by 12x12x1 to 144 k-points.

---------- Setting up k-points, bands, fillings ----------
Reduced to 19 k-points under symmetry. 
Computing the number of bands and number of electrons
Calculating initial fillings.
nElectrons:   9.000000   nBands: 6   nStates: 38

----- Setting up reduced wavefunction bases (one per k-point) -----
average nbasis = 52924.021 , ideal nbasis = 52918.836

---------- Setting up coulomb interaction ----------
Initialized slab truncation along lattice direction 001

---------- Setting up 2D ewald sum ----------
Optimum gaussian width for ewald sums = 10.498040 bohr.
Real space sums over 289 unit cells with max indices [  8  8  0  ]
Reciprocal space sums over 81 terms with max indices [  4  4  0  ]

---------- Allocating electronic variables ----------
Initializing wave functions:  linear combination of atomic orbitals
Note: number of bands (6) exceeds available atomic orbitals (5)
K pseudo-atom occupations:   s ( 2 1 )  p ( 6 )
[d-16-6-2:30611] 18 more processes have sent help message help-mpi-common-cuda.txt / dlopen failed
[d-16-6-2:30611] Set MCA parameter "orte_base_help_aggregate" to 0 to see all help / error messages
[d-16-6-2:30611] 18 more processes have sent help message help-mpi-btl-openib-cpc-base.txt / no cpcs for port
	FillingsUpdate:  mu: -0.085761234  nElectrons: 9.000000  magneticMoment: [ Abs: 0.62000  Tot: -0.62000 ]
LCAOMinimize: Iter:   0  F: -28.3789220642340894  |grad|_K:  2.599e-06  alpha:  1.000e+00
	FillingsUpdate:  mu: -0.085760674  nElectrons: 9.000000  magneticMoment: [ Abs: 0.62000  Tot: -0.62000 ]
LCAOMinimize: Iter:   1  F: -28.3789220688136901  |grad|_K:  1.269e-08  alpha:  9.911e-01  linmin: -1.519e-03  cgtest:  1.082e-01  t[s]:     14.88
LCAOMinimize: Encountered beta<0, resetting CG.
LCAOMinimize: 	Wrong curvature in test step, increasing alphaT to 2.973436e+00.
	FillingsUpdate:  mu: -0.085760674  nElectrons: 9.000000  magneticMoment: [ Abs: 0.62000  Tot: -0.62000 ]
LCAOMinimize: Iter:   2  F: -28.3789220688142549  |grad|_K:  1.084e-10  alpha: -3.142e-01  linmin: -1.495e-02  cgtest:  8.759e-01  t[s]:     18.78
LCAOMinimize: Encountered beta<0, resetting CG.
LCAOMinimize: Converged (|Delta F|<1.000000e-06 for 2 iters).


---- Citations for features of the code used in this run ----

   Software package:
      R. Sundararaman, K. Letchworth-Weaver, K.A. Schwarz, D. Gunceler, Y. Ozhabes and T.A. Arias, 'JDFTx: software for joint density-functional theory', SoftwareX 6, 278 (2017)

   gga-PBE exchange-correlation functional:
      J.P. Perdew, K. Burke and M. Ernzerhof, Phys. Rev. Lett. 77, 3865 (1996)

   Pseudopotentials:
      M Schlipf and F Gygi, Comput. Phys. Commun. 196, 36 (2015)

   Truncated Coulomb potentials:
      R. Sundararaman and T.A. Arias, Phys. Rev. B 87, 165122 (2013)

This list may not be complete. Please suggest additional citations or
report any other bugs at https://github.com/shankar1729/jdftx/issues

Initialization completed successfully at t[s]:     19.03


-------- Electronic minimization -----------
Will mix electronic density at each iteration.
	FillingsUpdate:  mu: -0.085760674  nElectrons: 9.000000  magneticMoment: [ Abs: 0.62000  Tot: -0.62000 ]
	FillingsUpdate:  mu: -0.085858581  nElectrons: 9.000000  magneticMoment: [ Abs: 0.62000  Tot: -0.62000 ]
SCF: Cycle:  0   F: -28.379010048666142   dF: -8.798e-05   |Residual|: 1.349e-03   |deigs|: 1.709e-01  t[s]:     27.07
	FillingsUpdate:  mu: -0.085870235  nElectrons: 9.000000  magneticMoment: [ Abs: 0.62115  Tot: -0.62000 ]
SCF: Cycle:  1   F: -28.379011323106390   dF: -1.274e-06   |Residual|: 3.423e-04   |deigs|: 9.716e-03  t[s]:     33.47
	FillingsUpdate:  mu: -0.085848185  nElectrons: 9.000000  magneticMoment: [ Abs: 0.62123  Tot: -0.62000 ]
SCF: Cycle:  2   F: -28.379011626450669   dF: -3.033e-07   |Residual|: 1.913e-04   |deigs|: 1.267e-03  t[s]:     39.94
	FillingsUpdate:  mu: -0.085837365  nElectrons: 9.000000  magneticMoment: [ Abs: 0.62144  Tot: -0.62000 ]
SCF: Cycle:  3   F: -28.379011815873213   dF: -1.894e-07   |Residual|: 1.386e-04   |deigs|: 9.342e-04  t[s]:     46.45
	FillingsUpdate:  mu: -0.085805976  nElectrons: 9.000000  magneticMoment: [ Abs: 0.62140  Tot: -0.62000 ]
SCF: Cycle:  4   F: -28.379011972619033   dF: -1.567e-07   |Residual|: 1.035e-04   |deigs|: 1.823e-04  t[s]:     53.09
	FillingsUpdate:  mu: -0.085765702  nElectrons: 9.000000  magneticMoment: [ Abs: 0.62144  Tot: -0.62000 ]
SCF: Cycle:  5   F: -28.379012067897438   dF: -9.528e-08   |Residual|: 7.025e-05   |deigs|: 3.238e-04  t[s]:     59.88
	FillingsUpdate:  mu: -0.085727815  nElectrons: 9.000000  magneticMoment: [ Abs: 0.62139  Tot: -0.62000 ]
SCF: Cycle:  6   F: -28.379012121506026   dF: -5.361e-08   |Residual|: 5.299e-05   |deigs|: 4.461e-04  t[s]:     66.72
	FillingsUpdate:  mu: -0.085705381  nElectrons: 9.000000  magneticMoment: [ Abs: 0.62140  Tot: -0.62000 ]
SCF: Cycle:  7   F: -28.379012171917150   dF: -5.041e-08   |Residual|: 4.358e-05   |deigs|: 4.831e-04  t[s]:     73.68
	FillingsUpdate:  mu: -0.085689753  nElectrons: 9.000000  magneticMoment: [ Abs: 0.62140  Tot: -0.62000 ]
SCF: Cycle:  8   F: -28.379012208241075   dF: -3.632e-08   |Residual|: 3.756e-05   |deigs|: 3.130e-04  t[s]:     80.76
	FillingsUpdate:  mu: -0.085670069  nElectrons: 9.000000  magneticMoment: [ Abs: 0.62140  Tot: -0.62000 ]
SCF: Cycle:  9   F: -28.379012234030814   dF: -2.579e-08   |Residual|: 2.981e-05   |deigs|: 1.440e-04  t[s]:     87.98
	FillingsUpdate:  mu: -0.085658544  nElectrons: 9.000000  magneticMoment: [ Abs: 0.62141  Tot: -0.62000 ]
SCF: Cycle: 10   F: -28.379012233387179   dF: +6.436e-10   |Residual|: 2.497e-05   |deigs|: 1.044e-04  t[s]:     95.29
	FillingsUpdate:  mu: -0.085644522  nElectrons: 9.000000  magneticMoment: [ Abs: 0.62145  Tot: -0.62000 ]
SCF: Cycle: 11   F: -28.379012210305397   dF: +2.308e-08   |Residual|: 2.210e-05   |deigs|: 6.755e-05  t[s]:    102.67
	FillingsUpdate:  mu: -0.085625037  nElectrons: 9.000000  magneticMoment: [ Abs: 0.62151  Tot: -0.62000 ]
SCF: Cycle: 12   F: -28.379012017875031   dF: +1.924e-07   |Residual|: 2.004e-05   |deigs|: 7.114e-05  t[s]:    109.98
	FillingsUpdate:  mu: -0.085602335  nElectrons: 9.000000  magneticMoment: [ Abs: 0.62154  Tot: -0.62000 ]
SCF: Cycle: 13   F: -28.379012100730478   dF: -8.286e-08   |Residual|: 1.943e-05   |deigs|: 8.471e-05  t[s]:    116.97
	FillingsUpdate:  mu: -0.085572426  nElectrons: 9.000000  magneticMoment: [ Abs: 0.62157  Tot: -0.62000 ]
SCF: Cycle: 14   F: -28.379012101901989   dF: -1.172e-09   |Residual|: 1.891e-05   |deigs|: 7.208e-05  t[s]:    124.17
	FillingsUpdate:  mu: -0.085534850  nElectrons: 9.000000  magneticMoment: [ Abs: 0.62156  Tot: -0.62000 ]
SCF: Cycle: 15   F: -28.379012146699342   dF: -4.480e-08   |Residual|: 1.673e-05   |deigs|: 6.546e-05  t[s]:    131.43
	FillingsUpdate:  mu: -0.085506905  nElectrons: 9.000000  magneticMoment: [ Abs: 0.62148  Tot: -0.62000 ]
SCF: Cycle: 16   F: -28.379012203806994   dF: -5.711e-08   |Residual|: 1.412e-05   |deigs|: 4.555e-05  t[s]:    138.72
	FillingsUpdate:  mu: -0.085503114  nElectrons: 9.000000  magneticMoment: [ Abs: 0.62145  Tot: -0.62000 ]
SCF: Cycle: 17   F: -28.379012198071965   dF: +5.735e-09   |Residual|: 1.097e-05   |deigs|: 2.171e-05  t[s]:    145.94
	FillingsUpdate:  mu: -0.085497522  nElectrons: 9.000000  magneticMoment: [ Abs: 0.62144  Tot: -0.62000 ]
SCF: Cycle: 18   F: -28.379012243082734   dF: -4.501e-08   |Residual|: 6.651e-06   |deigs|: 1.651e-05  t[s]:    153.30
	FillingsUpdate:  mu: -0.085492417  nElectrons: 9.000000  magneticMoment: [ Abs: 0.62141  Tot: -0.62000 ]
SCF: Cycle: 19   F: -28.379012271149602   dF: -2.807e-08   |Residual|: 4.582e-06   |deigs|: 8.339e-06  t[s]:    160.02
	FillingsUpdate:  mu: -0.085491026  nElectrons: 9.000000  magneticMoment: [ Abs: 0.62141  Tot: -0.62000 ]
SCF: Cycle: 20   F: -28.379012303092889   dF: -3.194e-08   |Residual|: 3.103e-06   |deigs|: 3.607e-06  t[s]:    167.11
	FillingsUpdate:  mu: -0.085492761  nElectrons: 9.000000  magneticMoment: [ Abs: 0.62141  Tot: -0.62000 ]
SCF: Cycle: 21   F: -28.379012304875666   dF: -1.783e-09   |Residual|: 2.530e-06   |deigs|: 3.896e-06  t[s]:    173.64
	FillingsUpdate:  mu: -0.085493584  nElectrons: 9.000000  magneticMoment: [ Abs: 0.62141  Tot: -0.62000 ]
SCF: Cycle: 22   F: -28.379012303335628   dF: +1.540e-09   |Residual|: 1.830e-06   |deigs|: 3.575e-06  t[s]:    180.81
	FillingsUpdate:  mu: -0.085493924  nElectrons: 9.000000  magneticMoment: [ Abs: 0.62141  Tot: -0.62000 ]
SCF: Cycle: 23   F: -28.379012306440920   dF: -3.105e-09   |Residual|: 1.189e-06   |deigs|: 3.172e-06  t[s]:    187.63
	FillingsUpdate:  mu: -0.085493821  nElectrons: 9.000000  magneticMoment: [ Abs: 0.62141  Tot: -0.62000 ]
SCF: Cycle: 24   F: -28.379012307563908   dF: -1.123e-09   |Residual|: 9.097e-07   |deigs|: 3.795e-06  t[s]:    194.37
SCF: Converged (|Delta E|<1.000000e-08 for 2 iters).


# Ionic positions in lattice coordinates:
ion K   0.000000000000000   0.000000000000000   0.000000000000000 0

# Forces in Lattice coordinates:
force K  -0.000000000000000   0.000000000000000   0.000000000000000 0

# Energy components:
   Eewald =       -9.0240130501663280
       EH =       13.7736685286082636
     Eloc =      -35.9838702048673582
      Enl =       -2.7670225539052629
   Epulay =        0.0000000066859396
      Exc =       -4.2423119014571107
       KE =        9.8645384723778768
-------------------------------------
     Etot =      -28.3790107027239848
       TS =        0.0000016048399232
-------------------------------------
        F =      -28.3790123075639080

IonicMinimize: Iter:   0  F: -28.379012307563908  |grad|_K:  0.000e+00  t[s]:    194.77
IonicMinimize: Converged (|grad|_K<1.000000e-04).

#--- Lowdin population analysis ---
# oxidation-state K +0.001
# magnetic-moments K -0.620

End date and time: Sat Feb  5 23:36:19 2022  (Duration: 0-0:03:14.84)
Done!
