The alkali metal is K
scale=2
magnetization=-0.96
--------------------------------------------------------------------------
The library attempted to open the following supporting CUDA libraries,
but each of them failed.  CUDA-aware support is disabled.
libcuda.so.1: cannot open shared object file: No such file or directory
libcuda.dylib: cannot open shared object file: No such file or directory
/usr/lib64/libcuda.so.1: cannot open shared object file: No such file or directory
/usr/lib64/libcuda.dylib: cannot open shared object file: No such file or directory
If you are not interested in CUDA-aware support, then run with
--mca opal_warn_on_missing_libcuda 0 to suppress this message.  If you are interested
in CUDA-aware support, then try setting LD_LIBRARY_PATH to the location
of libcuda.so.1 to get passed this issue.
--------------------------------------------------------------------------
--------------------------------------------------------------------------
No OpenFabrics connection schemes reported that they were able to be
used on a specific port.  As such, the openib BTL (OpenFabrics
support) will be disabled for this port.

  Local host:           d-3-7-3
  Local device:         mlx5_1
  Local port:           1
  CPCs attempted:       rdmacm, udcm
--------------------------------------------------------------------------

*************** JDFTx 1.6.0 (git hash 42ebbcc2) ***************

Start date and time: Sat Feb  5 23:30:08 2022
Executable jdftx with command-line: -i Alkali.in
Running on hosts (process indices):  d-3-7-3 (0-18)
Divided in process groups (process indices):  0 (0)  1 (1)  2 (2)  3 (3)  4 (4)  5 (5)  6 (6)  7 (7)  8 (8)  9 (9)  10 (10)  11 (11)  12 (12)  13 (13)  14 (14)  15 (15)  16 (16)  17 (17)  18 (18)
Resource initialization completed at t[s]:      0.00
Run totals: 19 processes, 48 threads, 0 GPUs


Input parsed successfully to the following command list (including defaults):

basis kpoint-dependent
coords-type Lattice
core-overlap-check vector
coulomb-interaction Slab 001
davidson-band-ratio 1.1
dump End None
dump-name $INPUT.$VAR
elec-cutoff 20
elec-eigen-algo Davidson
elec-ex-corr gga-PBE
elec-initial-magnetization -0.960000 yes
elec-smearing Fermi 1e-05
electronic-minimize  \
	dirUpdateScheme      FletcherReeves \
	linminMethod         DirUpdateRecommended \
	nIterations          100 \
	history              15 \
	knormThreshold       0 \
	energyDiffThreshold  1e-08 \
	nEnergyDiff          2 \
	alphaTstart          1 \
	alphaTmin            1e-10 \
	updateTestStepSize   yes \
	alphaTreduceFactor   0.1 \
	alphaTincreaseFactor 3 \
	nAlphaAdjustMax      3 \
	wolfeEnergy          0.0001 \
	wolfeGradient        0.9 \
	fdTest               no
electronic-scf  \
	nIterations	10000 \
	energyDiffThreshold	1e-08 \
	residualThreshold	1e-07 \
	mixFraction	0.5 \
	qMetric	0.8 \
	history	10 \
	nEigSteps	2 \
	eigDiffThreshold	1e-08 \
	mixedVariable	Density \
	qKerker	0.8 \
	qKappa	-1 \
	verbose	no \
	mixFractionMag	1.5
exchange-regularization WignerSeitzTruncated
fluid None
fluid-ex-corr (null) lda-PZ
fluid-gummel-loop 10 1.000000e-05
fluid-minimize  \
	dirUpdateScheme      PolakRibiere \
	linminMethod         DirUpdateRecommended \
	nIterations          100 \
	history              15 \
	knormThreshold       0 \
	energyDiffThreshold  0 \
	nEnergyDiff          2 \
	alphaTstart          1 \
	alphaTmin            1e-10 \
	updateTestStepSize   yes \
	alphaTreduceFactor   0.1 \
	alphaTincreaseFactor 3 \
	nAlphaAdjustMax      3 \
	wolfeEnergy          0.0001 \
	wolfeGradient        0.9 \
	fdTest               no
fluid-solvent H2O 55.338 ScalarEOS \
	epsBulk 78.4 \
	pMol 0.92466 \
	epsInf 1.77 \
	Pvap 1.06736e-10 \
	sigmaBulk 4.62e-05 \
	Rvdw 2.61727 \
	Res 1.42 \
	tauNuc 343133 \
	poleEl 15 7 1
forces-output-coords Positions
ion K   0.000000000000000   0.000000000000000   0.000000000000000 0
ion-species SG15/$ID_ONCV_PBE.upf
ion-width 0
ionic-minimize  \
	dirUpdateScheme      L-BFGS \
	linminMethod         DirUpdateRecommended \
	nIterations          0 \
	history              15 \
	knormThreshold       0.0001 \
	energyDiffThreshold  1e-06 \
	nEnergyDiff          2 \
	alphaTstart          1 \
	alphaTmin            1e-10 \
	updateTestStepSize   yes \
	alphaTreduceFactor   0.1 \
	alphaTincreaseFactor 3 \
	nAlphaAdjustMax      3 \
	wolfeEnergy          0.0001 \
	wolfeGradient        0.9 \
	fdTest               no
kpoint   0.000000000000   0.000000000000   0.000000000000  1.00000000000000
kpoint-folding 12 12 1 
latt-move-scale 1 1 1
latt-scale 2 2 1 
lattice  \
	   4.727486978767153   -2.363743489383575    0.000000000000000  \
	  -0.000000000000000    4.094123819672498    0.000000000000000  \
	   0.000000000000000    0.000000000000000   40.000000000000000 
lattice-minimize  \
	dirUpdateScheme      L-BFGS \
	linminMethod         DirUpdateRecommended \
	nIterations          0 \
	history              15 \
	knormThreshold       0 \
	energyDiffThreshold  1e-06 \
	nEnergyDiff          2 \
	alphaTstart          1 \
	alphaTmin            1e-10 \
	updateTestStepSize   yes \
	alphaTreduceFactor   0.1 \
	alphaTincreaseFactor 3 \
	nAlphaAdjustMax      3 \
	wolfeEnergy          0.0001 \
	wolfeGradient        0.9 \
	fdTest               no
lcao-params -1 1e-06 1e-05
pcm-variant GLSSA13
spintype z-spin
subspace-rotation-factor 1 yes
symmetries automatic
symmetry-threshold 0.0001



---------- Setting up symmetries ----------

Found 24 point-group symmetries of the bravais lattice
Found 24 space-group symmetries with basis
Applied RMS atom displacement 0 bohrs to make symmetries exact.

---------- Initializing the Grid ----------
R = 
[      9.45497     -4.72749            0  ]
[            0      8.18825            0  ]
[            0            0           40  ]
unit cell volume = 3096.79
G =
[   0.664538   0.383671         -0  ]
[          0   0.767342         -0  ]
[         -0         -0    0.15708  ]
Minimum fftbox size, Smin = [  40  40  164  ]
Chosen fftbox size, S = [  40  40  168  ]

---------- Exchange Correlation functional ----------
Initalized PBE GGA exchange.
Initalized PBE GGA correlation.

---------- Setting up pseudopotentials ----------
Width of ionic core gaussian charges (only for fluid interactions / plotting) set to 0

Reading pseudopotential file '/home/gridsan/aligho/DFT/build-Nov24/pseudopotentials/SG15/K_ONCV_PBE.upf':
  'K' pseudopotential, 'PBE' functional
  Generated using ONCVPSP code by D. R. Hamann
  Author: Martin Schlipf and Francois Gygi  Date: 150915.
  9 valence electrons, 3 orbitals, 6 projectors, 2222 radial grid points, with lMax = 2
  Transforming local potential to a uniform radial grid of dG=0.02 with 1489 points.
  Transforming nonlocal projectors to a uniform radial grid of dG=0.02 with 432 points.
    3S    l: 0   occupation:  2.0   eigenvalue: -1.298836
    3P    l: 1   occupation:  6.0   eigenvalue: -0.691386
    4S    l: 0   occupation:  1.0   eigenvalue: -0.085223
  Transforming atomic orbitals to a uniform radial grid of dG=0.02 with 432 points.
  Core radius for overlap checks: 2.06 bohrs.
  Reading pulay file /home/gridsan/aligho/DFT/build-Nov24/pseudopotentials/SG15/K_ONCV_PBE.pulay ... using dE_dnG = -1.597219e-05 computed for Ecut = 20.

Initialized 1 species with 1 total atoms.

Folded 1 k-points by 12x12x1 to 144 k-points.

---------- Setting up k-points, bands, fillings ----------
Reduced to 19 k-points under symmetry. 
Computing the number of bands and number of electrons
Calculating initial fillings.
nElectrons:   9.000000   nBands: 6   nStates: 38

----- Setting up reduced wavefunction bases (one per k-point) -----
average nbasis = 13230.521 , ideal nbasis = 13229.709

---------- Setting up coulomb interaction ----------
Initialized slab truncation along lattice direction 001

---------- Setting up 2D ewald sum ----------
Optimum gaussian width for ewald sums = 5.249020 bohr.
Real space sums over 289 unit cells with max indices [  8  8  0  ]
Reciprocal space sums over 81 terms with max indices [  4  4  0  ]

---------- Allocating electronic variables ----------
Initializing wave functions:  linear combination of atomic orbitals
Note: number of bands (6) exceeds available atomic orbitals (5)
K pseudo-atom occupations:   s ( 2 1 )  p ( 6 )
	FillingsUpdate:  mu: -0.094380781  nElectrons: 9.000000  magneticMoment: [ Abs: 0.96000  Tot: -0.96000 ]
LCAOMinimize: Iter:   0  F: -28.3787196293817310  |grad|_K:  3.534e-06  alpha:  1.000e+00
[d-3-7-3:40272] 18 more processes have sent help message help-mpi-common-cuda.txt / dlopen failed
[d-3-7-3:40272] Set MCA parameter "orte_base_help_aggregate" to 0 to see all help / error messages
[d-3-7-3:40272] 18 more processes have sent help message help-mpi-btl-openib-cpc-base.txt / no cpcs for port
	FillingsUpdate:  mu: -0.094379971  nElectrons: 9.000000  magneticMoment: [ Abs: 0.96000  Tot: -0.96000 ]
LCAOMinimize: Iter:   1  F: -28.3787196378370403  |grad|_K:  3.103e-08  alpha:  9.895e-01  linmin: -1.801e-03  cgtest:  5.014e-02  t[s]:      4.85
LCAOMinimize: Encountered beta<0, resetting CG.
	FillingsUpdate:  mu: -0.094380002  nElectrons: 9.000000  magneticMoment: [ Abs: 0.96000  Tot: -0.96000 ]
LCAOMinimize: Iter:   2  F: -28.3787196378371931  |grad|_K:  3.802e-08  alpha:  2.214e+00  linmin:  5.025e-02  cgtest: -9.999e-01  t[s]:      6.09
LCAOMinimize: Converged (|Delta F|<1.000000e-06 for 2 iters).


---- Citations for features of the code used in this run ----

   Software package:
      R. Sundararaman, K. Letchworth-Weaver, K.A. Schwarz, D. Gunceler, Y. Ozhabes and T.A. Arias, 'JDFTx: software for joint density-functional theory', SoftwareX 6, 278 (2017)

   gga-PBE exchange-correlation functional:
      J.P. Perdew, K. Burke and M. Ernzerhof, Phys. Rev. Lett. 77, 3865 (1996)

   Pseudopotentials:
      M Schlipf and F Gygi, Comput. Phys. Commun. 196, 36 (2015)

   Truncated Coulomb potentials:
      R. Sundararaman and T.A. Arias, Phys. Rev. B 87, 165122 (2013)

This list may not be complete. Please suggest additional citations or
report any other bugs at https://github.com/shankar1729/jdftx/issues

Initialization completed successfully at t[s]:      6.18


-------- Electronic minimization -----------
Will mix electronic density at each iteration.
	FillingsUpdate:  mu: -0.094380002  nElectrons: 9.000000  magneticMoment: [ Abs: 0.96000  Tot: -0.96000 ]
	FillingsUpdate:  mu: -0.106645497  nElectrons: 9.000000  magneticMoment: [ Abs: 0.96000  Tot: -0.96000 ]
SCF: Cycle:  0   F: -28.390073395264277   dF: -1.135e-02   |Residual|: 1.766e-02   |deigs|: 1.733e-01  t[s]:      8.50
	FillingsUpdate:  mu: -0.105935805  nElectrons: 9.000000  magneticMoment: [ Abs: 0.96000  Tot: -0.96000 ]
SCF: Cycle:  1   F: -28.391058369367904   dF: -9.850e-04   |Residual|: 1.401e-02   |deigs|: 7.129e-03  t[s]:     10.30
	FillingsUpdate:  mu: -0.106402286  nElectrons: 9.000000  magneticMoment: [ Abs: 0.96195  Tot: -0.96000 ]
SCF: Cycle:  2   F: -28.391231236020381   dF: -1.729e-04   |Residual|: 8.988e-03   |deigs|: 4.654e-03  t[s]:     12.12
	FillingsUpdate:  mu: -0.105471094  nElectrons: 9.000000  magneticMoment: [ Abs: 0.96000  Tot: -0.96000 ]
SCF: Cycle:  3   F: -28.391375281704185   dF: -1.440e-04   |Residual|: 5.276e-03   |deigs|: 4.636e-03  t[s]:     13.98
	FillingsUpdate:  mu: -0.105396636  nElectrons: 9.000000  magneticMoment: [ Abs: 0.96001  Tot: -0.96000 ]
SCF: Cycle:  4   F: -28.391450098982165   dF: -7.482e-05   |Residual|: 2.619e-03   |deigs|: 2.520e-03  t[s]:     15.92
	FillingsUpdate:  mu: -0.103355292  nElectrons: 9.000000  magneticMoment: [ Abs: 0.96008  Tot: -0.96000 ]
SCF: Cycle:  5   F: -28.391483637457636   dF: -3.354e-05   |Residual|: 2.145e-03   |deigs|: 2.311e-03  t[s]:     17.88
	FillingsUpdate:  mu: -0.101335020  nElectrons: 9.000000  magneticMoment: [ Abs: 0.96320  Tot: -0.96000 ]
SCF: Cycle:  6   F: -28.391520931717572   dF: -3.729e-05   |Residual|: 1.578e-03   |deigs|: 2.887e-03  t[s]:     19.76
	FillingsUpdate:  mu: -0.100450117  nElectrons: 9.000000  magneticMoment: [ Abs: 0.96361  Tot: -0.96000 ]
SCF: Cycle:  7   F: -28.391546093743152   dF: -2.516e-05   |Residual|: 1.302e-03   |deigs|: 3.052e-03  t[s]:     21.73
	FillingsUpdate:  mu: -0.098803121  nElectrons: 9.000000  magneticMoment: [ Abs: 0.96219  Tot: -0.96000 ]
SCF: Cycle:  8   F: -28.391570280902584   dF: -2.419e-05   |Residual|: 1.009e-03   |deigs|: 1.865e-03  t[s]:     23.69
	FillingsUpdate:  mu: -0.098208224  nElectrons: 9.000000  magneticMoment: [ Abs: 0.96011  Tot: -0.96000 ]
SCF: Cycle:  9   F: -28.391585751777175   dF: -1.547e-05   |Residual|: 7.499e-04   |deigs|: 7.169e-04  t[s]:     25.67
	FillingsUpdate:  mu: -0.097325087  nElectrons: 9.000000  magneticMoment: [ Abs: 0.96145  Tot: -0.96000 ]
SCF: Cycle: 10   F: -28.391595775033377   dF: -1.002e-05   |Residual|: 6.845e-04   |deigs|: 9.177e-04  t[s]:     27.73
	FillingsUpdate:  mu: -0.096520492  nElectrons: 9.000000  magneticMoment: [ Abs: 0.96320  Tot: -0.96000 ]
SCF: Cycle: 11   F: -28.391601056770526   dF: -5.282e-06   |Residual|: 5.708e-04   |deigs|: 9.094e-04  t[s]:     29.73
	FillingsUpdate:  mu: -0.096509005  nElectrons: 9.000000  magneticMoment: [ Abs: 0.96331  Tot: -0.96000 ]
SCF: Cycle: 12   F: -28.391603786212507   dF: -2.729e-06   |Residual|: 4.909e-04   |deigs|: 7.625e-04  t[s]:     31.76
	FillingsUpdate:  mu: -0.095681074  nElectrons: 9.000000  magneticMoment: [ Abs: 0.96391  Tot: -0.96000 ]
SCF: Cycle: 13   F: -28.391607328689553   dF: -3.542e-06   |Residual|: 4.305e-04   |deigs|: 1.154e-03  t[s]:     33.78
	FillingsUpdate:  mu: -0.094070566  nElectrons: 9.000000  magneticMoment: [ Abs: 0.96328  Tot: -0.96000 ]
SCF: Cycle: 14   F: -28.391609733105103   dF: -2.404e-06   |Residual|: 4.122e-04   |deigs|: 1.789e-03  t[s]:     35.76
	FillingsUpdate:  mu: -0.092945420  nElectrons: 9.000000  magneticMoment: [ Abs: 0.96230  Tot: -0.96000 ]
SCF: Cycle: 15   F: -28.391612367588966   dF: -2.634e-06   |Residual|: 3.721e-04   |deigs|: 1.079e-03  t[s]:     37.78
	FillingsUpdate:  mu: -0.091418541  nElectrons: 9.000000  magneticMoment: [ Abs: 0.96157  Tot: -0.96000 ]
SCF: Cycle: 16   F: -28.391624009947318   dF: -1.164e-05   |Residual|: 4.726e-04   |deigs|: 1.382e-03  t[s]:     39.78
	FillingsUpdate:  mu: -0.092255679  nElectrons: 9.000000  magneticMoment: [ Abs: 0.96105  Tot: -0.96000 ]
SCF: Cycle: 17   F: -28.391625355157341   dF: -1.345e-06   |Residual|: 2.620e-04   |deigs|: 9.232e-04  t[s]:     41.77
	FillingsUpdate:  mu: -0.092317144  nElectrons: 9.000000  magneticMoment: [ Abs: 0.96073  Tot: -0.96000 ]
SCF: Cycle: 18   F: -28.391626625289998   dF: -1.270e-06   |Residual|: 2.394e-04   |deigs|: 5.623e-04  t[s]:     43.77
	FillingsUpdate:  mu: -0.091788246  nElectrons: 9.000000  magneticMoment: [ Abs: 0.96094  Tot: -0.96000 ]
SCF: Cycle: 19   F: -28.391627612228152   dF: -9.869e-07   |Residual|: 1.631e-04   |deigs|: 7.698e-04  t[s]:     45.77
	FillingsUpdate:  mu: -0.091360949  nElectrons: 9.000000  magneticMoment: [ Abs: 0.96143  Tot: -0.96000 ]
SCF: Cycle: 20   F: -28.391628174472622   dF: -5.622e-07   |Residual|: 9.294e-05   |deigs|: 5.160e-04  t[s]:     47.77
	FillingsUpdate:  mu: -0.091275888  nElectrons: 9.000000  magneticMoment: [ Abs: 0.96125  Tot: -0.96000 ]
SCF: Cycle: 21   F: -28.391628443526947   dF: -2.691e-07   |Residual|: 6.211e-05   |deigs|: 4.207e-04  t[s]:     49.79
	FillingsUpdate:  mu: -0.091398745  nElectrons: 9.000000  magneticMoment: [ Abs: 0.96108  Tot: -0.96000 ]
SCF: Cycle: 22   F: -28.391628613575339   dF: -1.700e-07   |Residual|: 3.658e-05   |deigs|: 3.529e-04  t[s]:     51.78
	FillingsUpdate:  mu: -0.091529449  nElectrons: 9.000000  magneticMoment: [ Abs: 0.96078  Tot: -0.96000 ]
SCF: Cycle: 23   F: -28.391628731104557   dF: -1.175e-07   |Residual|: 3.582e-05   |deigs|: 1.617e-04  t[s]:     53.76
	FillingsUpdate:  mu: -0.091498079  nElectrons: 9.000000  magneticMoment: [ Abs: 0.96043  Tot: -0.96000 ]
SCF: Cycle: 24   F: -28.391628798190776   dF: -6.709e-08   |Residual|: 3.116e-05   |deigs|: 6.046e-05  t[s]:     55.79
	FillingsUpdate:  mu: -0.091458310  nElectrons: 9.000000  magneticMoment: [ Abs: 0.96026  Tot: -0.96000 ]
SCF: Cycle: 25   F: -28.391628891579398   dF: -9.339e-08   |Residual|: 2.291e-05   |deigs|: 6.481e-05  t[s]:     57.80
	FillingsUpdate:  mu: -0.091433445  nElectrons: 9.000000  magneticMoment: [ Abs: 0.96010  Tot: -0.96000 ]
SCF: Cycle: 26   F: -28.391628941254222   dF: -4.967e-08   |Residual|: 1.552e-05   |deigs|: 4.038e-05  t[s]:     59.77
	FillingsUpdate:  mu: -0.091446710  nElectrons: 9.000000  magneticMoment: [ Abs: 0.96007  Tot: -0.96000 ]
SCF: Cycle: 27   F: -28.391628955764720   dF: -1.451e-08   |Residual|: 9.452e-06   |deigs|: 1.693e-05  t[s]:     61.68
	FillingsUpdate:  mu: -0.091452171  nElectrons: 9.000000  magneticMoment: [ Abs: 0.96008  Tot: -0.96000 ]
SCF: Cycle: 28   F: -28.391628978424663   dF: -2.266e-08   |Residual|: 6.332e-06   |deigs|: 7.028e-06  t[s]:     63.72
	FillingsUpdate:  mu: -0.091454376  nElectrons: 9.000000  magneticMoment: [ Abs: 0.96008  Tot: -0.96000 ]
SCF: Cycle: 29   F: -28.391628985777526   dF: -7.353e-09   |Residual|: 4.899e-06   |deigs|: 5.720e-06  t[s]:     65.72
	FillingsUpdate:  mu: -0.091453381  nElectrons: 9.000000  magneticMoment: [ Abs: 0.96008  Tot: -0.96000 ]
SCF: Cycle: 30   F: -28.391628994096870   dF: -8.319e-09   |Residual|: 3.111e-06   |deigs|: 1.070e-05  t[s]:     67.70
SCF: Converged (|Delta E|<1.000000e-08 for 2 iters).


# Ionic positions in lattice coordinates:
ion K   0.000000000000000   0.000000000000000   0.000000000000000 0

# Forces in Lattice coordinates:
force K   0.000000000000000   0.000000000000000   0.000000000000000 0

# Energy components:
   Eewald =      -18.0480261003326561
       EH =        4.9031310991291246
     Eloc =      -18.0956863435107387
      Enl =       -2.7816235902722033
   Epulay =        0.0000000041876954
      Exc =       -4.2717378277897575
       KE =        9.9023142241146438
-------------------------------------
     Etot =      -28.3916285344738917
       TS =        0.0000004596229762
-------------------------------------
        F =      -28.3916289940968696

IonicMinimize: Iter:   0  F: -28.391628994096870  |grad|_K:  0.000e+00  t[s]:     67.81
IonicMinimize: Converged (|grad|_K<1.000000e-04).

#--- Lowdin population analysis ---
# oxidation-state K +0.214
# magnetic-moments K -0.748

End date and time: Sat Feb  5 23:31:16 2022  (Duration: 0-0:01:07.83)
Done!
scale=3
magnetization=-0.96
--------------------------------------------------------------------------
The library attempted to open the following supporting CUDA libraries,
but each of them failed.  CUDA-aware support is disabled.
libcuda.so.1: cannot open shared object file: No such file or directory
libcuda.dylib: cannot open shared object file: No such file or directory
/usr/lib64/libcuda.so.1: cannot open shared object file: No such file or directory
/usr/lib64/libcuda.dylib: cannot open shared object file: No such file or directory
If you are not interested in CUDA-aware support, then run with
--mca opal_warn_on_missing_libcuda 0 to suppress this message.  If you are interested
in CUDA-aware support, then try setting LD_LIBRARY_PATH to the location
of libcuda.so.1 to get passed this issue.
--------------------------------------------------------------------------
--------------------------------------------------------------------------
No OpenFabrics connection schemes reported that they were able to be
used on a specific port.  As such, the openib BTL (OpenFabrics
support) will be disabled for this port.

  Local host:           d-3-7-3
  Local device:         mlx5_1
  Local port:           1
  CPCs attempted:       rdmacm, udcm
--------------------------------------------------------------------------

*************** JDFTx 1.6.0 (git hash 42ebbcc2) ***************

Start date and time: Sat Feb  5 23:31:17 2022
Executable jdftx with command-line: -i Alkali.in
Running on hosts (process indices):  d-3-7-3 (0-18)
Divided in process groups (process indices):  0 (0)  1 (1)  2 (2)  3 (3)  4 (4)  5 (5)  6 (6)  7 (7)  8 (8)  9 (9)  10 (10)  11 (11)  12 (12)  13 (13)  14 (14)  15 (15)  16 (16)  17 (17)  18 (18)
Resource initialization completed at t[s]:      0.00
Run totals: 19 processes, 48 threads, 0 GPUs


Input parsed successfully to the following command list (including defaults):

basis kpoint-dependent
coords-type Lattice
core-overlap-check vector
coulomb-interaction Slab 001
davidson-band-ratio 1.1
dump End None
dump-name $INPUT.$VAR
elec-cutoff 20
elec-eigen-algo Davidson
elec-ex-corr gga-PBE
elec-initial-magnetization -0.960000 yes
elec-smearing Fermi 1e-05
electronic-minimize  \
	dirUpdateScheme      FletcherReeves \
	linminMethod         DirUpdateRecommended \
	nIterations          100 \
	history              15 \
	knormThreshold       0 \
	energyDiffThreshold  1e-08 \
	nEnergyDiff          2 \
	alphaTstart          1 \
	alphaTmin            1e-10 \
	updateTestStepSize   yes \
	alphaTreduceFactor   0.1 \
	alphaTincreaseFactor 3 \
	nAlphaAdjustMax      3 \
	wolfeEnergy          0.0001 \
	wolfeGradient        0.9 \
	fdTest               no
electronic-scf  \
	nIterations	10000 \
	energyDiffThreshold	1e-08 \
	residualThreshold	1e-07 \
	mixFraction	0.5 \
	qMetric	0.8 \
	history	10 \
	nEigSteps	2 \
	eigDiffThreshold	1e-08 \
	mixedVariable	Density \
	qKerker	0.8 \
	qKappa	-1 \
	verbose	no \
	mixFractionMag	1.5
exchange-regularization WignerSeitzTruncated
fluid None
fluid-ex-corr (null) lda-PZ
fluid-gummel-loop 10 1.000000e-05
fluid-minimize  \
	dirUpdateScheme      PolakRibiere \
	linminMethod         DirUpdateRecommended \
	nIterations          100 \
	history              15 \
	knormThreshold       0 \
	energyDiffThreshold  0 \
	nEnergyDiff          2 \
	alphaTstart          1 \
	alphaTmin            1e-10 \
	updateTestStepSize   yes \
	alphaTreduceFactor   0.1 \
	alphaTincreaseFactor 3 \
	nAlphaAdjustMax      3 \
	wolfeEnergy          0.0001 \
	wolfeGradient        0.9 \
	fdTest               no
fluid-solvent H2O 55.338 ScalarEOS \
	epsBulk 78.4 \
	pMol 0.92466 \
	epsInf 1.77 \
	Pvap 1.06736e-10 \
	sigmaBulk 4.62e-05 \
	Rvdw 2.61727 \
	Res 1.42 \
	tauNuc 343133 \
	poleEl 15 7 1
forces-output-coords Positions
ion K   0.000000000000000   0.000000000000000   0.000000000000000 0
ion-species SG15/$ID_ONCV_PBE.upf
ion-width 0
ionic-minimize  \
	dirUpdateScheme      L-BFGS \
	linminMethod         DirUpdateRecommended \
	nIterations          0 \
	history              15 \
	knormThreshold       0.0001 \
	energyDiffThreshold  1e-06 \
	nEnergyDiff          2 \
	alphaTstart          1 \
	alphaTmin            1e-10 \
	updateTestStepSize   yes \
	alphaTreduceFactor   0.1 \
	alphaTincreaseFactor 3 \
	nAlphaAdjustMax      3 \
	wolfeEnergy          0.0001 \
	wolfeGradient        0.9 \
	fdTest               no
kpoint   0.000000000000   0.000000000000   0.000000000000  1.00000000000000
kpoint-folding 12 12 1 
latt-move-scale 1 1 1
latt-scale 3 3 1 
lattice  \
	   4.727486978767153   -2.363743489383575    0.000000000000000  \
	  -0.000000000000000    4.094123819672498    0.000000000000000  \
	   0.000000000000000    0.000000000000000   40.000000000000000 
lattice-minimize  \
	dirUpdateScheme      L-BFGS \
	linminMethod         DirUpdateRecommended \
	nIterations          0 \
	history              15 \
	knormThreshold       0 \
	energyDiffThreshold  1e-06 \
	nEnergyDiff          2 \
	alphaTstart          1 \
	alphaTmin            1e-10 \
	updateTestStepSize   yes \
	alphaTreduceFactor   0.1 \
	alphaTincreaseFactor 3 \
	nAlphaAdjustMax      3 \
	wolfeEnergy          0.0001 \
	wolfeGradient        0.9 \
	fdTest               no
lcao-params -1 1e-06 1e-05
pcm-variant GLSSA13
spintype z-spin
subspace-rotation-factor 1 yes
symmetries automatic
symmetry-threshold 0.0001



---------- Setting up symmetries ----------

Found 24 point-group symmetries of the bravais lattice
Found 24 space-group symmetries with basis
Applied RMS atom displacement 0 bohrs to make symmetries exact.

---------- Initializing the Grid ----------
R = 
[      14.1825     -7.09123            0  ]
[            0      12.2824            0  ]
[            0            0           40  ]
unit cell volume = 6967.77
G =
[   0.443025   0.255781         -0  ]
[          0   0.511561         -0  ]
[         -0         -0    0.15708  ]
Minimum fftbox size, Smin = [  60  60  164  ]
Chosen fftbox size, S = [  60  60  168  ]

---------- Exchange Correlation functional ----------
Initalized PBE GGA exchange.
Initalized PBE GGA correlation.

---------- Setting up pseudopotentials ----------
Width of ionic core gaussian charges (only for fluid interactions / plotting) set to 0

Reading pseudopotential file '/home/gridsan/aligho/DFT/build-Nov24/pseudopotentials/SG15/K_ONCV_PBE.upf':
  'K' pseudopotential, 'PBE' functional
  Generated using ONCVPSP code by D. R. Hamann
  Author: Martin Schlipf and Francois Gygi  Date: 150915.
  9 valence electrons, 3 orbitals, 6 projectors, 2222 radial grid points, with lMax = 2
  Transforming local potential to a uniform radial grid of dG=0.02 with 1489 points.
  Transforming nonlocal projectors to a uniform radial grid of dG=0.02 with 432 points.
    3S    l: 0   occupation:  2.0   eigenvalue: -1.298836
    3P    l: 1   occupation:  6.0   eigenvalue: -0.691386
    4S    l: 0   occupation:  1.0   eigenvalue: -0.085223
  Transforming atomic orbitals to a uniform radial grid of dG=0.02 with 432 points.
  Core radius for overlap checks: 2.06 bohrs.
  Reading pulay file /home/gridsan/aligho/DFT/build-Nov24/pseudopotentials/SG15/K_ONCV_PBE.pulay ... using dE_dnG = -1.597219e-05 computed for Ecut = 20.

Initialized 1 species with 1 total atoms.

Folded 1 k-points by 12x12x1 to 144 k-points.

---------- Setting up k-points, bands, fillings ----------
Reduced to 19 k-points under symmetry. 
Computing the number of bands and number of electrons
Calculating initial fillings.
nElectrons:   9.000000   nBands: 6   nStates: 38

----- Setting up reduced wavefunction bases (one per k-point) -----
average nbasis = 29766.104 , ideal nbasis = 29766.845

---------- Setting up coulomb interaction ----------
Initialized slab truncation along lattice direction 001

---------- Setting up 2D ewald sum ----------
Optimum gaussian width for ewald sums = 7.873530 bohr.
Real space sums over 289 unit cells with max indices [  8  8  0  ]
Reciprocal space sums over 81 terms with max indices [  4  4  0  ]

---------- Allocating electronic variables ----------
Initializing wave functions:  linear combination of atomic orbitals
Note: number of bands (6) exceeds available atomic orbitals (5)
K pseudo-atom occupations:   s ( 2 1 )  p ( 6 )
[d-3-7-3:70581] 18 more processes have sent help message help-mpi-common-cuda.txt / dlopen failed
[d-3-7-3:70581] Set MCA parameter "orte_base_help_aggregate" to 0 to see all help / error messages
[d-3-7-3:70581] 18 more processes have sent help message help-mpi-btl-openib-cpc-base.txt / no cpcs for port
	FillingsUpdate:  mu: -0.085583403  nElectrons: 9.000000  magneticMoment: [ Abs: 0.96000  Tot: -0.96000 ]
LCAOMinimize: Iter:   0  F: -28.3816191401310363  |grad|_K:  2.275e-06  alpha:  1.000e+00
	FillingsUpdate:  mu: -0.085583346  nElectrons: 9.000000  magneticMoment: [ Abs: 0.96000  Tot: -0.96000 ]
LCAOMinimize: Iter:   1  F: -28.3816191436680967  |grad|_K:  9.507e-09  alpha:  9.992e-01  linmin:  5.348e-03  cgtest: -6.644e-02  t[s]:      8.69
LCAOMinimize: 	Step increased F by 9.237056e-14, reducing alpha to 1.900371e-02.
LCAOMinimize: 	Step increased F by 1.172396e-13, reducing alpha to 1.900371e-03.
LCAOMinimize: 	Step increased F by 1.634248e-13, reducing alpha to 1.900371e-04.
LCAOMinimize: 	Step failed to reduce F after 3 attempts. Quitting step.
LCAOMinimize: 	Undoing step.
LCAOMinimize: 	Step failed: resetting search direction.
	FillingsUpdate:  mu: -0.085583346  nElectrons: 9.000000  magneticMoment: [ Abs: 0.96000  Tot: -0.96000 ]
LCAOMinimize: Iter:   2  F: -28.3816191436678444  |grad|_K:  9.491e-09  alpha:  1.900e-04
	FillingsUpdate:  mu: -0.085583347  nElectrons: 9.000000  magneticMoment: [ Abs: 0.96000  Tot: -0.96000 ]
LCAOMinimize: Iter:   3  F: -28.3816191436680683  |grad|_K:  7.444e-09  alpha:  2.138e-01  linmin: -6.968e-02  cgtest:  1.000e+00  t[s]:     17.54
LCAOMinimize: Encountered beta<0, resetting CG.
LCAOMinimize: 	Step increased F by 1.776357e-14, reducing alpha to 1.624966e-02.
LCAOMinimize: 	Step increased F by 1.136868e-13, reducing alpha to 1.624966e-03.
LCAOMinimize: 	Step increased F by 5.684342e-14, reducing alpha to 1.624966e-04.
LCAOMinimize: 	Step failed to reduce F after 3 attempts. Quitting step.
LCAOMinimize: 	Undoing step.
LCAOMinimize: 	Step failed along negative gradient direction.
LCAOMinimize: Probably at roundoff error limit. (Stopping)


---- Citations for features of the code used in this run ----

   Software package:
      R. Sundararaman, K. Letchworth-Weaver, K.A. Schwarz, D. Gunceler, Y. Ozhabes and T.A. Arias, 'JDFTx: software for joint density-functional theory', SoftwareX 6, 278 (2017)

   gga-PBE exchange-correlation functional:
      J.P. Perdew, K. Burke and M. Ernzerhof, Phys. Rev. Lett. 77, 3865 (1996)

   Pseudopotentials:
      M Schlipf and F Gygi, Comput. Phys. Commun. 196, 36 (2015)

   Truncated Coulomb potentials:
      R. Sundararaman and T.A. Arias, Phys. Rev. B 87, 165122 (2013)

This list may not be complete. Please suggest additional citations or
report any other bugs at https://github.com/shankar1729/jdftx/issues

Initialization completed successfully at t[s]:     24.00


-------- Electronic minimization -----------
Will mix electronic density at each iteration.
	FillingsUpdate:  mu: -0.085583347  nElectrons: 9.000000  magneticMoment: [ Abs: 0.96000  Tot: -0.96000 ]
	FillingsUpdate:  mu: -0.086177382  nElectrons: 9.000000  magneticMoment: [ Abs: 0.96000  Tot: -0.96000 ]
SCF: Cycle:  0   F: -28.382490899034977   dF: -8.718e-04   |Residual|: 2.893e-03   |deigs|: 1.725e-01  t[s]:     28.79
	FillingsUpdate:  mu: -0.085767740  nElectrons: 9.000000  magneticMoment: [ Abs: 0.96136  Tot: -0.96000 ]
SCF: Cycle:  1   F: -28.382509368377910   dF: -1.847e-05   |Residual|: 1.506e-03   |deigs|: 5.194e-03  t[s]:     32.51
	FillingsUpdate:  mu: -0.085326932  nElectrons: 9.000000  magneticMoment: [ Abs: 0.96203  Tot: -0.96000 ]
SCF: Cycle:  2   F: -28.382518480972294   dF: -9.113e-06   |Residual|: 1.197e-03   |deigs|: 4.059e-03  t[s]:     36.21
	FillingsUpdate:  mu: -0.085317201  nElectrons: 9.000000  magneticMoment: [ Abs: 0.96259  Tot: -0.96000 ]
SCF: Cycle:  3   F: -28.382530832424013   dF: -1.235e-05   |Residual|: 9.030e-04   |deigs|: 1.467e-03  t[s]:     40.01
	FillingsUpdate:  mu: -0.085688541  nElectrons: 9.000000  magneticMoment: [ Abs: 0.96220  Tot: -0.96000 ]
SCF: Cycle:  4   F: -28.382542785068228   dF: -1.195e-05   |Residual|: 6.397e-04   |deigs|: 1.071e-03  t[s]:     43.82
	FillingsUpdate:  mu: -0.086348113  nElectrons: 9.000000  magneticMoment: [ Abs: 0.96233  Tot: -0.96000 ]
SCF: Cycle:  5   F: -28.382553518152157   dF: -1.073e-05   |Residual|: 3.675e-04   |deigs|: 9.158e-04  t[s]:     47.70
	FillingsUpdate:  mu: -0.086694113  nElectrons: 9.000000  magneticMoment: [ Abs: 0.96204  Tot: -0.96000 ]
SCF: Cycle:  6   F: -28.382558766012956   dF: -5.248e-06   |Residual|: 2.580e-04   |deigs|: 1.922e-03  t[s]:     51.68
	FillingsUpdate:  mu: -0.086450178  nElectrons: 9.000000  magneticMoment: [ Abs: 0.96234  Tot: -0.96000 ]
SCF: Cycle:  7   F: -28.382560418129334   dF: -1.652e-06   |Residual|: 2.102e-04   |deigs|: 5.125e-04  t[s]:     55.72
	FillingsUpdate:  mu: -0.086180867  nElectrons: 9.000000  magneticMoment: [ Abs: 0.96247  Tot: -0.96000 ]
SCF: Cycle:  8   F: -28.382562346381285   dF: -1.928e-06   |Residual|: 1.540e-04   |deigs|: 3.922e-04  t[s]:     59.85
	FillingsUpdate:  mu: -0.086046256  nElectrons: 9.000000  magneticMoment: [ Abs: 0.96268  Tot: -0.96000 ]
SCF: Cycle:  9   F: -28.382562818070106   dF: -4.717e-07   |Residual|: 1.503e-04   |deigs|: 2.311e-04  t[s]:     64.01
	FillingsUpdate:  mu: -0.086042824  nElectrons: 9.000000  magneticMoment: [ Abs: 0.96241  Tot: -0.96000 ]
SCF: Cycle: 10   F: -28.382563532705181   dF: -7.146e-07   |Residual|: 1.199e-04   |deigs|: 2.590e-04  t[s]:     68.30
	FillingsUpdate:  mu: -0.086070484  nElectrons: 9.000000  magneticMoment: [ Abs: 0.96324  Tot: -0.96000 ]
SCF: Cycle: 11   F: -28.382562691183523   dF: +8.415e-07   |Residual|: 1.006e-04   |deigs|: 1.839e-04  t[s]:     72.56
	FillingsUpdate:  mu: -0.086127252  nElectrons: 9.000000  magneticMoment: [ Abs: 0.96281  Tot: -0.96000 ]
SCF: Cycle: 12   F: -28.382564212070246   dF: -1.521e-06   |Residual|: 7.790e-05   |deigs|: 1.895e-04  t[s]:     76.82
	FillingsUpdate:  mu: -0.086074141  nElectrons: 9.000000  magneticMoment: [ Abs: 0.96296  Tot: -0.96000 ]
SCF: Cycle: 13   F: -28.382565046774939   dF: -8.347e-07   |Residual|: 8.235e-05   |deigs|: 1.774e-04  t[s]:     80.99
	FillingsUpdate:  mu: -0.085941551  nElectrons: 9.000000  magneticMoment: [ Abs: 0.96299  Tot: -0.96000 ]
SCF: Cycle: 14   F: -28.382565072708587   dF: -2.593e-08   |Residual|: 8.617e-05   |deigs|: 2.839e-04  t[s]:     85.14
	FillingsUpdate:  mu: -0.085698287  nElectrons: 9.000000  magneticMoment: [ Abs: 0.96280  Tot: -0.96000 ]
SCF: Cycle: 15   F: -28.382565032991288   dF: +3.972e-08   |Residual|: 6.698e-05   |deigs|: 3.459e-04  t[s]:     89.39
	FillingsUpdate:  mu: -0.085558176  nElectrons: 9.000000  magneticMoment: [ Abs: 0.96265  Tot: -0.96000 ]
SCF: Cycle: 16   F: -28.382565187302678   dF: -1.543e-07   |Residual|: 5.699e-05   |deigs|: 1.901e-04  t[s]:     93.68
	FillingsUpdate:  mu: -0.085486954  nElectrons: 9.000000  magneticMoment: [ Abs: 0.96243  Tot: -0.96000 ]
SCF: Cycle: 17   F: -28.382565419952222   dF: -2.326e-07   |Residual|: 4.957e-05   |deigs|: 9.323e-05  t[s]:     97.90
	FillingsUpdate:  mu: -0.085505814  nElectrons: 9.000000  magneticMoment: [ Abs: 0.96218  Tot: -0.96000 ]
SCF: Cycle: 18   F: -28.382565604358021   dF: -1.844e-07   |Residual|: 3.923e-05   |deigs|: 7.434e-05  t[s]:    102.16
	FillingsUpdate:  mu: -0.085495240  nElectrons: 9.000000  magneticMoment: [ Abs: 0.96226  Tot: -0.96000 ]
SCF: Cycle: 19   F: -28.382565820791967   dF: -2.164e-07   |Residual|: 2.760e-05   |deigs|: 4.221e-05  t[s]:    106.39
	FillingsUpdate:  mu: -0.085505727  nElectrons: 9.000000  magneticMoment: [ Abs: 0.96223  Tot: -0.96000 ]
SCF: Cycle: 20   F: -28.382565900320582   dF: -7.953e-08   |Residual|: 1.562e-05   |deigs|: 4.550e-05  t[s]:    110.57
	FillingsUpdate:  mu: -0.085510472  nElectrons: 9.000000  magneticMoment: [ Abs: 0.96220  Tot: -0.96000 ]
SCF: Cycle: 21   F: -28.382565928863794   dF: -2.854e-08   |Residual|: 1.102e-05   |deigs|: 1.951e-05  t[s]:    114.71
	FillingsUpdate:  mu: -0.085512495  nElectrons: 9.000000  magneticMoment: [ Abs: 0.96221  Tot: -0.96000 ]
SCF: Cycle: 22   F: -28.382565937900349   dF: -9.037e-09   |Residual|: 8.898e-06   |deigs|: 1.035e-05  t[s]:    118.92
	FillingsUpdate:  mu: -0.085514633  nElectrons: 9.000000  magneticMoment: [ Abs: 0.96223  Tot: -0.96000 ]
SCF: Cycle: 23   F: -28.382565959291245   dF: -2.139e-08   |Residual|: 5.584e-06   |deigs|: 1.393e-05  t[s]:    123.20
	FillingsUpdate:  mu: -0.085513894  nElectrons: 9.000000  magneticMoment: [ Abs: 0.96222  Tot: -0.96000 ]
SCF: Cycle: 24   F: -28.382565964373974   dF: -5.083e-09   |Residual|: 3.715e-06   |deigs|: 7.032e-06  t[s]:    127.35
	FillingsUpdate:  mu: -0.085515204  nElectrons: 9.000000  magneticMoment: [ Abs: 0.96221  Tot: -0.96000 ]
SCF: Cycle: 25   F: -28.382565970615534   dF: -6.242e-09   |Residual|: 2.969e-06   |deigs|: 4.988e-06  t[s]:    131.62
SCF: Converged (|Delta E|<1.000000e-08 for 2 iters).


# Ionic positions in lattice coordinates:
ion K   0.000000000000000   0.000000000000000   0.000000000000000 0

# Forces in Lattice coordinates:
force K   0.000000000000000  -0.000000000000000   0.000000000000000 0

# Energy components:
   Eewald =      -12.0320174002217755
       EH =       10.7763782445180691
     Eloc =      -29.9781848254995502
      Enl =       -2.7685487711579140
   Epulay =       -0.0000000016982517
      Exc =       -4.2463494796272183
       KE =        9.8661567406111423
-------------------------------------
     Etot =      -28.3825654930755071
       TS =        0.0000004775400274
-------------------------------------
        F =      -28.3825659706155342

IonicMinimize: Iter:   0  F: -28.382565970615534  |grad|_K:  0.000e+00  t[s]:    131.87
IonicMinimize: Converged (|grad|_K<1.000000e-04).

#--- Lowdin population analysis ---
# oxidation-state K +0.017
# magnetic-moments K -0.943

End date and time: Sat Feb  5 23:33:29 2022  (Duration: 0-0:02:11.91)
Done!
scale=4
magnetization=-0.96
--------------------------------------------------------------------------
The library attempted to open the following supporting CUDA libraries,
but each of them failed.  CUDA-aware support is disabled.
libcuda.so.1: cannot open shared object file: No such file or directory
libcuda.dylib: cannot open shared object file: No such file or directory
/usr/lib64/libcuda.so.1: cannot open shared object file: No such file or directory
/usr/lib64/libcuda.dylib: cannot open shared object file: No such file or directory
If you are not interested in CUDA-aware support, then run with
--mca opal_warn_on_missing_libcuda 0 to suppress this message.  If you are interested
in CUDA-aware support, then try setting LD_LIBRARY_PATH to the location
of libcuda.so.1 to get passed this issue.
--------------------------------------------------------------------------
--------------------------------------------------------------------------
No OpenFabrics connection schemes reported that they were able to be
used on a specific port.  As such, the openib BTL (OpenFabrics
support) will be disabled for this port.

  Local host:           d-3-7-3
  Local device:         mlx5_1
  Local port:           1
  CPCs attempted:       rdmacm, udcm
--------------------------------------------------------------------------

*************** JDFTx 1.6.0 (git hash 42ebbcc2) ***************

Start date and time: Sat Feb  5 23:33:30 2022
Executable jdftx with command-line: -i Alkali.in
Running on hosts (process indices):  d-3-7-3 (0-18)
Divided in process groups (process indices):  0 (0)  1 (1)  2 (2)  3 (3)  4 (4)  5 (5)  6 (6)  7 (7)  8 (8)  9 (9)  10 (10)  11 (11)  12 (12)  13 (13)  14 (14)  15 (15)  16 (16)  17 (17)  18 (18)
Resource initialization completed at t[s]:      0.00
Run totals: 19 processes, 48 threads, 0 GPUs


Input parsed successfully to the following command list (including defaults):

basis kpoint-dependent
coords-type Lattice
core-overlap-check vector
coulomb-interaction Slab 001
davidson-band-ratio 1.1
dump End None
dump-name $INPUT.$VAR
elec-cutoff 20
elec-eigen-algo Davidson
elec-ex-corr gga-PBE
elec-initial-magnetization -0.960000 yes
elec-smearing Fermi 1e-05
electronic-minimize  \
	dirUpdateScheme      FletcherReeves \
	linminMethod         DirUpdateRecommended \
	nIterations          100 \
	history              15 \
	knormThreshold       0 \
	energyDiffThreshold  1e-08 \
	nEnergyDiff          2 \
	alphaTstart          1 \
	alphaTmin            1e-10 \
	updateTestStepSize   yes \
	alphaTreduceFactor   0.1 \
	alphaTincreaseFactor 3 \
	nAlphaAdjustMax      3 \
	wolfeEnergy          0.0001 \
	wolfeGradient        0.9 \
	fdTest               no
electronic-scf  \
	nIterations	10000 \
	energyDiffThreshold	1e-08 \
	residualThreshold	1e-07 \
	mixFraction	0.5 \
	qMetric	0.8 \
	history	10 \
	nEigSteps	2 \
	eigDiffThreshold	1e-08 \
	mixedVariable	Density \
	qKerker	0.8 \
	qKappa	-1 \
	verbose	no \
	mixFractionMag	1.5
exchange-regularization WignerSeitzTruncated
fluid None
fluid-ex-corr (null) lda-PZ
fluid-gummel-loop 10 1.000000e-05
fluid-minimize  \
	dirUpdateScheme      PolakRibiere \
	linminMethod         DirUpdateRecommended \
	nIterations          100 \
	history              15 \
	knormThreshold       0 \
	energyDiffThreshold  0 \
	nEnergyDiff          2 \
	alphaTstart          1 \
	alphaTmin            1e-10 \
	updateTestStepSize   yes \
	alphaTreduceFactor   0.1 \
	alphaTincreaseFactor 3 \
	nAlphaAdjustMax      3 \
	wolfeEnergy          0.0001 \
	wolfeGradient        0.9 \
	fdTest               no
fluid-solvent H2O 55.338 ScalarEOS \
	epsBulk 78.4 \
	pMol 0.92466 \
	epsInf 1.77 \
	Pvap 1.06736e-10 \
	sigmaBulk 4.62e-05 \
	Rvdw 2.61727 \
	Res 1.42 \
	tauNuc 343133 \
	poleEl 15 7 1
forces-output-coords Positions
ion K   0.000000000000000   0.000000000000000   0.000000000000000 0
ion-species SG15/$ID_ONCV_PBE.upf
ion-width 0
ionic-minimize  \
	dirUpdateScheme      L-BFGS \
	linminMethod         DirUpdateRecommended \
	nIterations          0 \
	history              15 \
	knormThreshold       0.0001 \
	energyDiffThreshold  1e-06 \
	nEnergyDiff          2 \
	alphaTstart          1 \
	alphaTmin            1e-10 \
	updateTestStepSize   yes \
	alphaTreduceFactor   0.1 \
	alphaTincreaseFactor 3 \
	nAlphaAdjustMax      3 \
	wolfeEnergy          0.0001 \
	wolfeGradient        0.9 \
	fdTest               no
kpoint   0.000000000000   0.000000000000   0.000000000000  1.00000000000000
kpoint-folding 12 12 1 
latt-move-scale 1 1 1
latt-scale 4 4 1 
lattice  \
	   4.727486978767153   -2.363743489383575    0.000000000000000  \
	  -0.000000000000000    4.094123819672498    0.000000000000000  \
	   0.000000000000000    0.000000000000000   40.000000000000000 
lattice-minimize  \
	dirUpdateScheme      L-BFGS \
	linminMethod         DirUpdateRecommended \
	nIterations          0 \
	history              15 \
	knormThreshold       0 \
	energyDiffThreshold  1e-06 \
	nEnergyDiff          2 \
	alphaTstart          1 \
	alphaTmin            1e-10 \
	updateTestStepSize   yes \
	alphaTreduceFactor   0.1 \
	alphaTincreaseFactor 3 \
	nAlphaAdjustMax      3 \
	wolfeEnergy          0.0001 \
	wolfeGradient        0.9 \
	fdTest               no
lcao-params -1 1e-06 1e-05
pcm-variant GLSSA13
spintype z-spin
subspace-rotation-factor 1 yes
symmetries automatic
symmetry-threshold 0.0001



---------- Setting up symmetries ----------

Found 24 point-group symmetries of the bravais lattice
Found 24 space-group symmetries with basis
Applied RMS atom displacement 0 bohrs to make symmetries exact.

---------- Initializing the Grid ----------
R = 
[      18.9099     -9.45497            0  ]
[            0      16.3765            0  ]
[            0            0           40  ]
unit cell volume = 12387.1
G =
[   0.332269   0.191835         -0  ]
[          0   0.383671         -0  ]
[         -0         -0    0.15708  ]
Minimum fftbox size, Smin = [  80  80  164  ]
Chosen fftbox size, S = [  80  80  168  ]

---------- Exchange Correlation functional ----------
Initalized PBE GGA exchange.
Initalized PBE GGA correlation.

---------- Setting up pseudopotentials ----------
Width of ionic core gaussian charges (only for fluid interactions / plotting) set to 0

Reading pseudopotential file '/home/gridsan/aligho/DFT/build-Nov24/pseudopotentials/SG15/K_ONCV_PBE.upf':
  'K' pseudopotential, 'PBE' functional
  Generated using ONCVPSP code by D. R. Hamann
  Author: Martin Schlipf and Francois Gygi  Date: 150915.
  9 valence electrons, 3 orbitals, 6 projectors, 2222 radial grid points, with lMax = 2
  Transforming local potential to a uniform radial grid of dG=0.02 with 1489 points.
  Transforming nonlocal projectors to a uniform radial grid of dG=0.02 with 432 points.
    3S    l: 0   occupation:  2.0   eigenvalue: -1.298836
    3P    l: 1   occupation:  6.0   eigenvalue: -0.691386
    4S    l: 0   occupation:  1.0   eigenvalue: -0.085223
  Transforming atomic orbitals to a uniform radial grid of dG=0.02 with 432 points.
  Core radius for overlap checks: 2.06 bohrs.
  Reading pulay file /home/gridsan/aligho/DFT/build-Nov24/pseudopotentials/SG15/K_ONCV_PBE.pulay ... using dE_dnG = -1.597219e-05 computed for Ecut = 20.

Initialized 1 species with 1 total atoms.

Folded 1 k-points by 12x12x1 to 144 k-points.

---------- Setting up k-points, bands, fillings ----------
Reduced to 19 k-points under symmetry. 
Computing the number of bands and number of electrons
Calculating initial fillings.
nElectrons:   9.000000   nBands: 6   nStates: 38

----- Setting up reduced wavefunction bases (one per k-point) -----
average nbasis = 52924.021 , ideal nbasis = 52918.836

---------- Setting up coulomb interaction ----------
Initialized slab truncation along lattice direction 001

---------- Setting up 2D ewald sum ----------
Optimum gaussian width for ewald sums = 10.498040 bohr.
Real space sums over 289 unit cells with max indices [  8  8  0  ]
Reciprocal space sums over 81 terms with max indices [  4  4  0  ]

---------- Allocating electronic variables ----------
Initializing wave functions:  linear combination of atomic orbitals
Note: number of bands (6) exceeds available atomic orbitals (5)
K pseudo-atom occupations:   s ( 2 1 )  p ( 6 )
[d-3-7-3:70592] 18 more processes have sent help message help-mpi-common-cuda.txt / dlopen failed
[d-3-7-3:70592] Set MCA parameter "orte_base_help_aggregate" to 0 to see all help / error messages
[d-3-7-3:70592] 18 more processes have sent help message help-mpi-btl-openib-cpc-base.txt / no cpcs for port
	FillingsUpdate:  mu: -0.082119588  nElectrons: 9.000000  magneticMoment: [ Abs: 0.96000  Tot: -0.96000 ]
LCAOMinimize: Iter:   0  F: -28.3812577005195230  |grad|_K:  3.482e-07  alpha:  1.000e+00
	FillingsUpdate:  mu: -0.082119521  nElectrons: 9.000000  magneticMoment: [ Abs: 0.96000  Tot: -0.96000 ]
LCAOMinimize: Iter:   1  F: -28.3812577006019993  |grad|_K:  2.098e-09  alpha:  9.932e-01  linmin: -1.811e-02  cgtest:  6.427e-01  t[s]:     14.82
LCAOMinimize: Encountered beta<0, resetting CG.
LCAOMinimize: 	Wrong curvature in test step, increasing alphaT to 2.979692e+00.
	FillingsUpdate:  mu: -0.082119521  nElectrons: 9.000000  magneticMoment: [ Abs: 0.96000  Tot: -0.96000 ]
LCAOMinimize: Iter:   2  F: -28.3812577006021094  |grad|_K:  1.426e-11  alpha: -2.883e-02  linmin: -2.170e-02  cgtest:  9.242e-01  t[s]:     18.76
LCAOMinimize: Encountered beta<0, resetting CG.
LCAOMinimize: Converged (|Delta F|<1.000000e-06 for 2 iters).


---- Citations for features of the code used in this run ----

   Software package:
      R. Sundararaman, K. Letchworth-Weaver, K.A. Schwarz, D. Gunceler, Y. Ozhabes and T.A. Arias, 'JDFTx: software for joint density-functional theory', SoftwareX 6, 278 (2017)

   gga-PBE exchange-correlation functional:
      J.P. Perdew, K. Burke and M. Ernzerhof, Phys. Rev. Lett. 77, 3865 (1996)

   Pseudopotentials:
      M Schlipf and F Gygi, Comput. Phys. Commun. 196, 36 (2015)

   Truncated Coulomb potentials:
      R. Sundararaman and T.A. Arias, Phys. Rev. B 87, 165122 (2013)

This list may not be complete. Please suggest additional citations or
report any other bugs at https://github.com/shankar1729/jdftx/issues

Initialization completed successfully at t[s]:     19.01


-------- Electronic minimization -----------
Will mix electronic density at each iteration.
	FillingsUpdate:  mu: -0.082119521  nElectrons: 9.000000  magneticMoment: [ Abs: 0.96000  Tot: -0.96000 ]
	FillingsUpdate:  mu: -0.082393807  nElectrons: 9.000000  magneticMoment: [ Abs: 0.96000  Tot: -0.96000 ]
SCF: Cycle:  0   F: -28.381398980996174   dF: -1.413e-04   |Residual|: 2.228e-03   |deigs|: 1.611e-01  t[s]:     27.03
	FillingsUpdate:  mu: -0.082437176  nElectrons: 9.000000  magneticMoment: [ Abs: 0.96277  Tot: -0.96000 ]
SCF: Cycle:  1   F: -28.381401579583990   dF: -2.599e-06   |Residual|: 6.706e-04   |deigs|: 1.507e-02  t[s]:     33.34
	FillingsUpdate:  mu: -0.082288393  nElectrons: 9.000000  magneticMoment: [ Abs: 0.96245  Tot: -0.96000 ]
SCF: Cycle:  2   F: -28.381402425747638   dF: -8.462e-07   |Residual|: 4.993e-04   |deigs|: 3.547e-03  t[s]:     39.80
	FillingsUpdate:  mu: -0.082040035  nElectrons: 9.000000  magneticMoment: [ Abs: 0.96287  Tot: -0.96000 ]
SCF: Cycle:  3   F: -28.381402937146692   dF: -5.114e-07   |Residual|: 3.763e-04   |deigs|: 1.484e-03  t[s]:     46.33
	FillingsUpdate:  mu: -0.081624988  nElectrons: 9.000000  magneticMoment: [ Abs: 0.96253  Tot: -0.96000 ]
SCF: Cycle:  4   F: -28.381402169726361   dF: +7.674e-07   |Residual|: 2.190e-04   |deigs|: 8.006e-04  t[s]:     52.99
	FillingsUpdate:  mu: -0.081417597  nElectrons: 9.000000  magneticMoment: [ Abs: 0.96248  Tot: -0.96000 ]
SCF: Cycle:  5   F: -28.381402568279640   dF: -3.986e-07   |Residual|: 1.483e-04   |deigs|: 4.239e-04  t[s]:     59.80
	FillingsUpdate:  mu: -0.081297016  nElectrons: 9.000000  magneticMoment: [ Abs: 0.96251  Tot: -0.96000 ]
SCF: Cycle:  6   F: -28.381402941586551   dF: -3.733e-07   |Residual|: 9.919e-05   |deigs|: 2.624e-04  t[s]:     66.70
	FillingsUpdate:  mu: -0.081231613  nElectrons: 9.000000  magneticMoment: [ Abs: 0.96261  Tot: -0.96000 ]
SCF: Cycle:  7   F: -28.381403210764809   dF: -2.692e-07   |Residual|: 7.444e-05   |deigs|: 2.200e-04  t[s]:     73.73
	FillingsUpdate:  mu: -0.081327811  nElectrons: 9.000000  magneticMoment: [ Abs: 0.96254  Tot: -0.96000 ]
SCF: Cycle:  8   F: -28.381403661530040   dF: -4.508e-07   |Residual|: 5.746e-05   |deigs|: 1.563e-04  t[s]:     80.85
	FillingsUpdate:  mu: -0.081394507  nElectrons: 9.000000  magneticMoment: [ Abs: 0.96255  Tot: -0.96000 ]
SCF: Cycle:  9   F: -28.381403699676110   dF: -3.815e-08   |Residual|: 4.422e-05   |deigs|: 9.582e-05  t[s]:     88.04
	FillingsUpdate:  mu: -0.081393802  nElectrons: 9.000000  magneticMoment: [ Abs: 0.96261  Tot: -0.96000 ]
SCF: Cycle: 10   F: -28.381403672854397   dF: +2.682e-08   |Residual|: 3.988e-05   |deigs|: 1.132e-04  t[s]:     95.45
	FillingsUpdate:  mu: -0.081385854  nElectrons: 9.000000  magneticMoment: [ Abs: 0.96266  Tot: -0.96000 ]
SCF: Cycle: 11   F: -28.381403573834024   dF: +9.902e-08   |Residual|: 3.594e-05   |deigs|: 5.102e-05  t[s]:    102.77
	FillingsUpdate:  mu: -0.081357028  nElectrons: 9.000000  magneticMoment: [ Abs: 0.96269  Tot: -0.96000 ]
SCF: Cycle: 12   F: -28.381403684423546   dF: -1.106e-07   |Residual|: 2.824e-05   |deigs|: 1.015e-04  t[s]:    110.10
	FillingsUpdate:  mu: -0.081319320  nElectrons: 9.000000  magneticMoment: [ Abs: 0.96265  Tot: -0.96000 ]
SCF: Cycle: 13   F: -28.381403699226144   dF: -1.480e-08   |Residual|: 2.642e-05   |deigs|: 6.235e-05  t[s]:    117.45
	FillingsUpdate:  mu: -0.081267575  nElectrons: 9.000000  magneticMoment: [ Abs: 0.96266  Tot: -0.96000 ]
SCF: Cycle: 14   F: -28.381403679723203   dF: +1.950e-08   |Residual|: 2.328e-05   |deigs|: 5.334e-05  t[s]:    124.73
	FillingsUpdate:  mu: -0.081246530  nElectrons: 9.000000  magneticMoment: [ Abs: 0.96277  Tot: -0.96000 ]
SCF: Cycle: 15   F: -28.381403727003310   dF: -4.728e-08   |Residual|: 2.128e-05   |deigs|: 5.799e-05  t[s]:    132.12
	FillingsUpdate:  mu: -0.081231689  nElectrons: 9.000000  magneticMoment: [ Abs: 0.96274  Tot: -0.96000 ]
SCF: Cycle: 16   F: -28.381403775994649   dF: -4.899e-08   |Residual|: 1.934e-05   |deigs|: 5.330e-05  t[s]:    139.41
	FillingsUpdate:  mu: -0.081235345  nElectrons: 9.000000  magneticMoment: [ Abs: 0.96271  Tot: -0.96000 ]
SCF: Cycle: 17   F: -28.381403752327724   dF: +2.367e-08   |Residual|: 1.513e-05   |deigs|: 4.974e-05  t[s]:    146.76
	FillingsUpdate:  mu: -0.081234388  nElectrons: 9.000000  magneticMoment: [ Abs: 0.96269  Tot: -0.96000 ]
SCF: Cycle: 18   F: -28.381403841708636   dF: -8.938e-08   |Residual|: 1.091e-05   |deigs|: 4.386e-05  t[s]:    154.07
	FillingsUpdate:  mu: -0.081236670  nElectrons: 9.000000  magneticMoment: [ Abs: 0.96266  Tot: -0.96000 ]
SCF: Cycle: 19   F: -28.381403885537420   dF: -4.383e-08   |Residual|: 8.515e-06   |deigs|: 2.241e-05  t[s]:    161.17
	FillingsUpdate:  mu: -0.081237706  nElectrons: 9.000000  magneticMoment: [ Abs: 0.96262  Tot: -0.96000 ]
SCF: Cycle: 20   F: -28.381403890577715   dF: -5.040e-09   |Residual|: 6.908e-06   |deigs|: 2.131e-05  t[s]:    168.32
	FillingsUpdate:  mu: -0.081234640  nElectrons: 9.000000  magneticMoment: [ Abs: 0.96258  Tot: -0.96000 ]
SCF: Cycle: 21   F: -28.381403872302087   dF: +1.828e-08   |Residual|: 5.698e-06   |deigs|: 2.494e-05  t[s]:    175.66
	FillingsUpdate:  mu: -0.081230552  nElectrons: 9.000000  magneticMoment: [ Abs: 0.96256  Tot: -0.96000 ]
SCF: Cycle: 22   F: -28.381403909103284   dF: -3.680e-08   |Residual|: 3.273e-06   |deigs|: 2.612e-05  t[s]:    182.87
	FillingsUpdate:  mu: -0.081229283  nElectrons: 9.000000  magneticMoment: [ Abs: 0.96255  Tot: -0.96000 ]
SCF: Cycle: 23   F: -28.381403910343234   dF: -1.240e-09   |Residual|: 2.003e-06   |deigs|: 2.598e-05  t[s]:    189.93
	FillingsUpdate:  mu: -0.081228890  nElectrons: 9.000000  magneticMoment: [ Abs: 0.96254  Tot: -0.96000 ]
SCF: Cycle: 24   F: -28.381403917863704   dF: -7.520e-09   |Residual|: 1.491e-06   |deigs|: 2.347e-05  t[s]:    197.16
SCF: Converged (|Delta E|<1.000000e-08 for 2 iters).


# Ionic positions in lattice coordinates:
ion K   0.000000000000000   0.000000000000000   0.000000000000000 0

# Forces in Lattice coordinates:
force K  -0.000000000000000   0.000000000000000   0.000000000000000 0

# Energy components:
   Eewald =       -9.0240130501663280
       EH =       13.7971608975790190
     Eloc =      -36.0091757461732556
      Enl =       -2.7664867634842301
   Epulay =        0.0000000066859396
      Exc =       -4.2475207701546491
       KE =        9.8686319854135824
-------------------------------------
     Etot =      -28.3814034402999233
       TS =        0.0000004775637794
-------------------------------------
        F =      -28.3814039178637039

IonicMinimize: Iter:   0  F: -28.381403917863704  |grad|_K:  0.000e+00  t[s]:    197.57
IonicMinimize: Converged (|grad|_K<1.000000e-04).

#--- Lowdin population analysis ---
# oxidation-state K +0.001
# magnetic-moments K -0.959

End date and time: Sat Feb  5 23:36:47 2022  (Duration: 0-0:03:17.63)
Done!
