The alkali metal is K
scale=2
magnetization=-0.92
--------------------------------------------------------------------------
The library attempted to open the following supporting CUDA libraries,
but each of them failed.  CUDA-aware support is disabled.
libcuda.so.1: cannot open shared object file: No such file or directory
libcuda.dylib: cannot open shared object file: No such file or directory
/usr/lib64/libcuda.so.1: cannot open shared object file: No such file or directory
/usr/lib64/libcuda.dylib: cannot open shared object file: No such file or directory
If you are not interested in CUDA-aware support, then run with
--mca opal_warn_on_missing_libcuda 0 to suppress this message.  If you are interested
in CUDA-aware support, then try setting LD_LIBRARY_PATH to the location
of libcuda.so.1 to get passed this issue.
--------------------------------------------------------------------------
--------------------------------------------------------------------------
No OpenFabrics connection schemes reported that they were able to be
used on a specific port.  As such, the openib BTL (OpenFabrics
support) will be disabled for this port.

  Local host:           d-4-5-2
  Local device:         mlx5_1
  Local port:           1
  CPCs attempted:       rdmacm, udcm
--------------------------------------------------------------------------

*************** JDFTx 1.6.0 (git hash 42ebbcc2) ***************

Start date and time: Sat Feb  5 23:30:08 2022
Executable jdftx with command-line: -i Alkali.in
Running on hosts (process indices):  d-4-5-2 (0-18)
Divided in process groups (process indices):  0 (0)  1 (1)  2 (2)  3 (3)  4 (4)  5 (5)  6 (6)  7 (7)  8 (8)  9 (9)  10 (10)  11 (11)  12 (12)  13 (13)  14 (14)  15 (15)  16 (16)  17 (17)  18 (18)
Resource initialization completed at t[s]:      0.00
Run totals: 19 processes, 48 threads, 0 GPUs


Input parsed successfully to the following command list (including defaults):

basis kpoint-dependent
coords-type Lattice
core-overlap-check vector
coulomb-interaction Slab 001
davidson-band-ratio 1.1
dump End None
dump-name $INPUT.$VAR
elec-cutoff 20
elec-eigen-algo Davidson
elec-ex-corr gga-PBE
elec-initial-magnetization -0.920000 yes
elec-smearing Fermi 1e-05
electronic-minimize  \
	dirUpdateScheme      FletcherReeves \
	linminMethod         DirUpdateRecommended \
	nIterations          100 \
	history              15 \
	knormThreshold       0 \
	energyDiffThreshold  1e-08 \
	nEnergyDiff          2 \
	alphaTstart          1 \
	alphaTmin            1e-10 \
	updateTestStepSize   yes \
	alphaTreduceFactor   0.1 \
	alphaTincreaseFactor 3 \
	nAlphaAdjustMax      3 \
	wolfeEnergy          0.0001 \
	wolfeGradient        0.9 \
	fdTest               no
electronic-scf  \
	nIterations	10000 \
	energyDiffThreshold	1e-08 \
	residualThreshold	1e-07 \
	mixFraction	0.5 \
	qMetric	0.8 \
	history	10 \
	nEigSteps	2 \
	eigDiffThreshold	1e-08 \
	mixedVariable	Density \
	qKerker	0.8 \
	qKappa	-1 \
	verbose	no \
	mixFractionMag	1.5
exchange-regularization WignerSeitzTruncated
fluid None
fluid-ex-corr (null) lda-PZ
fluid-gummel-loop 10 1.000000e-05
fluid-minimize  \
	dirUpdateScheme      PolakRibiere \
	linminMethod         DirUpdateRecommended \
	nIterations          100 \
	history              15 \
	knormThreshold       0 \
	energyDiffThreshold  0 \
	nEnergyDiff          2 \
	alphaTstart          1 \
	alphaTmin            1e-10 \
	updateTestStepSize   yes \
	alphaTreduceFactor   0.1 \
	alphaTincreaseFactor 3 \
	nAlphaAdjustMax      3 \
	wolfeEnergy          0.0001 \
	wolfeGradient        0.9 \
	fdTest               no
fluid-solvent H2O 55.338 ScalarEOS \
	epsBulk 78.4 \
	pMol 0.92466 \
	epsInf 1.77 \
	Pvap 1.06736e-10 \
	sigmaBulk 4.62e-05 \
	Rvdw 2.61727 \
	Res 1.42 \
	tauNuc 343133 \
	poleEl 15 7 1
forces-output-coords Positions
ion K   0.000000000000000   0.000000000000000   0.000000000000000 0
ion-species SG15/$ID_ONCV_PBE.upf
ion-width 0
ionic-minimize  \
	dirUpdateScheme      L-BFGS \
	linminMethod         DirUpdateRecommended \
	nIterations          0 \
	history              15 \
	knormThreshold       0.0001 \
	energyDiffThreshold  1e-06 \
	nEnergyDiff          2 \
	alphaTstart          1 \
	alphaTmin            1e-10 \
	updateTestStepSize   yes \
	alphaTreduceFactor   0.1 \
	alphaTincreaseFactor 3 \
	nAlphaAdjustMax      3 \
	wolfeEnergy          0.0001 \
	wolfeGradient        0.9 \
	fdTest               no
kpoint   0.000000000000   0.000000000000   0.000000000000  1.00000000000000
kpoint-folding 12 12 1 
latt-move-scale 1 1 1
latt-scale 2 2 1 
lattice  \
	   4.727486978767153   -2.363743489383575    0.000000000000000  \
	  -0.000000000000000    4.094123819672498    0.000000000000000  \
	   0.000000000000000    0.000000000000000   40.000000000000000 
lattice-minimize  \
	dirUpdateScheme      L-BFGS \
	linminMethod         DirUpdateRecommended \
	nIterations          0 \
	history              15 \
	knormThreshold       0 \
	energyDiffThreshold  1e-06 \
	nEnergyDiff          2 \
	alphaTstart          1 \
	alphaTmin            1e-10 \
	updateTestStepSize   yes \
	alphaTreduceFactor   0.1 \
	alphaTincreaseFactor 3 \
	nAlphaAdjustMax      3 \
	wolfeEnergy          0.0001 \
	wolfeGradient        0.9 \
	fdTest               no
lcao-params -1 1e-06 1e-05
pcm-variant GLSSA13
spintype z-spin
subspace-rotation-factor 1 yes
symmetries automatic
symmetry-threshold 0.0001



---------- Setting up symmetries ----------

Found 24 point-group symmetries of the bravais lattice
Found 24 space-group symmetries with basis
Applied RMS atom displacement 0 bohrs to make symmetries exact.

---------- Initializing the Grid ----------
R = 
[      9.45497     -4.72749            0  ]
[            0      8.18825            0  ]
[            0            0           40  ]
unit cell volume = 3096.79
G =
[   0.664538   0.383671         -0  ]
[          0   0.767342         -0  ]
[         -0         -0    0.15708  ]
Minimum fftbox size, Smin = [  40  40  164  ]
Chosen fftbox size, S = [  40  40  168  ]

---------- Exchange Correlation functional ----------
Initalized PBE GGA exchange.
Initalized PBE GGA correlation.

---------- Setting up pseudopotentials ----------
Width of ionic core gaussian charges (only for fluid interactions / plotting) set to 0

Reading pseudopotential file '/home/gridsan/aligho/DFT/build-Nov24/pseudopotentials/SG15/K_ONCV_PBE.upf':
  'K' pseudopotential, 'PBE' functional
  Generated using ONCVPSP code by D. R. Hamann
  Author: Martin Schlipf and Francois Gygi  Date: 150915.
  9 valence electrons, 3 orbitals, 6 projectors, 2222 radial grid points, with lMax = 2
  Transforming local potential to a uniform radial grid of dG=0.02 with 1489 points.
  Transforming nonlocal projectors to a uniform radial grid of dG=0.02 with 432 points.
    3S    l: 0   occupation:  2.0   eigenvalue: -1.298836
    3P    l: 1   occupation:  6.0   eigenvalue: -0.691386
    4S    l: 0   occupation:  1.0   eigenvalue: -0.085223
  Transforming atomic orbitals to a uniform radial grid of dG=0.02 with 432 points.
  Core radius for overlap checks: 2.06 bohrs.
  Reading pulay file /home/gridsan/aligho/DFT/build-Nov24/pseudopotentials/SG15/K_ONCV_PBE.pulay ... using dE_dnG = -1.597219e-05 computed for Ecut = 20.

Initialized 1 species with 1 total atoms.

Folded 1 k-points by 12x12x1 to 144 k-points.

---------- Setting up k-points, bands, fillings ----------
Reduced to 19 k-points under symmetry. 
Computing the number of bands and number of electrons
Calculating initial fillings.
nElectrons:   9.000000   nBands: 6   nStates: 38

----- Setting up reduced wavefunction bases (one per k-point) -----
average nbasis = 13230.521 , ideal nbasis = 13229.709

---------- Setting up coulomb interaction ----------
Initialized slab truncation along lattice direction 001

---------- Setting up 2D ewald sum ----------
Optimum gaussian width for ewald sums = 5.249020 bohr.
Real space sums over 289 unit cells with max indices [  8  8  0  ]
Reciprocal space sums over 81 terms with max indices [  4  4  0  ]

---------- Allocating electronic variables ----------
Initializing wave functions:  linear combination of atomic orbitals
Note: number of bands (6) exceeds available atomic orbitals (5)
K pseudo-atom occupations:   s ( 2 1 )  p ( 6 )
	FillingsUpdate:  mu: -0.094352012  nElectrons: 9.000000  magneticMoment: [ Abs: 0.92000  Tot: -0.92000 ]
LCAOMinimize: Iter:   0  F: -28.3803287017290380  |grad|_K:  6.299e-06  alpha:  1.000e+00
	FillingsUpdate:  mu: -0.094350511  nElectrons: 9.000000  magneticMoment: [ Abs: 0.92000  Tot: -0.92000 ]
LCAOMinimize: Iter:   1  F: -28.3803287285333958  |grad|_K:  5.510e-08  alpha:  9.876e-01  linmin: -5.043e-03  cgtest:  1.290e-01  t[s]:      4.71
LCAOMinimize: Encountered beta<0, resetting CG.
[d-4-5-2:35389] 18 more processes have sent help message help-mpi-common-cuda.txt / dlopen failed
[d-4-5-2:35389] Set MCA parameter "orte_base_help_aggregate" to 0 to see all help / error messages
[d-4-5-2:35389] 18 more processes have sent help message help-mpi-btl-openib-cpc-base.txt / no cpcs for port
	FillingsUpdate:  mu: -0.094350536  nElectrons: 9.000000  magneticMoment: [ Abs: 0.92000  Tot: -0.92000 ]
LCAOMinimize: Iter:   2  F: -28.3803287285350088  |grad|_K:  1.195e-08  alpha:  1.213e+00  linmin:  5.785e-02  cgtest: -9.991e-01  t[s]:      5.86
LCAOMinimize: Converged (|Delta F|<1.000000e-06 for 2 iters).


---- Citations for features of the code used in this run ----

   Software package:
      R. Sundararaman, K. Letchworth-Weaver, K.A. Schwarz, D. Gunceler, Y. Ozhabes and T.A. Arias, 'JDFTx: software for joint density-functional theory', SoftwareX 6, 278 (2017)

   gga-PBE exchange-correlation functional:
      J.P. Perdew, K. Burke and M. Ernzerhof, Phys. Rev. Lett. 77, 3865 (1996)

   Pseudopotentials:
      M Schlipf and F Gygi, Comput. Phys. Commun. 196, 36 (2015)

   Truncated Coulomb potentials:
      R. Sundararaman and T.A. Arias, Phys. Rev. B 87, 165122 (2013)

This list may not be complete. Please suggest additional citations or
report any other bugs at https://github.com/shankar1729/jdftx/issues

Initialization completed successfully at t[s]:      5.95


-------- Electronic minimization -----------
Will mix electronic density at each iteration.
	FillingsUpdate:  mu: -0.094350536  nElectrons: 9.000000  magneticMoment: [ Abs: 0.92000  Tot: -0.92000 ]
	FillingsUpdate:  mu: -0.106429524  nElectrons: 9.000000  magneticMoment: [ Abs: 0.92000  Tot: -0.92000 ]
SCF: Cycle:  0   F: -28.391367365375199   dF: -1.104e-02   |Residual|: 1.726e-02   |deigs|: 1.731e-01  t[s]:      8.39
	FillingsUpdate:  mu: -0.108582514  nElectrons: 9.000000  magneticMoment: [ Abs: 0.92000  Tot: -0.92000 ]
SCF: Cycle:  1   F: -28.392174606989784   dF: -8.072e-04   |Residual|: 1.322e-02   |deigs|: 7.272e-03  t[s]:     10.28
	FillingsUpdate:  mu: -0.107639181  nElectrons: 9.000000  magneticMoment: [ Abs: 0.92267  Tot: -0.92000 ]
SCF: Cycle:  2   F: -28.392331302642411   dF: -1.567e-04   |Residual|: 8.369e-03   |deigs|: 4.689e-03  t[s]:     12.10
	FillingsUpdate:  mu: -0.107686628  nElectrons: 9.000000  magneticMoment: [ Abs: 0.92000  Tot: -0.92000 ]
SCF: Cycle:  3   F: -28.392471607117848   dF: -1.403e-04   |Residual|: 4.678e-03   |deigs|: 4.766e-03  t[s]:     13.93
	FillingsUpdate:  mu: -0.106202944  nElectrons: 9.000000  magneticMoment: [ Abs: 0.92002  Tot: -0.92000 ]
SCF: Cycle:  4   F: -28.392533726996412   dF: -6.212e-05   |Residual|: 2.511e-03   |deigs|: 3.145e-03  t[s]:     15.81
	FillingsUpdate:  mu: -0.103865247  nElectrons: 9.000000  magneticMoment: [ Abs: 0.92005  Tot: -0.92000 ]
SCF: Cycle:  5   F: -28.392560819536076   dF: -2.709e-05   |Residual|: 2.093e-03   |deigs|: 2.169e-03  t[s]:     17.75
	FillingsUpdate:  mu: -0.102112787  nElectrons: 9.000000  magneticMoment: [ Abs: 0.92363  Tot: -0.92000 ]
SCF: Cycle:  6   F: -28.392595637097600   dF: -3.482e-05   |Residual|: 1.538e-03   |deigs|: 2.890e-03  t[s]:     19.67
	FillingsUpdate:  mu: -0.100648816  nElectrons: 9.000000  magneticMoment: [ Abs: 0.92463  Tot: -0.92000 ]
SCF: Cycle:  7   F: -28.392619690454421   dF: -2.405e-05   |Residual|: 1.233e-03   |deigs|: 3.173e-03  t[s]:     21.65
	FillingsUpdate:  mu: -0.099270318  nElectrons: 9.000000  magneticMoment: [ Abs: 0.92272  Tot: -0.92000 ]
SCF: Cycle:  8   F: -28.392642054968054   dF: -2.236e-05   |Residual|: 9.883e-04   |deigs|: 1.572e-03  t[s]:     23.62
	FillingsUpdate:  mu: -0.099326199  nElectrons: 9.000000  magneticMoment: [ Abs: 0.92012  Tot: -0.92000 ]
SCF: Cycle:  9   F: -28.392661804526149   dF: -1.975e-05   |Residual|: 7.426e-04   |deigs|: 6.638e-04  t[s]:     25.64
	FillingsUpdate:  mu: -0.098264919  nElectrons: 9.000000  magneticMoment: [ Abs: 0.92204  Tot: -0.92000 ]
SCF: Cycle: 10   F: -28.392672581144478   dF: -1.078e-05   |Residual|: 6.711e-04   |deigs|: 1.071e-03  t[s]:     27.69
	FillingsUpdate:  mu: -0.097357614  nElectrons: 9.000000  magneticMoment: [ Abs: 0.92328  Tot: -0.92000 ]
SCF: Cycle: 11   F: -28.392679524935154   dF: -6.944e-06   |Residual|: 5.641e-04   |deigs|: 9.965e-04  t[s]:     29.79
	FillingsUpdate:  mu: -0.097014172  nElectrons: 9.000000  magneticMoment: [ Abs: 0.92323  Tot: -0.92000 ]
SCF: Cycle: 12   F: -28.392683018423035   dF: -3.493e-06   |Residual|: 4.856e-04   |deigs|: 6.693e-04  t[s]:     31.80
	FillingsUpdate:  mu: -0.095889249  nElectrons: 9.000000  magneticMoment: [ Abs: 0.92364  Tot: -0.92000 ]
SCF: Cycle: 13   F: -28.392685708721480   dF: -2.690e-06   |Residual|: 4.336e-04   |deigs|: 1.309e-03  t[s]:     33.83
	FillingsUpdate:  mu: -0.094374336  nElectrons: 9.000000  magneticMoment: [ Abs: 0.92329  Tot: -0.92000 ]
SCF: Cycle: 14   F: -28.392688185534546   dF: -2.477e-06   |Residual|: 4.123e-04   |deigs|: 1.723e-03  t[s]:     35.80
	FillingsUpdate:  mu: -0.093384812  nElectrons: 9.000000  magneticMoment: [ Abs: 0.92203  Tot: -0.92000 ]
SCF: Cycle: 15   F: -28.392690604226527   dF: -2.419e-06   |Residual|: 3.707e-04   |deigs|: 9.495e-04  t[s]:     37.81
	FillingsUpdate:  mu: -0.092374086  nElectrons: 9.000000  magneticMoment: [ Abs: 0.92179  Tot: -0.92000 ]
SCF: Cycle: 16   F: -28.392693719144887   dF: -3.115e-06   |Residual|: 2.647e-04   |deigs|: 1.089e-03  t[s]:     39.86
	FillingsUpdate:  mu: -0.091563629  nElectrons: 9.000000  magneticMoment: [ Abs: 0.92119  Tot: -0.92000 ]
SCF: Cycle: 17   F: -28.392695394159922   dF: -1.675e-06   |Residual|: 2.123e-04   |deigs|: 8.736e-04  t[s]:     42.00
	FillingsUpdate:  mu: -0.091262127  nElectrons: 9.000000  magneticMoment: [ Abs: 0.92101  Tot: -0.92000 ]
SCF: Cycle: 18   F: -28.392696410979482   dF: -1.017e-06   |Residual|: 1.487e-04   |deigs|: 4.269e-04  t[s]:     44.01
	FillingsUpdate:  mu: -0.091273909  nElectrons: 9.000000  magneticMoment: [ Abs: 0.92105  Tot: -0.92000 ]
SCF: Cycle: 19   F: -28.392696812929735   dF: -4.020e-07   |Residual|: 9.220e-05   |deigs|: 2.503e-04  t[s]:     46.15
	FillingsUpdate:  mu: -0.091198754  nElectrons: 9.000000  magneticMoment: [ Abs: 0.92097  Tot: -0.92000 ]
SCF: Cycle: 20   F: -28.392697169414262   dF: -3.565e-07   |Residual|: 6.039e-05   |deigs|: 2.200e-04  t[s]:     48.27
	FillingsUpdate:  mu: -0.091202106  nElectrons: 9.000000  magneticMoment: [ Abs: 0.92080  Tot: -0.92000 ]
SCF: Cycle: 21   F: -28.392697280974335   dF: -1.116e-07   |Residual|: 4.679e-05   |deigs|: 2.090e-04  t[s]:     50.33
	FillingsUpdate:  mu: -0.091162367  nElectrons: 9.000000  magneticMoment: [ Abs: 0.92078  Tot: -0.92000 ]
SCF: Cycle: 22   F: -28.392697376545780   dF: -9.557e-08   |Residual|: 2.996e-05   |deigs|: 1.921e-04  t[s]:     52.34
	FillingsUpdate:  mu: -0.091152845  nElectrons: 9.000000  magneticMoment: [ Abs: 0.92064  Tot: -0.92000 ]
SCF: Cycle: 23   F: -28.392697414801518   dF: -3.826e-08   |Residual|: 2.492e-05   |deigs|: 1.499e-04  t[s]:     54.37
	FillingsUpdate:  mu: -0.091148861  nElectrons: 9.000000  magneticMoment: [ Abs: 0.92045  Tot: -0.92000 ]
SCF: Cycle: 24   F: -28.392697463824305   dF: -4.902e-08   |Residual|: 2.804e-05   |deigs|: 7.561e-05  t[s]:     56.43
	FillingsUpdate:  mu: -0.091135795  nElectrons: 9.000000  magneticMoment: [ Abs: 0.92040  Tot: -0.92000 ]
SCF: Cycle: 25   F: -28.392697504528247   dF: -4.070e-08   |Residual|: 2.208e-05   |deigs|: 1.881e-04  t[s]:     58.53
	FillingsUpdate:  mu: -0.091131506  nElectrons: 9.000000  magneticMoment: [ Abs: 0.92020  Tot: -0.92000 ]
SCF: Cycle: 26   F: -28.392697519419386   dF: -1.489e-08   |Residual|: 1.876e-05   |deigs|: 7.115e-05  t[s]:     60.56
	FillingsUpdate:  mu: -0.091104860  nElectrons: 9.000000  magneticMoment: [ Abs: 0.92009  Tot: -0.92000 ]
SCF: Cycle: 27   F: -28.392697527552780   dF: -8.133e-09   |Residual|: 1.201e-05   |deigs|: 3.856e-05  t[s]:     62.57
	FillingsUpdate:  mu: -0.091094062  nElectrons: 9.000000  magneticMoment: [ Abs: 0.92008  Tot: -0.92000 ]
SCF: Cycle: 28   F: -28.392697535141448   dF: -7.589e-09   |Residual|: 8.373e-06   |deigs|: 2.452e-05  t[s]:     64.60
SCF: Converged (|Delta E|<1.000000e-08 for 2 iters).


# Ionic positions in lattice coordinates:
ion K   0.000000000000000   0.000000000000000   0.000000000000000 0

# Forces in Lattice coordinates:
force K   0.000000000000000  -0.000000000000000   0.000000000000000 0

# Energy components:
   Eewald =      -18.0480261003326561
       EH =        4.9092818571430010
     Eloc =      -18.1018703847315763
      Enl =       -2.7809439311072985
   Epulay =        0.0000000041876954
      Exc =       -4.2713888643662177
       KE =        9.9002502507133023
-------------------------------------
     Etot =      -28.3926971684937506
       TS =        0.0000003666476982
-------------------------------------
        F =      -28.3926975351414477

IonicMinimize: Iter:   0  F: -28.392697535141448  |grad|_K:  0.000e+00  t[s]:     64.72
IonicMinimize: Converged (|grad|_K<1.000000e-04).

#--- Lowdin population analysis ---
# oxidation-state K +0.197
# magnetic-moments K -0.725

End date and time: Sat Feb  5 23:31:13 2022  (Duration: 0-0:01:04.74)
Done!
scale=3
magnetization=-0.92
--------------------------------------------------------------------------
The library attempted to open the following supporting CUDA libraries,
but each of them failed.  CUDA-aware support is disabled.
libcuda.so.1: cannot open shared object file: No such file or directory
libcuda.dylib: cannot open shared object file: No such file or directory
/usr/lib64/libcuda.so.1: cannot open shared object file: No such file or directory
/usr/lib64/libcuda.dylib: cannot open shared object file: No such file or directory
If you are not interested in CUDA-aware support, then run with
--mca opal_warn_on_missing_libcuda 0 to suppress this message.  If you are interested
in CUDA-aware support, then try setting LD_LIBRARY_PATH to the location
of libcuda.so.1 to get passed this issue.
--------------------------------------------------------------------------
--------------------------------------------------------------------------
No OpenFabrics connection schemes reported that they were able to be
used on a specific port.  As such, the openib BTL (OpenFabrics
support) will be disabled for this port.

  Local host:           d-4-5-2
  Local device:         mlx5_1
  Local port:           1
  CPCs attempted:       rdmacm, udcm
--------------------------------------------------------------------------

*************** JDFTx 1.6.0 (git hash 42ebbcc2) ***************

Start date and time: Sat Feb  5 23:31:14 2022
Executable jdftx with command-line: -i Alkali.in
Running on hosts (process indices):  d-4-5-2 (0-18)
Divided in process groups (process indices):  0 (0)  1 (1)  2 (2)  3 (3)  4 (4)  5 (5)  6 (6)  7 (7)  8 (8)  9 (9)  10 (10)  11 (11)  12 (12)  13 (13)  14 (14)  15 (15)  16 (16)  17 (17)  18 (18)
Resource initialization completed at t[s]:      0.00
Run totals: 19 processes, 48 threads, 0 GPUs


Input parsed successfully to the following command list (including defaults):

basis kpoint-dependent
coords-type Lattice
core-overlap-check vector
coulomb-interaction Slab 001
davidson-band-ratio 1.1
dump End None
dump-name $INPUT.$VAR
elec-cutoff 20
elec-eigen-algo Davidson
elec-ex-corr gga-PBE
elec-initial-magnetization -0.920000 yes
elec-smearing Fermi 1e-05
electronic-minimize  \
	dirUpdateScheme      FletcherReeves \
	linminMethod         DirUpdateRecommended \
	nIterations          100 \
	history              15 \
	knormThreshold       0 \
	energyDiffThreshold  1e-08 \
	nEnergyDiff          2 \
	alphaTstart          1 \
	alphaTmin            1e-10 \
	updateTestStepSize   yes \
	alphaTreduceFactor   0.1 \
	alphaTincreaseFactor 3 \
	nAlphaAdjustMax      3 \
	wolfeEnergy          0.0001 \
	wolfeGradient        0.9 \
	fdTest               no
electronic-scf  \
	nIterations	10000 \
	energyDiffThreshold	1e-08 \
	residualThreshold	1e-07 \
	mixFraction	0.5 \
	qMetric	0.8 \
	history	10 \
	nEigSteps	2 \
	eigDiffThreshold	1e-08 \
	mixedVariable	Density \
	qKerker	0.8 \
	qKappa	-1 \
	verbose	no \
	mixFractionMag	1.5
exchange-regularization WignerSeitzTruncated
fluid None
fluid-ex-corr (null) lda-PZ
fluid-gummel-loop 10 1.000000e-05
fluid-minimize  \
	dirUpdateScheme      PolakRibiere \
	linminMethod         DirUpdateRecommended \
	nIterations          100 \
	history              15 \
	knormThreshold       0 \
	energyDiffThreshold  0 \
	nEnergyDiff          2 \
	alphaTstart          1 \
	alphaTmin            1e-10 \
	updateTestStepSize   yes \
	alphaTreduceFactor   0.1 \
	alphaTincreaseFactor 3 \
	nAlphaAdjustMax      3 \
	wolfeEnergy          0.0001 \
	wolfeGradient        0.9 \
	fdTest               no
fluid-solvent H2O 55.338 ScalarEOS \
	epsBulk 78.4 \
	pMol 0.92466 \
	epsInf 1.77 \
	Pvap 1.06736e-10 \
	sigmaBulk 4.62e-05 \
	Rvdw 2.61727 \
	Res 1.42 \
	tauNuc 343133 \
	poleEl 15 7 1
forces-output-coords Positions
ion K   0.000000000000000   0.000000000000000   0.000000000000000 0
ion-species SG15/$ID_ONCV_PBE.upf
ion-width 0
ionic-minimize  \
	dirUpdateScheme      L-BFGS \
	linminMethod         DirUpdateRecommended \
	nIterations          0 \
	history              15 \
	knormThreshold       0.0001 \
	energyDiffThreshold  1e-06 \
	nEnergyDiff          2 \
	alphaTstart          1 \
	alphaTmin            1e-10 \
	updateTestStepSize   yes \
	alphaTreduceFactor   0.1 \
	alphaTincreaseFactor 3 \
	nAlphaAdjustMax      3 \
	wolfeEnergy          0.0001 \
	wolfeGradient        0.9 \
	fdTest               no
kpoint   0.000000000000   0.000000000000   0.000000000000  1.00000000000000
kpoint-folding 12 12 1 
latt-move-scale 1 1 1
latt-scale 3 3 1 
lattice  \
	   4.727486978767153   -2.363743489383575    0.000000000000000  \
	  -0.000000000000000    4.094123819672498    0.000000000000000  \
	   0.000000000000000    0.000000000000000   40.000000000000000 
lattice-minimize  \
	dirUpdateScheme      L-BFGS \
	linminMethod         DirUpdateRecommended \
	nIterations          0 \
	history              15 \
	knormThreshold       0 \
	energyDiffThreshold  1e-06 \
	nEnergyDiff          2 \
	alphaTstart          1 \
	alphaTmin            1e-10 \
	updateTestStepSize   yes \
	alphaTreduceFactor   0.1 \
	alphaTincreaseFactor 3 \
	nAlphaAdjustMax      3 \
	wolfeEnergy          0.0001 \
	wolfeGradient        0.9 \
	fdTest               no
lcao-params -1 1e-06 1e-05
pcm-variant GLSSA13
spintype z-spin
subspace-rotation-factor 1 yes
symmetries automatic
symmetry-threshold 0.0001



---------- Setting up symmetries ----------

Found 24 point-group symmetries of the bravais lattice
Found 24 space-group symmetries with basis
Applied RMS atom displacement 0 bohrs to make symmetries exact.

---------- Initializing the Grid ----------
R = 
[      14.1825     -7.09123            0  ]
[            0      12.2824            0  ]
[            0            0           40  ]
unit cell volume = 6967.77
G =
[   0.443025   0.255781         -0  ]
[          0   0.511561         -0  ]
[         -0         -0    0.15708  ]
Minimum fftbox size, Smin = [  60  60  164  ]
Chosen fftbox size, S = [  60  60  168  ]

---------- Exchange Correlation functional ----------
Initalized PBE GGA exchange.
Initalized PBE GGA correlation.

---------- Setting up pseudopotentials ----------
Width of ionic core gaussian charges (only for fluid interactions / plotting) set to 0

Reading pseudopotential file '/home/gridsan/aligho/DFT/build-Nov24/pseudopotentials/SG15/K_ONCV_PBE.upf':
  'K' pseudopotential, 'PBE' functional
  Generated using ONCVPSP code by D. R. Hamann
  Author: Martin Schlipf and Francois Gygi  Date: 150915.
  9 valence electrons, 3 orbitals, 6 projectors, 2222 radial grid points, with lMax = 2
  Transforming local potential to a uniform radial grid of dG=0.02 with 1489 points.
  Transforming nonlocal projectors to a uniform radial grid of dG=0.02 with 432 points.
    3S    l: 0   occupation:  2.0   eigenvalue: -1.298836
    3P    l: 1   occupation:  6.0   eigenvalue: -0.691386
    4S    l: 0   occupation:  1.0   eigenvalue: -0.085223
  Transforming atomic orbitals to a uniform radial grid of dG=0.02 with 432 points.
  Core radius for overlap checks: 2.06 bohrs.
  Reading pulay file /home/gridsan/aligho/DFT/build-Nov24/pseudopotentials/SG15/K_ONCV_PBE.pulay ... using dE_dnG = -1.597219e-05 computed for Ecut = 20.

Initialized 1 species with 1 total atoms.

Folded 1 k-points by 12x12x1 to 144 k-points.

---------- Setting up k-points, bands, fillings ----------
Reduced to 19 k-points under symmetry. 
Computing the number of bands and number of electrons
Calculating initial fillings.
nElectrons:   9.000000   nBands: 6   nStates: 38

----- Setting up reduced wavefunction bases (one per k-point) -----
average nbasis = 29766.104 , ideal nbasis = 29766.845

---------- Setting up coulomb interaction ----------
Initialized slab truncation along lattice direction 001

---------- Setting up 2D ewald sum ----------
Optimum gaussian width for ewald sums = 7.873530 bohr.
Real space sums over 289 unit cells with max indices [  8  8  0  ]
Reciprocal space sums over 81 terms with max indices [  4  4  0  ]

---------- Allocating electronic variables ----------
Initializing wave functions:  linear combination of atomic orbitals
Note: number of bands (6) exceeds available atomic orbitals (5)
K pseudo-atom occupations:   s ( 2 1 )  p ( 6 )
[d-4-5-2:40537] 18 more processes have sent help message help-mpi-common-cuda.txt / dlopen failed
[d-4-5-2:40537] Set MCA parameter "orte_base_help_aggregate" to 0 to see all help / error messages
[d-4-5-2:40537] 18 more processes have sent help message help-mpi-btl-openib-cpc-base.txt / no cpcs for port
	FillingsUpdate:  mu: -0.087182793  nElectrons: 9.000000  magneticMoment: [ Abs: 0.92000  Tot: -0.92000 ]
LCAOMinimize: Iter:   0  F: -28.3816448038859619  |grad|_K:  3.743e-06  alpha:  1.000e+00
	FillingsUpdate:  mu: -0.087182561  nElectrons: 9.000000  magneticMoment: [ Abs: 0.92000  Tot: -0.92000 ]
LCAOMinimize: Iter:   1  F: -28.3816448134498494  |grad|_K:  1.908e-08  alpha:  9.978e-01  linmin: -2.175e-03  cgtest:  4.030e-02  t[s]:      8.65
LCAOMinimize: Encountered beta<0, resetting CG.
	FillingsUpdate:  mu: -0.087182563  nElectrons: 9.000000  magneticMoment: [ Abs: 0.92000  Tot: -0.92000 ]
LCAOMinimize: Iter:   2  F: -28.3816448134499417  |grad|_K:  8.438e-09  alpha:  5.537e-01  linmin: -9.247e-02  cgtest:  1.000e+00  t[s]:     11.04
LCAOMinimize: Encountered beta<0, resetting CG.
LCAOMinimize: Converged (|Delta F|<1.000000e-06 for 2 iters).


---- Citations for features of the code used in this run ----

   Software package:
      R. Sundararaman, K. Letchworth-Weaver, K.A. Schwarz, D. Gunceler, Y. Ozhabes and T.A. Arias, 'JDFTx: software for joint density-functional theory', SoftwareX 6, 278 (2017)

   gga-PBE exchange-correlation functional:
      J.P. Perdew, K. Burke and M. Ernzerhof, Phys. Rev. Lett. 77, 3865 (1996)

   Pseudopotentials:
      M Schlipf and F Gygi, Comput. Phys. Commun. 196, 36 (2015)

   Truncated Coulomb potentials:
      R. Sundararaman and T.A. Arias, Phys. Rev. B 87, 165122 (2013)

This list may not be complete. Please suggest additional citations or
report any other bugs at https://github.com/shankar1729/jdftx/issues

Initialization completed successfully at t[s]:     11.20


-------- Electronic minimization -----------
Will mix electronic density at each iteration.
	FillingsUpdate:  mu: -0.087182563  nElectrons: 9.000000  magneticMoment: [ Abs: 0.92000  Tot: -0.92000 ]
	FillingsUpdate:  mu: -0.087744786  nElectrons: 9.000000  magneticMoment: [ Abs: 0.92000  Tot: -0.92000 ]
SCF: Cycle:  0   F: -28.382554900816448   dF: -9.101e-04   |Residual|: 2.949e-03   |deigs|: 1.730e-01  t[s]:     15.97
	FillingsUpdate:  mu: -0.087829176  nElectrons: 9.000000  magneticMoment: [ Abs: 0.92108  Tot: -0.92000 ]
SCF: Cycle:  1   F: -28.382576758703298   dF: -2.186e-05   |Residual|: 1.649e-03   |deigs|: 5.289e-03  t[s]:     19.73
	FillingsUpdate:  mu: -0.088080541  nElectrons: 9.000000  magneticMoment: [ Abs: 0.92186  Tot: -0.92000 ]
SCF: Cycle:  2   F: -28.382589646970462   dF: -1.289e-05   |Residual|: 1.307e-03   |deigs|: 3.858e-03  t[s]:     23.44
	FillingsUpdate:  mu: -0.088232755  nElectrons: 9.000000  magneticMoment: [ Abs: 0.92242  Tot: -0.92000 ]
SCF: Cycle:  3   F: -28.382602591933075   dF: -1.294e-05   |Residual|: 9.758e-04   |deigs|: 1.747e-03  t[s]:     27.27
	FillingsUpdate:  mu: -0.088595240  nElectrons: 9.000000  magneticMoment: [ Abs: 0.92195  Tot: -0.92000 ]
SCF: Cycle:  4   F: -28.382616614108169   dF: -1.402e-05   |Residual|: 6.731e-04   |deigs|: 1.096e-03  t[s]:     31.11
	FillingsUpdate:  mu: -0.088664771  nElectrons: 9.000000  magneticMoment: [ Abs: 0.92215  Tot: -0.92000 ]
SCF: Cycle:  5   F: -28.382627665301580   dF: -1.105e-05   |Residual|: 3.777e-04   |deigs|: 6.364e-04  t[s]:     35.12
	FillingsUpdate:  mu: -0.088489256  nElectrons: 9.000000  magneticMoment: [ Abs: 0.92184  Tot: -0.92000 ]
SCF: Cycle:  6   F: -28.382631998878161   dF: -4.334e-06   |Residual|: 2.754e-04   |deigs|: 1.817e-03  t[s]:     39.16
	FillingsUpdate:  mu: -0.088370570  nElectrons: 9.000000  magneticMoment: [ Abs: 0.92220  Tot: -0.92000 ]
SCF: Cycle:  7   F: -28.382634215176612   dF: -2.216e-06   |Residual|: 2.030e-04   |deigs|: 6.239e-04  t[s]:     43.25
	FillingsUpdate:  mu: -0.088043849  nElectrons: 9.000000  magneticMoment: [ Abs: 0.92226  Tot: -0.92000 ]
SCF: Cycle:  8   F: -28.382635695865531   dF: -1.481e-06   |Residual|: 1.624e-04   |deigs|: 3.650e-04  t[s]:     47.41
	FillingsUpdate:  mu: -0.087884813  nElectrons: 9.000000  magneticMoment: [ Abs: 0.92254  Tot: -0.92000 ]
SCF: Cycle:  9   F: -28.382635731920072   dF: -3.605e-08   |Residual|: 1.570e-04   |deigs|: 1.704e-04  t[s]:     51.70
	FillingsUpdate:  mu: -0.087822063  nElectrons: 9.000000  magneticMoment: [ Abs: 0.92232  Tot: -0.92000 ]
SCF: Cycle: 10   F: -28.382636327248086   dF: -5.953e-07   |Residual|: 1.289e-04   |deigs|: 2.231e-04  t[s]:     55.97
	FillingsUpdate:  mu: -0.087745353  nElectrons: 9.000000  magneticMoment: [ Abs: 0.92304  Tot: -0.92000 ]
SCF: Cycle: 11   F: -28.382636028858688   dF: +2.984e-07   |Residual|: 1.014e-04   |deigs|: 1.622e-04  t[s]:     60.23
	FillingsUpdate:  mu: -0.087753403  nElectrons: 9.000000  magneticMoment: [ Abs: 0.92275  Tot: -0.92000 ]
SCF: Cycle: 12   F: -28.382637265776872   dF: -1.237e-06   |Residual|: 8.337e-05   |deigs|: 1.078e-04  t[s]:     64.53
	FillingsUpdate:  mu: -0.087605805  nElectrons: 9.000000  magneticMoment: [ Abs: 0.92286  Tot: -0.92000 ]
SCF: Cycle: 13   F: -28.382637762294717   dF: -4.965e-07   |Residual|: 8.583e-05   |deigs|: 1.648e-04  t[s]:     68.70
	FillingsUpdate:  mu: -0.087423884  nElectrons: 9.000000  magneticMoment: [ Abs: 0.92285  Tot: -0.92000 ]
SCF: Cycle: 14   F: -28.382637573697281   dF: +1.886e-07   |Residual|: 8.729e-05   |deigs|: 1.988e-04  t[s]:     72.99
	FillingsUpdate:  mu: -0.087210251  nElectrons: 9.000000  magneticMoment: [ Abs: 0.92273  Tot: -0.92000 ]
SCF: Cycle: 15   F: -28.382637597313607   dF: -2.362e-08   |Residual|: 7.313e-05   |deigs|: 2.247e-04  t[s]:     77.28
	FillingsUpdate:  mu: -0.087125617  nElectrons: 9.000000  magneticMoment: [ Abs: 0.92240  Tot: -0.92000 ]
SCF: Cycle: 16   F: -28.382637981084496   dF: -3.838e-07   |Residual|: 6.170e-05   |deigs|: 4.268e-04  t[s]:     81.54
	FillingsUpdate:  mu: -0.087052790  nElectrons: 9.000000  magneticMoment: [ Abs: 0.92216  Tot: -0.92000 ]
SCF: Cycle: 17   F: -28.382638288282070   dF: -3.072e-07   |Residual|: 5.371e-05   |deigs|: 1.837e-04  t[s]:     85.82
	FillingsUpdate:  mu: -0.087042734  nElectrons: 9.000000  magneticMoment: [ Abs: 0.92202  Tot: -0.92000 ]
SCF: Cycle: 18   F: -28.382638512601176   dF: -2.243e-07   |Residual|: 4.152e-05   |deigs|: 3.961e-05  t[s]:     90.01
	FillingsUpdate:  mu: -0.087024763  nElectrons: 9.000000  magneticMoment: [ Abs: 0.92204  Tot: -0.92000 ]
SCF: Cycle: 19   F: -28.382638425663355   dF: +8.694e-08   |Residual|: 2.676e-05   |deigs|: 3.577e-05  t[s]:     94.27
	FillingsUpdate:  mu: -0.087007589  nElectrons: 9.000000  magneticMoment: [ Abs: 0.92204  Tot: -0.92000 ]
SCF: Cycle: 20   F: -28.382638657171942   dF: -2.315e-07   |Residual|: 1.718e-05   |deigs|: 4.572e-05  t[s]:     98.53
	FillingsUpdate:  mu: -0.087020164  nElectrons: 9.000000  magneticMoment: [ Abs: 0.92199  Tot: -0.92000 ]
SCF: Cycle: 21   F: -28.382638731580453   dF: -7.441e-08   |Residual|: 1.111e-05   |deigs|: 5.341e-05  t[s]:    102.67
	FillingsUpdate:  mu: -0.087018951  nElectrons: 9.000000  magneticMoment: [ Abs: 0.92199  Tot: -0.92000 ]
SCF: Cycle: 22   F: -28.382638736569827   dF: -4.989e-09   |Residual|: 7.325e-06   |deigs|: 4.511e-05  t[s]:    106.77
	FillingsUpdate:  mu: -0.087020707  nElectrons: 9.000000  magneticMoment: [ Abs: 0.92202  Tot: -0.92000 ]
SCF: Cycle: 23   F: -28.382638751304775   dF: -1.473e-08   |Residual|: 5.454e-06   |deigs|: 4.039e-05  t[s]:    111.12
	FillingsUpdate:  mu: -0.087021889  nElectrons: 9.000000  magneticMoment: [ Abs: 0.92204  Tot: -0.92000 ]
SCF: Cycle: 24   F: -28.382638759700900   dF: -8.396e-09   |Residual|: 4.493e-06   |deigs|: 3.059e-05  t[s]:    115.39
	FillingsUpdate:  mu: -0.087023397  nElectrons: 9.000000  magneticMoment: [ Abs: 0.92203  Tot: -0.92000 ]
SCF: Cycle: 25   F: -28.382638761836461   dF: -2.136e-09   |Residual|: 3.734e-06   |deigs|: 2.203e-05  t[s]:    119.63
SCF: Converged (|Delta E|<1.000000e-08 for 2 iters).


# Ionic positions in lattice coordinates:
ion K   0.000000000000000   0.000000000000000   0.000000000000000 0

# Forces in Lattice coordinates:
force K   0.000000000000000   0.000000000000000   0.000000000000000 0

# Energy components:
   Eewald =      -12.0320174002217755
       EH =       10.7696844500385289
     Eloc =      -29.9707377049812109
      Enl =       -2.7688999158274079
   Epulay =       -0.0000000016982517
      Exc =       -4.2452784339589407
       KE =        9.8646109752252009
-------------------------------------
     Etot =      -28.3826380314238556
       TS =        0.0000007304126033
-------------------------------------
        F =      -28.3826387618364606

IonicMinimize: Iter:   0  F: -28.382638761836461  |grad|_K:  0.000e+00  t[s]:    119.88
IonicMinimize: Converged (|grad|_K<1.000000e-04).

#--- Lowdin population analysis ---
# oxidation-state K +0.019
# magnetic-moments K -0.902

End date and time: Sat Feb  5 23:33:14 2022  (Duration: 0-0:01:59.93)
Done!
scale=4
magnetization=-0.92
--------------------------------------------------------------------------
The library attempted to open the following supporting CUDA libraries,
but each of them failed.  CUDA-aware support is disabled.
libcuda.so.1: cannot open shared object file: No such file or directory
libcuda.dylib: cannot open shared object file: No such file or directory
/usr/lib64/libcuda.so.1: cannot open shared object file: No such file or directory
/usr/lib64/libcuda.dylib: cannot open shared object file: No such file or directory
If you are not interested in CUDA-aware support, then run with
--mca opal_warn_on_missing_libcuda 0 to suppress this message.  If you are interested
in CUDA-aware support, then try setting LD_LIBRARY_PATH to the location
of libcuda.so.1 to get passed this issue.
--------------------------------------------------------------------------
--------------------------------------------------------------------------
No OpenFabrics connection schemes reported that they were able to be
used on a specific port.  As such, the openib BTL (OpenFabrics
support) will be disabled for this port.

  Local host:           d-4-5-2
  Local device:         mlx5_1
  Local port:           1
  CPCs attempted:       rdmacm, udcm
--------------------------------------------------------------------------

*************** JDFTx 1.6.0 (git hash 42ebbcc2) ***************

Start date and time: Sat Feb  5 23:33:15 2022
Executable jdftx with command-line: -i Alkali.in
Running on hosts (process indices):  d-4-5-2 (0-18)
Divided in process groups (process indices):  0 (0)  1 (1)  2 (2)  3 (3)  4 (4)  5 (5)  6 (6)  7 (7)  8 (8)  9 (9)  10 (10)  11 (11)  12 (12)  13 (13)  14 (14)  15 (15)  16 (16)  17 (17)  18 (18)
Resource initialization completed at t[s]:      0.00
Run totals: 19 processes, 48 threads, 0 GPUs


Input parsed successfully to the following command list (including defaults):

basis kpoint-dependent
coords-type Lattice
core-overlap-check vector
coulomb-interaction Slab 001
davidson-band-ratio 1.1
dump End None
dump-name $INPUT.$VAR
elec-cutoff 20
elec-eigen-algo Davidson
elec-ex-corr gga-PBE
elec-initial-magnetization -0.920000 yes
elec-smearing Fermi 1e-05
electronic-minimize  \
	dirUpdateScheme      FletcherReeves \
	linminMethod         DirUpdateRecommended \
	nIterations          100 \
	history              15 \
	knormThreshold       0 \
	energyDiffThreshold  1e-08 \
	nEnergyDiff          2 \
	alphaTstart          1 \
	alphaTmin            1e-10 \
	updateTestStepSize   yes \
	alphaTreduceFactor   0.1 \
	alphaTincreaseFactor 3 \
	nAlphaAdjustMax      3 \
	wolfeEnergy          0.0001 \
	wolfeGradient        0.9 \
	fdTest               no
electronic-scf  \
	nIterations	10000 \
	energyDiffThreshold	1e-08 \
	residualThreshold	1e-07 \
	mixFraction	0.5 \
	qMetric	0.8 \
	history	10 \
	nEigSteps	2 \
	eigDiffThreshold	1e-08 \
	mixedVariable	Density \
	qKerker	0.8 \
	qKappa	-1 \
	verbose	no \
	mixFractionMag	1.5
exchange-regularization WignerSeitzTruncated
fluid None
fluid-ex-corr (null) lda-PZ
fluid-gummel-loop 10 1.000000e-05
fluid-minimize  \
	dirUpdateScheme      PolakRibiere \
	linminMethod         DirUpdateRecommended \
	nIterations          100 \
	history              15 \
	knormThreshold       0 \
	energyDiffThreshold  0 \
	nEnergyDiff          2 \
	alphaTstart          1 \
	alphaTmin            1e-10 \
	updateTestStepSize   yes \
	alphaTreduceFactor   0.1 \
	alphaTincreaseFactor 3 \
	nAlphaAdjustMax      3 \
	wolfeEnergy          0.0001 \
	wolfeGradient        0.9 \
	fdTest               no
fluid-solvent H2O 55.338 ScalarEOS \
	epsBulk 78.4 \
	pMol 0.92466 \
	epsInf 1.77 \
	Pvap 1.06736e-10 \
	sigmaBulk 4.62e-05 \
	Rvdw 2.61727 \
	Res 1.42 \
	tauNuc 343133 \
	poleEl 15 7 1
forces-output-coords Positions
ion K   0.000000000000000   0.000000000000000   0.000000000000000 0
ion-species SG15/$ID_ONCV_PBE.upf
ion-width 0
ionic-minimize  \
	dirUpdateScheme      L-BFGS \
	linminMethod         DirUpdateRecommended \
	nIterations          0 \
	history              15 \
	knormThreshold       0.0001 \
	energyDiffThreshold  1e-06 \
	nEnergyDiff          2 \
	alphaTstart          1 \
	alphaTmin            1e-10 \
	updateTestStepSize   yes \
	alphaTreduceFactor   0.1 \
	alphaTincreaseFactor 3 \
	nAlphaAdjustMax      3 \
	wolfeEnergy          0.0001 \
	wolfeGradient        0.9 \
	fdTest               no
kpoint   0.000000000000   0.000000000000   0.000000000000  1.00000000000000
kpoint-folding 12 12 1 
latt-move-scale 1 1 1
latt-scale 4 4 1 
lattice  \
	   4.727486978767153   -2.363743489383575    0.000000000000000  \
	  -0.000000000000000    4.094123819672498    0.000000000000000  \
	   0.000000000000000    0.000000000000000   40.000000000000000 
lattice-minimize  \
	dirUpdateScheme      L-BFGS \
	linminMethod         DirUpdateRecommended \
	nIterations          0 \
	history              15 \
	knormThreshold       0 \
	energyDiffThreshold  1e-06 \
	nEnergyDiff          2 \
	alphaTstart          1 \
	alphaTmin            1e-10 \
	updateTestStepSize   yes \
	alphaTreduceFactor   0.1 \
	alphaTincreaseFactor 3 \
	nAlphaAdjustMax      3 \
	wolfeEnergy          0.0001 \
	wolfeGradient        0.9 \
	fdTest               no
lcao-params -1 1e-06 1e-05
pcm-variant GLSSA13
spintype z-spin
subspace-rotation-factor 1 yes
symmetries automatic
symmetry-threshold 0.0001



---------- Setting up symmetries ----------

Found 24 point-group symmetries of the bravais lattice
Found 24 space-group symmetries with basis
Applied RMS atom displacement 0 bohrs to make symmetries exact.

---------- Initializing the Grid ----------
R = 
[      18.9099     -9.45497            0  ]
[            0      16.3765            0  ]
[            0            0           40  ]
unit cell volume = 12387.1
G =
[   0.332269   0.191835         -0  ]
[          0   0.383671         -0  ]
[         -0         -0    0.15708  ]
Minimum fftbox size, Smin = [  80  80  164  ]
Chosen fftbox size, S = [  80  80  168  ]

---------- Exchange Correlation functional ----------
Initalized PBE GGA exchange.
Initalized PBE GGA correlation.

---------- Setting up pseudopotentials ----------
Width of ionic core gaussian charges (only for fluid interactions / plotting) set to 0

Reading pseudopotential file '/home/gridsan/aligho/DFT/build-Nov24/pseudopotentials/SG15/K_ONCV_PBE.upf':
  'K' pseudopotential, 'PBE' functional
  Generated using ONCVPSP code by D. R. Hamann
  Author: Martin Schlipf and Francois Gygi  Date: 150915.
  9 valence electrons, 3 orbitals, 6 projectors, 2222 radial grid points, with lMax = 2
  Transforming local potential to a uniform radial grid of dG=0.02 with 1489 points.
  Transforming nonlocal projectors to a uniform radial grid of dG=0.02 with 432 points.
    3S    l: 0   occupation:  2.0   eigenvalue: -1.298836
    3P    l: 1   occupation:  6.0   eigenvalue: -0.691386
    4S    l: 0   occupation:  1.0   eigenvalue: -0.085223
  Transforming atomic orbitals to a uniform radial grid of dG=0.02 with 432 points.
  Core radius for overlap checks: 2.06 bohrs.
  Reading pulay file /home/gridsan/aligho/DFT/build-Nov24/pseudopotentials/SG15/K_ONCV_PBE.pulay ... using dE_dnG = -1.597219e-05 computed for Ecut = 20.

Initialized 1 species with 1 total atoms.

Folded 1 k-points by 12x12x1 to 144 k-points.

---------- Setting up k-points, bands, fillings ----------
Reduced to 19 k-points under symmetry. 
Computing the number of bands and number of electrons
Calculating initial fillings.
nElectrons:   9.000000   nBands: 6   nStates: 38

----- Setting up reduced wavefunction bases (one per k-point) -----
average nbasis = 52924.021 , ideal nbasis = 52918.836

---------- Setting up coulomb interaction ----------
Initialized slab truncation along lattice direction 001

---------- Setting up 2D ewald sum ----------
Optimum gaussian width for ewald sums = 10.498040 bohr.
Real space sums over 289 unit cells with max indices [  8  8  0  ]
Reciprocal space sums over 81 terms with max indices [  4  4  0  ]

---------- Allocating electronic variables ----------
Initializing wave functions:  linear combination of atomic orbitals
Note: number of bands (6) exceeds available atomic orbitals (5)
K pseudo-atom occupations:   s ( 2 1 )  p ( 6 )
[d-4-5-2:21641] 18 more processes have sent help message help-mpi-common-cuda.txt / dlopen failed
[d-4-5-2:21641] Set MCA parameter "orte_base_help_aggregate" to 0 to see all help / error messages
[d-4-5-2:21641] 18 more processes have sent help message help-mpi-btl-openib-cpc-base.txt / no cpcs for port
	FillingsUpdate:  mu: -0.083785206  nElectrons: 9.000000  magneticMoment: [ Abs: 0.92000  Tot: -0.92000 ]
LCAOMinimize: Iter:   0  F: -28.3808763328262437  |grad|_K:  7.097e-07  alpha:  1.000e+00
	FillingsUpdate:  mu: -0.083785064  nElectrons: 9.000000  magneticMoment: [ Abs: 0.92000  Tot: -0.92000 ]
LCAOMinimize: Iter:   1  F: -28.3808763331690947  |grad|_K:  3.609e-09  alpha:  9.950e-01  linmin:  1.138e-03  cgtest: -3.016e-02  t[s]:     15.00
	FillingsUpdate:  mu: -0.083785064  nElectrons: 9.000000  magneticMoment: [ Abs: 0.92000  Tot: -0.92000 ]
LCAOMinimize: Iter:   2  F: -28.3808763331691054  |grad|_K:  3.457e-09  alpha:  4.203e-02  linmin: -5.049e-02  cgtest:  1.000e+00  t[s]:     18.98
LCAOMinimize: Encountered beta<0, resetting CG.
LCAOMinimize: Converged (|Delta F|<1.000000e-06 for 2 iters).


---- Citations for features of the code used in this run ----

   Software package:
      R. Sundararaman, K. Letchworth-Weaver, K.A. Schwarz, D. Gunceler, Y. Ozhabes and T.A. Arias, 'JDFTx: software for joint density-functional theory', SoftwareX 6, 278 (2017)

   gga-PBE exchange-correlation functional:
      J.P. Perdew, K. Burke and M. Ernzerhof, Phys. Rev. Lett. 77, 3865 (1996)

   Pseudopotentials:
      M Schlipf and F Gygi, Comput. Phys. Commun. 196, 36 (2015)

   Truncated Coulomb potentials:
      R. Sundararaman and T.A. Arias, Phys. Rev. B 87, 165122 (2013)

This list may not be complete. Please suggest additional citations or
report any other bugs at https://github.com/shankar1729/jdftx/issues

Initialization completed successfully at t[s]:     19.23


-------- Electronic minimization -----------
Will mix electronic density at each iteration.
	FillingsUpdate:  mu: -0.083785064  nElectrons: 9.000000  magneticMoment: [ Abs: 0.92000  Tot: -0.92000 ]
	FillingsUpdate:  mu: -0.083978190  nElectrons: 9.000000  magneticMoment: [ Abs: 0.92000  Tot: -0.92000 ]
SCF: Cycle:  0   F: -28.381007429872110   dF: -1.311e-04   |Residual|: 2.096e-03   |deigs|: 1.624e-01  t[s]:     27.34
	FillingsUpdate:  mu: -0.083950993  nElectrons: 9.000000  magneticMoment: [ Abs: 0.92248  Tot: -0.92000 ]
SCF: Cycle:  1   F: -28.381009836702276   dF: -2.407e-06   |Residual|: 6.114e-04   |deigs|: 1.497e-02  t[s]:     33.69
	FillingsUpdate:  mu: -0.083850903  nElectrons: 9.000000  magneticMoment: [ Abs: 0.92225  Tot: -0.92000 ]
SCF: Cycle:  2   F: -28.381010619621726   dF: -7.829e-07   |Residual|: 4.489e-04   |deigs|: 2.727e-03  t[s]:     40.20
	FillingsUpdate:  mu: -0.083715844  nElectrons: 9.000000  magneticMoment: [ Abs: 0.92262  Tot: -0.92000 ]
SCF: Cycle:  3   F: -28.381011072486839   dF: -4.529e-07   |Residual|: 3.427e-04   |deigs|: 1.441e-03  t[s]:     46.81
	FillingsUpdate:  mu: -0.083457723  nElectrons: 9.000000  magneticMoment: [ Abs: 0.92236  Tot: -0.92000 ]
SCF: Cycle:  4   F: -28.381010824336656   dF: +2.482e-07   |Residual|: 2.001e-04   |deigs|: 6.204e-04  t[s]:     53.52
	FillingsUpdate:  mu: -0.083327798  nElectrons: 9.000000  magneticMoment: [ Abs: 0.92232  Tot: -0.92000 ]
SCF: Cycle:  5   F: -28.381011170253068   dF: -3.459e-07   |Residual|: 1.372e-04   |deigs|: 4.168e-04  t[s]:     60.33
	FillingsUpdate:  mu: -0.083251488  nElectrons: 9.000000  magneticMoment: [ Abs: 0.92231  Tot: -0.92000 ]
SCF: Cycle:  6   F: -28.381011520246297   dF: -3.500e-07   |Residual|: 9.081e-05   |deigs|: 2.878e-04  t[s]:     67.33
	FillingsUpdate:  mu: -0.083225196  nElectrons: 9.000000  magneticMoment: [ Abs: 0.92241  Tot: -0.92000 ]
SCF: Cycle:  7   F: -28.381011637867818   dF: -1.176e-07   |Residual|: 6.872e-05   |deigs|: 1.834e-04  t[s]:     74.35
	FillingsUpdate:  mu: -0.083222601  nElectrons: 9.000000  magneticMoment: [ Abs: 0.92235  Tot: -0.92000 ]
SCF: Cycle:  8   F: -28.381011679905292   dF: -4.204e-08   |Residual|: 5.298e-05   |deigs|: 1.338e-04  t[s]:     81.53
	FillingsUpdate:  mu: -0.083198973  nElectrons: 9.000000  magneticMoment: [ Abs: 0.92237  Tot: -0.92000 ]
SCF: Cycle:  9   F: -28.381011661269500   dF: +1.864e-08   |Residual|: 4.129e-05   |deigs|: 1.478e-04  t[s]:     88.79
	FillingsUpdate:  mu: -0.083181483  nElectrons: 9.000000  magneticMoment: [ Abs: 0.92240  Tot: -0.92000 ]
SCF: Cycle: 10   F: -28.381011664848277   dF: -3.579e-09   |Residual|: 3.792e-05   |deigs|: 9.973e-05  t[s]:     96.26
	FillingsUpdate:  mu: -0.083142247  nElectrons: 9.000000  magneticMoment: [ Abs: 0.92248  Tot: -0.92000 ]
SCF: Cycle: 11   F: -28.381011302787993   dF: +3.621e-07   |Residual|: 3.404e-05   |deigs|: 8.511e-05  t[s]:    103.62
	FillingsUpdate:  mu: -0.083116836  nElectrons: 9.000000  magneticMoment: [ Abs: 0.92251  Tot: -0.92000 ]
SCF: Cycle: 12   F: -28.381011480489875   dF: -1.777e-07   |Residual|: 2.763e-05   |deigs|: 5.059e-05  t[s]:    110.90
	FillingsUpdate:  mu: -0.083075765  nElectrons: 9.000000  magneticMoment: [ Abs: 0.92255  Tot: -0.92000 ]
SCF: Cycle: 13   F: -28.381011459274767   dF: +2.122e-08   |Residual|: 2.460e-05   |deigs|: 5.118e-05  t[s]:    118.25
	FillingsUpdate:  mu: -0.083046371  nElectrons: 9.000000  magneticMoment: [ Abs: 0.92256  Tot: -0.92000 ]
SCF: Cycle: 14   F: -28.381011541820534   dF: -8.255e-08   |Residual|: 2.387e-05   |deigs|: 5.555e-05  t[s]:    125.68
	FillingsUpdate:  mu: -0.083023836  nElectrons: 9.000000  magneticMoment: [ Abs: 0.92251  Tot: -0.92000 ]
SCF: Cycle: 15   F: -28.381011598262909   dF: -5.644e-08   |Residual|: 2.249e-05   |deigs|: 4.480e-05  t[s]:    133.01
	FillingsUpdate:  mu: -0.083013976  nElectrons: 9.000000  magneticMoment: [ Abs: 0.92250  Tot: -0.92000 ]
SCF: Cycle: 16   F: -28.381011643204157   dF: -4.494e-08   |Residual|: 1.746e-05   |deigs|: 5.237e-05  t[s]:    140.38
	FillingsUpdate:  mu: -0.083004150  nElectrons: 9.000000  magneticMoment: [ Abs: 0.92250  Tot: -0.92000 ]
SCF: Cycle: 17   F: -28.381011797843268   dF: -1.546e-07   |Residual|: 1.513e-05   |deigs|: 3.393e-05  t[s]:    147.70
	FillingsUpdate:  mu: -0.082991366  nElectrons: 9.000000  magneticMoment: [ Abs: 0.92247  Tot: -0.92000 ]
SCF: Cycle: 18   F: -28.381011799476152   dF: -1.633e-09   |Residual|: 1.110e-05   |deigs|: 2.193e-05  t[s]:    154.62
	FillingsUpdate:  mu: -0.082980195  nElectrons: 9.000000  magneticMoment: [ Abs: 0.92241  Tot: -0.92000 ]
SCF: Cycle: 19   F: -28.381011828380760   dF: -2.890e-08   |Residual|: 7.868e-06   |deigs|: 2.728e-05  t[s]:    161.98
	FillingsUpdate:  mu: -0.082980353  nElectrons: 9.000000  magneticMoment: [ Abs: 0.92239  Tot: -0.92000 ]
SCF: Cycle: 20   F: -28.381011834999843   dF: -6.619e-09   |Residual|: 6.892e-06   |deigs|: 2.105e-05  t[s]:    169.02
	FillingsUpdate:  mu: -0.082979714  nElectrons: 9.000000  magneticMoment: [ Abs: 0.92237  Tot: -0.92000 ]
SCF: Cycle: 21   F: -28.381011858728201   dF: -2.373e-08   |Residual|: 5.512e-06   |deigs|: 2.125e-05  t[s]:    176.43
	FillingsUpdate:  mu: -0.082976742  nElectrons: 9.000000  magneticMoment: [ Abs: 0.92237  Tot: -0.92000 ]
SCF: Cycle: 22   F: -28.381011865536415   dF: -6.808e-09   |Residual|: 3.382e-06   |deigs|: 2.094e-05  t[s]:    183.73
	FillingsUpdate:  mu: -0.082976152  nElectrons: 9.000000  magneticMoment: [ Abs: 0.92237  Tot: -0.92000 ]
SCF: Cycle: 23   F: -28.381011872794737   dF: -7.258e-09   |Residual|: 2.400e-06   |deigs|: 2.228e-05  t[s]:    191.10
SCF: Converged (|Delta E|<1.000000e-08 for 2 iters).


# Ionic positions in lattice coordinates:
ion K   0.000000000000000   0.000000000000000   0.000000000000000 0

# Forces in Lattice coordinates:
force K  -0.000000000000000  -0.000000000000000   0.000000000000000 0

# Energy components:
   Eewald =       -9.0240130501663280
       EH =       13.7939271245917503
     Eloc =      -36.0056727223535660
      Enl =       -2.7665624008648204
   Epulay =        0.0000000066859396
      Exc =       -4.2467331390052152
       KE =        9.8680430387377012
-------------------------------------
     Etot =      -28.3810111423745397
       TS =        0.0000007304201959
-------------------------------------
        F =      -28.3810118727947369

IonicMinimize: Iter:   0  F: -28.381011872794737  |grad|_K:  0.000e+00  t[s]:    191.52
IonicMinimize: Converged (|grad|_K<1.000000e-04).

#--- Lowdin population analysis ---
# oxidation-state K +0.001
# magnetic-moments K -0.919

End date and time: Sat Feb  5 23:36:27 2022  (Duration: 0-0:03:11.59)
Done!
