The alkali metal is K
scale=2
magnetization=0.78
--------------------------------------------------------------------------
The library attempted to open the following supporting CUDA libraries,
but each of them failed.  CUDA-aware support is disabled.
libcuda.so.1: cannot open shared object file: No such file or directory
libcuda.dylib: cannot open shared object file: No such file or directory
/usr/lib64/libcuda.so.1: cannot open shared object file: No such file or directory
/usr/lib64/libcuda.dylib: cannot open shared object file: No such file or directory
If you are not interested in CUDA-aware support, then run with
--mca opal_warn_on_missing_libcuda 0 to suppress this message.  If you are interested
in CUDA-aware support, then try setting LD_LIBRARY_PATH to the location
of libcuda.so.1 to get passed this issue.
--------------------------------------------------------------------------
--------------------------------------------------------------------------
No OpenFabrics connection schemes reported that they were able to be
used on a specific port.  As such, the openib BTL (OpenFabrics
support) will be disabled for this port.

  Local host:           d-16-6-2
  Local device:         mlx5_1
  Local port:           1
  CPCs attempted:       rdmacm, udcm
--------------------------------------------------------------------------

*************** JDFTx 1.6.0 (git hash 42ebbcc2) ***************

Start date and time: Sat Feb  5 23:49:25 2022
Executable jdftx with command-line: -i Alkali.in
Running on hosts (process indices):  d-16-6-2 (0-18)
Divided in process groups (process indices):  0 (0)  1 (1)  2 (2)  3 (3)  4 (4)  5 (5)  6 (6)  7 (7)  8 (8)  9 (9)  10 (10)  11 (11)  12 (12)  13 (13)  14 (14)  15 (15)  16 (16)  17 (17)  18 (18)
Resource initialization completed at t[s]:      0.00
Run totals: 19 processes, 48 threads, 0 GPUs


Input parsed successfully to the following command list (including defaults):

basis kpoint-dependent
coords-type Lattice
core-overlap-check vector
coulomb-interaction Slab 001
davidson-band-ratio 1.1
dump End None
dump-name $INPUT.$VAR
elec-cutoff 20
elec-eigen-algo Davidson
elec-ex-corr gga-PBE
elec-initial-magnetization 0.780000 yes
elec-smearing Fermi 1e-05
electronic-minimize  \
	dirUpdateScheme      FletcherReeves \
	linminMethod         DirUpdateRecommended \
	nIterations          100 \
	history              15 \
	knormThreshold       0 \
	energyDiffThreshold  1e-08 \
	nEnergyDiff          2 \
	alphaTstart          1 \
	alphaTmin            1e-10 \
	updateTestStepSize   yes \
	alphaTreduceFactor   0.1 \
	alphaTincreaseFactor 3 \
	nAlphaAdjustMax      3 \
	wolfeEnergy          0.0001 \
	wolfeGradient        0.9 \
	fdTest               no
electronic-scf  \
	nIterations	10000 \
	energyDiffThreshold	1e-08 \
	residualThreshold	1e-07 \
	mixFraction	0.5 \
	qMetric	0.8 \
	history	10 \
	nEigSteps	2 \
	eigDiffThreshold	1e-08 \
	mixedVariable	Density \
	qKerker	0.8 \
	qKappa	-1 \
	verbose	no \
	mixFractionMag	1.5
exchange-regularization WignerSeitzTruncated
fluid None
fluid-ex-corr (null) lda-PZ
fluid-gummel-loop 10 1.000000e-05
fluid-minimize  \
	dirUpdateScheme      PolakRibiere \
	linminMethod         DirUpdateRecommended \
	nIterations          100 \
	history              15 \
	knormThreshold       0 \
	energyDiffThreshold  0 \
	nEnergyDiff          2 \
	alphaTstart          1 \
	alphaTmin            1e-10 \
	updateTestStepSize   yes \
	alphaTreduceFactor   0.1 \
	alphaTincreaseFactor 3 \
	nAlphaAdjustMax      3 \
	wolfeEnergy          0.0001 \
	wolfeGradient        0.9 \
	fdTest               no
fluid-solvent H2O 55.338 ScalarEOS \
	epsBulk 78.4 \
	pMol 0.92466 \
	epsInf 1.77 \
	Pvap 1.06736e-10 \
	sigmaBulk 4.62e-05 \
	Rvdw 2.61727 \
	Res 1.42 \
	tauNuc 343133 \
	poleEl 15 7 1
forces-output-coords Positions
ion K   0.000000000000000   0.000000000000000   0.000000000000000 0
ion-species SG15/$ID_ONCV_PBE.upf
ion-width 0
ionic-minimize  \
	dirUpdateScheme      L-BFGS \
	linminMethod         DirUpdateRecommended \
	nIterations          0 \
	history              15 \
	knormThreshold       0.0001 \
	energyDiffThreshold  1e-06 \
	nEnergyDiff          2 \
	alphaTstart          1 \
	alphaTmin            1e-10 \
	updateTestStepSize   yes \
	alphaTreduceFactor   0.1 \
	alphaTincreaseFactor 3 \
	nAlphaAdjustMax      3 \
	wolfeEnergy          0.0001 \
	wolfeGradient        0.9 \
	fdTest               no
kpoint   0.000000000000   0.000000000000   0.000000000000  1.00000000000000
kpoint-folding 12 12 1 
latt-move-scale 1 1 1
latt-scale 2 2 1 
lattice  \
	   4.727486978767153   -2.363743489383575    0.000000000000000  \
	  -0.000000000000000    4.094123819672498    0.000000000000000  \
	   0.000000000000000    0.000000000000000   40.000000000000000 
lattice-minimize  \
	dirUpdateScheme      L-BFGS \
	linminMethod         DirUpdateRecommended \
	nIterations          0 \
	history              15 \
	knormThreshold       0 \
	energyDiffThreshold  1e-06 \
	nEnergyDiff          2 \
	alphaTstart          1 \
	alphaTmin            1e-10 \
	updateTestStepSize   yes \
	alphaTreduceFactor   0.1 \
	alphaTincreaseFactor 3 \
	nAlphaAdjustMax      3 \
	wolfeEnergy          0.0001 \
	wolfeGradient        0.9 \
	fdTest               no
lcao-params -1 1e-06 1e-05
pcm-variant GLSSA13
spintype z-spin
subspace-rotation-factor 1 yes
symmetries automatic
symmetry-threshold 0.0001



---------- Setting up symmetries ----------

Found 24 point-group symmetries of the bravais lattice
Found 24 space-group symmetries with basis
Applied RMS atom displacement 0 bohrs to make symmetries exact.

---------- Initializing the Grid ----------
R = 
[      9.45497     -4.72749            0  ]
[            0      8.18825            0  ]
[            0            0           40  ]
unit cell volume = 3096.79
G =
[   0.664538   0.383671         -0  ]
[          0   0.767342         -0  ]
[         -0         -0    0.15708  ]
Minimum fftbox size, Smin = [  40  40  164  ]
Chosen fftbox size, S = [  40  40  168  ]

---------- Exchange Correlation functional ----------
Initalized PBE GGA exchange.
Initalized PBE GGA correlation.

---------- Setting up pseudopotentials ----------
Width of ionic core gaussian charges (only for fluid interactions / plotting) set to 0

Reading pseudopotential file '/home/gridsan/aligho/DFT/build-Nov24/pseudopotentials/SG15/K_ONCV_PBE.upf':
  'K' pseudopotential, 'PBE' functional
  Generated using ONCVPSP code by D. R. Hamann
  Author: Martin Schlipf and Francois Gygi  Date: 150915.
  9 valence electrons, 3 orbitals, 6 projectors, 2222 radial grid points, with lMax = 2
  Transforming local potential to a uniform radial grid of dG=0.02 with 1489 points.
  Transforming nonlocal projectors to a uniform radial grid of dG=0.02 with 432 points.
    3S    l: 0   occupation:  2.0   eigenvalue: -1.298836
    3P    l: 1   occupation:  6.0   eigenvalue: -0.691386
    4S    l: 0   occupation:  1.0   eigenvalue: -0.085223
  Transforming atomic orbitals to a uniform radial grid of dG=0.02 with 432 points.
  Core radius for overlap checks: 2.06 bohrs.
  Reading pulay file /home/gridsan/aligho/DFT/build-Nov24/pseudopotentials/SG15/K_ONCV_PBE.pulay ... using dE_dnG = -1.597219e-05 computed for Ecut = 20.

Initialized 1 species with 1 total atoms.

Folded 1 k-points by 12x12x1 to 144 k-points.

---------- Setting up k-points, bands, fillings ----------
Reduced to 19 k-points under symmetry. 
Computing the number of bands and number of electrons
Calculating initial fillings.
nElectrons:   9.000000   nBands: 6   nStates: 38

----- Setting up reduced wavefunction bases (one per k-point) -----
average nbasis = 13230.521 , ideal nbasis = 13229.709

---------- Setting up coulomb interaction ----------
Initialized slab truncation along lattice direction 001

---------- Setting up 2D ewald sum ----------
Optimum gaussian width for ewald sums = 5.249020 bohr.
Real space sums over 289 unit cells with max indices [  8  8  0  ]
Reciprocal space sums over 81 terms with max indices [  4  4  0  ]

---------- Allocating electronic variables ----------
Initializing wave functions:  linear combination of atomic orbitals
Note: number of bands (6) exceeds available atomic orbitals (5)
K pseudo-atom occupations:   s ( 2 1 )  p ( 6 )
	FillingsUpdate:  mu: -0.094635719  nElectrons: 9.000000  magneticMoment: [ Abs: 0.78000  Tot: +0.78000 ]
LCAOMinimize: Iter:   0  F: -28.3856100105979010  |grad|_K:  1.619e-05  alpha:  1.000e+00
	FillingsUpdate:  mu: -0.094631746  nElectrons: 9.000000  magneticMoment: [ Abs: 0.78000  Tot: +0.78000 ]
LCAOMinimize: Iter:   1  F: -28.3856101871738211  |grad|_K:  1.446e-07  alpha:  9.847e-01  linmin: -1.359e-02  cgtest:  2.497e-01  t[s]:      4.48
LCAOMinimize: Encountered beta<0, resetting CG.
[d-16-6-2:22897] 18 more processes have sent help message help-mpi-common-cuda.txt / dlopen failed
[d-16-6-2:22897] Set MCA parameter "orte_base_help_aggregate" to 0 to see all help / error messages
[d-16-6-2:22897] 18 more processes have sent help message help-mpi-btl-openib-cpc-base.txt / no cpcs for port
	FillingsUpdate:  mu: -0.094631785  nElectrons: 9.000000  magneticMoment: [ Abs: 0.78000  Tot: +0.78000 ]
LCAOMinimize: Iter:   2  F: -28.3856101871887638  |grad|_K:  9.993e-09  alpha:  1.068e+00  linmin:  1.102e-01  cgtest: -9.963e-01  t[s]:      5.65
LCAOMinimize: Converged (|Delta F|<1.000000e-06 for 2 iters).


---- Citations for features of the code used in this run ----

   Software package:
      R. Sundararaman, K. Letchworth-Weaver, K.A. Schwarz, D. Gunceler, Y. Ozhabes and T.A. Arias, 'JDFTx: software for joint density-functional theory', SoftwareX 6, 278 (2017)

   gga-PBE exchange-correlation functional:
      J.P. Perdew, K. Burke and M. Ernzerhof, Phys. Rev. Lett. 77, 3865 (1996)

   Pseudopotentials:
      M Schlipf and F Gygi, Comput. Phys. Commun. 196, 36 (2015)

   Truncated Coulomb potentials:
      R. Sundararaman and T.A. Arias, Phys. Rev. B 87, 165122 (2013)

This list may not be complete. Please suggest additional citations or
report any other bugs at https://github.com/shankar1729/jdftx/issues

Initialization completed successfully at t[s]:      5.74


-------- Electronic minimization -----------
Will mix electronic density at each iteration.
	FillingsUpdate:  mu: -0.094631785  nElectrons: 9.000000  magneticMoment: [ Abs: 0.78000  Tot: +0.78000 ]
	FillingsUpdate:  mu: -0.104717657  nElectrons: 9.000000  magneticMoment: [ Abs: 0.78000  Tot: +0.78000 ]
SCF: Cycle:  0   F: -28.395093592872730   dF: -9.483e-03   |Residual|: 1.499e-02   |deigs|: 1.731e-01  t[s]:      8.11
	FillingsUpdate:  mu: -0.109001678  nElectrons: 9.000000  magneticMoment: [ Abs: 0.78000  Tot: +0.78000 ]
SCF: Cycle:  1   F: -28.395580482503782   dF: -4.869e-04   |Residual|: 1.123e-02   |deigs|: 9.220e-03  t[s]:      9.87
	FillingsUpdate:  mu: -0.108670817  nElectrons: 9.000000  magneticMoment: [ Abs: 0.78245  Tot: +0.78000 ]
SCF: Cycle:  2   F: -28.395732935539151   dF: -1.525e-04   |Residual|: 7.219e-03   |deigs|: 3.737e-03  t[s]:     11.74
	FillingsUpdate:  mu: -0.104831120  nElectrons: 9.000000  magneticMoment: [ Abs: 0.78000  Tot: +0.78000 ]
SCF: Cycle:  3   F: -28.395843187615391   dF: -1.103e-04   |Residual|: 3.679e-03   |deigs|: 3.386e-03  t[s]:     13.57
	FillingsUpdate:  mu: -0.102768711  nElectrons: 9.000000  magneticMoment: [ Abs: 0.78002  Tot: +0.78000 ]
SCF: Cycle:  4   F: -28.395899823779565   dF: -5.664e-05   |Residual|: 2.207e-03   |deigs|: 4.674e-03  t[s]:     15.45
	FillingsUpdate:  mu: -0.101326657  nElectrons: 9.000000  magneticMoment: [ Abs: 0.78006  Tot: +0.78000 ]
SCF: Cycle:  5   F: -28.395923446468423   dF: -2.362e-05   |Residual|: 1.837e-03   |deigs|: 3.224e-03  t[s]:     17.35
	FillingsUpdate:  mu: -0.098804222  nElectrons: 9.000000  magneticMoment: [ Abs: 0.78517  Tot: +0.78000 ]
SCF: Cycle:  6   F: -28.395932379169317   dF: -8.933e-06   |Residual|: 1.386e-03   |deigs|: 2.733e-03  t[s]:     19.29
	FillingsUpdate:  mu: -0.096950425  nElectrons: 9.000000  magneticMoment: [ Abs: 0.78498  Tot: +0.78000 ]
SCF: Cycle:  7   F: -28.395961848400670   dF: -2.947e-05   |Residual|: 1.004e-03   |deigs|: 2.672e-03  t[s]:     21.22
	FillingsUpdate:  mu: -0.096509488  nElectrons: 9.000000  magneticMoment: [ Abs: 0.78170  Tot: +0.78000 ]
SCF: Cycle:  8   F: -28.395987249862152   dF: -2.540e-05   |Residual|: 8.518e-04   |deigs|: 1.000e-03  t[s]:     23.16
	FillingsUpdate:  mu: -0.095580168  nElectrons: 9.000000  magneticMoment: [ Abs: 0.78019  Tot: +0.78000 ]
SCF: Cycle:  9   F: -28.395994347428122   dF: -7.098e-06   |Residual|: 6.754e-04   |deigs|: 9.773e-04  t[s]:     25.13
	FillingsUpdate:  mu: -0.094344735  nElectrons: 9.000000  magneticMoment: [ Abs: 0.78259  Tot: +0.78000 ]
SCF: Cycle: 10   F: -28.395996973731560   dF: -2.626e-06   |Residual|: 5.918e-04   |deigs|: 1.329e-03  t[s]:     27.11
	FillingsUpdate:  mu: -0.093764113  nElectrons: 9.000000  magneticMoment: [ Abs: 0.78331  Tot: +0.78000 ]
SCF: Cycle: 11   F: -28.396001768504103   dF: -4.795e-06   |Residual|: 5.097e-04   |deigs|: 5.316e-04  t[s]:     29.13
	FillingsUpdate:  mu: -0.092972569  nElectrons: 9.000000  magneticMoment: [ Abs: 0.78339  Tot: +0.78000 ]
SCF: Cycle: 12   F: -28.396008236112021   dF: -6.468e-06   |Residual|: 4.976e-04   |deigs|: 7.630e-04  t[s]:     31.14
	FillingsUpdate:  mu: -0.091928403  nElectrons: 9.000000  magneticMoment: [ Abs: 0.78381  Tot: +0.78000 ]
SCF: Cycle: 13   F: -28.396011362365030   dF: -3.126e-06   |Residual|: 4.171e-04   |deigs|: 1.135e-03  t[s]:     33.09
	FillingsUpdate:  mu: -0.090304706  nElectrons: 9.000000  magneticMoment: [ Abs: 0.78270  Tot: +0.78000 ]
SCF: Cycle: 14   F: -28.396016099054332   dF: -4.737e-06   |Residual|: 3.882e-04   |deigs|: 1.732e-03  t[s]:     35.09
	FillingsUpdate:  mu: -0.089481885  nElectrons: 9.000000  magneticMoment: [ Abs: 0.78135  Tot: +0.78000 ]
SCF: Cycle: 15   F: -28.396018573903973   dF: -2.475e-06   |Residual|: 3.453e-04   |deigs|: 9.721e-04  t[s]:     37.10
	FillingsUpdate:  mu: -0.088650109  nElectrons: 9.000000  magneticMoment: [ Abs: 0.78103  Tot: +0.78000 ]
SCF: Cycle: 16   F: -28.396028259079166   dF: -9.685e-06   |Residual|: 4.670e-04   |deigs|: 9.965e-04  t[s]:     39.08
	FillingsUpdate:  mu: -0.088825197  nElectrons: 9.000000  magneticMoment: [ Abs: 0.78097  Tot: +0.78000 ]
SCF: Cycle: 17   F: -28.396028630646871   dF: -3.716e-07   |Residual|: 4.200e-04   |deigs|: 4.383e-04  t[s]:     40.77
	FillingsUpdate:  mu: -0.089154796  nElectrons: 9.000000  magneticMoment: [ Abs: 0.78067  Tot: +0.78000 ]
SCF: Cycle: 18   F: -28.396029794473939   dF: -1.164e-06   |Residual|: 2.819e-04   |deigs|: 4.694e-04  t[s]:     42.78
	FillingsUpdate:  mu: -0.089059325  nElectrons: 9.000000  magneticMoment: [ Abs: 0.78052  Tot: +0.78000 ]
SCF: Cycle: 19   F: -28.396030949424091   dF: -1.155e-06   |Residual|: 1.190e-04   |deigs|: 1.869e-04  t[s]:     44.87
	FillingsUpdate:  mu: -0.088940641  nElectrons: 9.000000  magneticMoment: [ Abs: 0.78071  Tot: +0.78000 ]
SCF: Cycle: 20   F: -28.396031430590824   dF: -4.812e-07   |Residual|: 7.945e-05   |deigs|: 5.391e-04  t[s]:     46.97
	FillingsUpdate:  mu: -0.088856870  nElectrons: 9.000000  magneticMoment: [ Abs: 0.78072  Tot: +0.78000 ]
SCF: Cycle: 21   F: -28.396031801466570   dF: -3.709e-07   |Residual|: 5.831e-05   |deigs|: 4.301e-04  t[s]:     48.93
	FillingsUpdate:  mu: -0.088747205  nElectrons: 9.000000  magneticMoment: [ Abs: 0.78077  Tot: +0.78000 ]
SCF: Cycle: 22   F: -28.396032006805047   dF: -2.053e-07   |Residual|: 2.998e-05   |deigs|: 1.282e-04  t[s]:     50.91
	FillingsUpdate:  mu: -0.088740314  nElectrons: 9.000000  magneticMoment: [ Abs: 0.78068  Tot: +0.78000 ]
SCF: Cycle: 23   F: -28.396032056415567   dF: -4.961e-08   |Residual|: 2.190e-05   |deigs|: 5.995e-05  t[s]:     52.82
	FillingsUpdate:  mu: -0.088706667  nElectrons: 9.000000  magneticMoment: [ Abs: 0.78053  Tot: +0.78000 ]
SCF: Cycle: 24   F: -28.396032122650670   dF: -6.624e-08   |Residual|: 1.945e-05   |deigs|: 4.489e-05  t[s]:     54.87
	FillingsUpdate:  mu: -0.088682854  nElectrons: 9.000000  magneticMoment: [ Abs: 0.78037  Tot: +0.78000 ]
SCF: Cycle: 25   F: -28.396032145462193   dF: -2.281e-08   |Residual|: 1.928e-05   |deigs|: 3.270e-05  t[s]:     56.98
	FillingsUpdate:  mu: -0.088679984  nElectrons: 9.000000  magneticMoment: [ Abs: 0.78018  Tot: +0.78000 ]
SCF: Cycle: 26   F: -28.396032184369272   dF: -3.891e-08   |Residual|: 1.352e-05   |deigs|: 1.375e-05  t[s]:     59.01
	FillingsUpdate:  mu: -0.088708948  nElectrons: 9.000000  magneticMoment: [ Abs: 0.78008  Tot: +0.78000 ]
SCF: Cycle: 27   F: -28.396032198884413   dF: -1.452e-08   |Residual|: 6.963e-06   |deigs|: 3.411e-05  t[s]:     60.97
	FillingsUpdate:  mu: -0.088716542  nElectrons: 9.000000  magneticMoment: [ Abs: 0.78005  Tot: +0.78000 ]
SCF: Cycle: 28   F: -28.396032208945499   dF: -1.006e-08   |Residual|: 4.551e-06   |deigs|: 1.713e-05  t[s]:     62.98
	FillingsUpdate:  mu: -0.088718426  nElectrons: 9.000000  magneticMoment: [ Abs: 0.78005  Tot: +0.78000 ]
SCF: Cycle: 29   F: -28.396032214388100   dF: -5.443e-09   |Residual|: 2.881e-06   |deigs|: 1.543e-05  t[s]:     64.93
	FillingsUpdate:  mu: -0.088717603  nElectrons: 9.000000  magneticMoment: [ Abs: 0.78005  Tot: +0.78000 ]
SCF: Cycle: 30   F: -28.396032219195639   dF: -4.808e-09   |Residual|: 1.986e-06   |deigs|: 1.135e-05  t[s]:     66.90
SCF: Converged (|Delta E|<1.000000e-08 for 2 iters).


# Ionic positions in lattice coordinates:
ion K   0.000000000000000   0.000000000000000   0.000000000000000 0

# Forces in Lattice coordinates:
force K   0.000000000000000  -0.000000000000000   0.000000000000000 0

# Energy components:
   Eewald =      -18.0480261003326561
       EH =        4.8861846652449650
     Eloc =      -18.0785815895532309
      Enl =       -2.7785219946501067
   Epulay =        0.0000000041876954
      Exc =       -4.2684948546101564
       KE =        9.8914079977450964
-------------------------------------
     Etot =      -28.3960318719683897
       TS =        0.0000003472272510
-------------------------------------
        F =      -28.3960322191956394

IonicMinimize: Iter:   0  F: -28.396032219195639  |grad|_K:  0.000e+00  t[s]:     67.01
IonicMinimize: Converged (|grad|_K<1.000000e-04).

#--- Lowdin population analysis ---
# oxidation-state K +0.149
# magnetic-moments K +0.634

End date and time: Sat Feb  5 23:50:32 2022  (Duration: 0-0:01:07.03)
Done!
scale=3
magnetization=0.78
--------------------------------------------------------------------------
The library attempted to open the following supporting CUDA libraries,
but each of them failed.  CUDA-aware support is disabled.
libcuda.so.1: cannot open shared object file: No such file or directory
libcuda.dylib: cannot open shared object file: No such file or directory
/usr/lib64/libcuda.so.1: cannot open shared object file: No such file or directory
/usr/lib64/libcuda.dylib: cannot open shared object file: No such file or directory
If you are not interested in CUDA-aware support, then run with
--mca opal_warn_on_missing_libcuda 0 to suppress this message.  If you are interested
in CUDA-aware support, then try setting LD_LIBRARY_PATH to the location
of libcuda.so.1 to get passed this issue.
--------------------------------------------------------------------------
--------------------------------------------------------------------------
No OpenFabrics connection schemes reported that they were able to be
used on a specific port.  As such, the openib BTL (OpenFabrics
support) will be disabled for this port.

  Local host:           d-16-6-2
  Local device:         mlx5_1
  Local port:           1
  CPCs attempted:       rdmacm, udcm
--------------------------------------------------------------------------

*************** JDFTx 1.6.0 (git hash 42ebbcc2) ***************

Start date and time: Sat Feb  5 23:50:33 2022
Executable jdftx with command-line: -i Alkali.in
Running on hosts (process indices):  d-16-6-2 (0-18)
Divided in process groups (process indices):  0 (0)  1 (1)  2 (2)  3 (3)  4 (4)  5 (5)  6 (6)  7 (7)  8 (8)  9 (9)  10 (10)  11 (11)  12 (12)  13 (13)  14 (14)  15 (15)  16 (16)  17 (17)  18 (18)
Resource initialization completed at t[s]:      0.00
Run totals: 19 processes, 48 threads, 0 GPUs


Input parsed successfully to the following command list (including defaults):

basis kpoint-dependent
coords-type Lattice
core-overlap-check vector
coulomb-interaction Slab 001
davidson-band-ratio 1.1
dump End None
dump-name $INPUT.$VAR
elec-cutoff 20
elec-eigen-algo Davidson
elec-ex-corr gga-PBE
elec-initial-magnetization 0.780000 yes
elec-smearing Fermi 1e-05
electronic-minimize  \
	dirUpdateScheme      FletcherReeves \
	linminMethod         DirUpdateRecommended \
	nIterations          100 \
	history              15 \
	knormThreshold       0 \
	energyDiffThreshold  1e-08 \
	nEnergyDiff          2 \
	alphaTstart          1 \
	alphaTmin            1e-10 \
	updateTestStepSize   yes \
	alphaTreduceFactor   0.1 \
	alphaTincreaseFactor 3 \
	nAlphaAdjustMax      3 \
	wolfeEnergy          0.0001 \
	wolfeGradient        0.9 \
	fdTest               no
electronic-scf  \
	nIterations	10000 \
	energyDiffThreshold	1e-08 \
	residualThreshold	1e-07 \
	mixFraction	0.5 \
	qMetric	0.8 \
	history	10 \
	nEigSteps	2 \
	eigDiffThreshold	1e-08 \
	mixedVariable	Density \
	qKerker	0.8 \
	qKappa	-1 \
	verbose	no \
	mixFractionMag	1.5
exchange-regularization WignerSeitzTruncated
fluid None
fluid-ex-corr (null) lda-PZ
fluid-gummel-loop 10 1.000000e-05
fluid-minimize  \
	dirUpdateScheme      PolakRibiere \
	linminMethod         DirUpdateRecommended \
	nIterations          100 \
	history              15 \
	knormThreshold       0 \
	energyDiffThreshold  0 \
	nEnergyDiff          2 \
	alphaTstart          1 \
	alphaTmin            1e-10 \
	updateTestStepSize   yes \
	alphaTreduceFactor   0.1 \
	alphaTincreaseFactor 3 \
	nAlphaAdjustMax      3 \
	wolfeEnergy          0.0001 \
	wolfeGradient        0.9 \
	fdTest               no
fluid-solvent H2O 55.338 ScalarEOS \
	epsBulk 78.4 \
	pMol 0.92466 \
	epsInf 1.77 \
	Pvap 1.06736e-10 \
	sigmaBulk 4.62e-05 \
	Rvdw 2.61727 \
	Res 1.42 \
	tauNuc 343133 \
	poleEl 15 7 1
forces-output-coords Positions
ion K   0.000000000000000   0.000000000000000   0.000000000000000 0
ion-species SG15/$ID_ONCV_PBE.upf
ion-width 0
ionic-minimize  \
	dirUpdateScheme      L-BFGS \
	linminMethod         DirUpdateRecommended \
	nIterations          0 \
	history              15 \
	knormThreshold       0.0001 \
	energyDiffThreshold  1e-06 \
	nEnergyDiff          2 \
	alphaTstart          1 \
	alphaTmin            1e-10 \
	updateTestStepSize   yes \
	alphaTreduceFactor   0.1 \
	alphaTincreaseFactor 3 \
	nAlphaAdjustMax      3 \
	wolfeEnergy          0.0001 \
	wolfeGradient        0.9 \
	fdTest               no
kpoint   0.000000000000   0.000000000000   0.000000000000  1.00000000000000
kpoint-folding 12 12 1 
latt-move-scale 1 1 1
latt-scale 3 3 1 
lattice  \
	   4.727486978767153   -2.363743489383575    0.000000000000000  \
	  -0.000000000000000    4.094123819672498    0.000000000000000  \
	   0.000000000000000    0.000000000000000   40.000000000000000 
lattice-minimize  \
	dirUpdateScheme      L-BFGS \
	linminMethod         DirUpdateRecommended \
	nIterations          0 \
	history              15 \
	knormThreshold       0 \
	energyDiffThreshold  1e-06 \
	nEnergyDiff          2 \
	alphaTstart          1 \
	alphaTmin            1e-10 \
	updateTestStepSize   yes \
	alphaTreduceFactor   0.1 \
	alphaTincreaseFactor 3 \
	nAlphaAdjustMax      3 \
	wolfeEnergy          0.0001 \
	wolfeGradient        0.9 \
	fdTest               no
lcao-params -1 1e-06 1e-05
pcm-variant GLSSA13
spintype z-spin
subspace-rotation-factor 1 yes
symmetries automatic
symmetry-threshold 0.0001



---------- Setting up symmetries ----------

Found 24 point-group symmetries of the bravais lattice
Found 24 space-group symmetries with basis
Applied RMS atom displacement 0 bohrs to make symmetries exact.

---------- Initializing the Grid ----------
R = 
[      14.1825     -7.09123            0  ]
[            0      12.2824            0  ]
[            0            0           40  ]
unit cell volume = 6967.77
G =
[   0.443025   0.255781         -0  ]
[          0   0.511561         -0  ]
[         -0         -0    0.15708  ]
Minimum fftbox size, Smin = [  60  60  164  ]
Chosen fftbox size, S = [  60  60  168  ]

---------- Exchange Correlation functional ----------
Initalized PBE GGA exchange.
Initalized PBE GGA correlation.

---------- Setting up pseudopotentials ----------
Width of ionic core gaussian charges (only for fluid interactions / plotting) set to 0

Reading pseudopotential file '/home/gridsan/aligho/DFT/build-Nov24/pseudopotentials/SG15/K_ONCV_PBE.upf':
  'K' pseudopotential, 'PBE' functional
  Generated using ONCVPSP code by D. R. Hamann
  Author: Martin Schlipf and Francois Gygi  Date: 150915.
  9 valence electrons, 3 orbitals, 6 projectors, 2222 radial grid points, with lMax = 2
  Transforming local potential to a uniform radial grid of dG=0.02 with 1489 points.
  Transforming nonlocal projectors to a uniform radial grid of dG=0.02 with 432 points.
    3S    l: 0   occupation:  2.0   eigenvalue: -1.298836
    3P    l: 1   occupation:  6.0   eigenvalue: -0.691386
    4S    l: 0   occupation:  1.0   eigenvalue: -0.085223
  Transforming atomic orbitals to a uniform radial grid of dG=0.02 with 432 points.
  Core radius for overlap checks: 2.06 bohrs.
  Reading pulay file /home/gridsan/aligho/DFT/build-Nov24/pseudopotentials/SG15/K_ONCV_PBE.pulay ... using dE_dnG = -1.597219e-05 computed for Ecut = 20.

Initialized 1 species with 1 total atoms.

Folded 1 k-points by 12x12x1 to 144 k-points.

---------- Setting up k-points, bands, fillings ----------
Reduced to 19 k-points under symmetry. 
Computing the number of bands and number of electrons
Calculating initial fillings.
nElectrons:   9.000000   nBands: 6   nStates: 38

----- Setting up reduced wavefunction bases (one per k-point) -----
average nbasis = 29766.104 , ideal nbasis = 29766.845

---------- Setting up coulomb interaction ----------
Initialized slab truncation along lattice direction 001

---------- Setting up 2D ewald sum ----------
Optimum gaussian width for ewald sums = 7.873530 bohr.
Real space sums over 289 unit cells with max indices [  8  8  0  ]
Reciprocal space sums over 81 terms with max indices [  4  4  0  ]

---------- Allocating electronic variables ----------
Initializing wave functions:  linear combination of atomic orbitals
Note: number of bands (6) exceeds available atomic orbitals (5)
K pseudo-atom occupations:   s ( 2 1 )  p ( 6 )
[d-16-6-2:49101] 18 more processes have sent help message help-mpi-common-cuda.txt / dlopen failed
[d-16-6-2:49101] Set MCA parameter "orte_base_help_aggregate" to 0 to see all help / error messages
[d-16-6-2:49101] 18 more processes have sent help message help-mpi-btl-openib-cpc-base.txt / no cpcs for port
	FillingsUpdate:  mu: -0.088304289  nElectrons: 9.000000  magneticMoment: [ Abs: 0.78000  Tot: +0.78000 ]
LCAOMinimize: Iter:   0  F: -28.3819314953824069  |grad|_K:  7.851e-06  alpha:  1.000e+00
	FillingsUpdate:  mu: -0.088302863  nElectrons: 9.000000  magneticMoment: [ Abs: 0.78000  Tot: +0.78000 ]
LCAOMinimize: Iter:   1  F: -28.3819315372751753  |grad|_K:  4.923e-08  alpha:  9.936e-01  linmin: -6.325e-03  cgtest:  1.561e-01  t[s]:      8.73
LCAOMinimize: Encountered beta<0, resetting CG.
	FillingsUpdate:  mu: -0.088302868  nElectrons: 9.000000  magneticMoment: [ Abs: 0.78000  Tot: +0.78000 ]
LCAOMinimize: Iter:   2  F: -28.3819315372769871  |grad|_K:  2.899e-09  alpha:  9.381e-01  linmin: -1.369e-01  cgtest:  9.954e-01  t[s]:     11.12
LCAOMinimize: Encountered beta<0, resetting CG.
LCAOMinimize: Converged (|Delta F|<1.000000e-06 for 2 iters).


---- Citations for features of the code used in this run ----

   Software package:
      R. Sundararaman, K. Letchworth-Weaver, K.A. Schwarz, D. Gunceler, Y. Ozhabes and T.A. Arias, 'JDFTx: software for joint density-functional theory', SoftwareX 6, 278 (2017)

   gga-PBE exchange-correlation functional:
      J.P. Perdew, K. Burke and M. Ernzerhof, Phys. Rev. Lett. 77, 3865 (1996)

   Pseudopotentials:
      M Schlipf and F Gygi, Comput. Phys. Commun. 196, 36 (2015)

   Truncated Coulomb potentials:
      R. Sundararaman and T.A. Arias, Phys. Rev. B 87, 165122 (2013)

This list may not be complete. Please suggest additional citations or
report any other bugs at https://github.com/shankar1729/jdftx/issues

Initialization completed successfully at t[s]:     11.28


-------- Electronic minimization -----------
Will mix electronic density at each iteration.
	FillingsUpdate:  mu: -0.088302868  nElectrons: 9.000000  magneticMoment: [ Abs: 0.78000  Tot: +0.78000 ]
	FillingsUpdate:  mu: -0.088922995  nElectrons: 9.000000  magneticMoment: [ Abs: 0.78000  Tot: +0.78000 ]
SCF: Cycle:  0   F: -28.382979870604796   dF: -1.048e-03   |Residual|: 3.190e-03   |deigs|: 1.737e-01  t[s]:     16.01
	FillingsUpdate:  mu: -0.089100435  nElectrons: 9.000000  magneticMoment: [ Abs: 0.78042  Tot: +0.78000 ]
SCF: Cycle:  1   F: -28.383009937259285   dF: -3.007e-05   |Residual|: 2.100e-03   |deigs|: 5.192e-03  t[s]:     19.66
	FillingsUpdate:  mu: -0.089221292  nElectrons: 9.000000  magneticMoment: [ Abs: 0.78150  Tot: +0.78000 ]
SCF: Cycle:  2   F: -28.383030784166355   dF: -2.085e-05   |Residual|: 1.636e-03   |deigs|: 3.012e-03  t[s]:     23.38
	FillingsUpdate:  mu: -0.089472353  nElectrons: 9.000000  magneticMoment: [ Abs: 0.78191  Tot: +0.78000 ]
SCF: Cycle:  3   F: -28.383049361044012   dF: -1.858e-05   |Residual|: 1.193e-03   |deigs|: 1.932e-03  t[s]:     27.17
	FillingsUpdate:  mu: -0.089583637  nElectrons: 9.000000  magneticMoment: [ Abs: 0.78141  Tot: +0.78000 ]
SCF: Cycle:  4   F: -28.383064247131582   dF: -1.489e-05   |Residual|: 7.431e-04   |deigs|: 1.825e-03  t[s]:     31.00
	FillingsUpdate:  mu: -0.089650760  nElectrons: 9.000000  magneticMoment: [ Abs: 0.78168  Tot: +0.78000 ]
SCF: Cycle:  5   F: -28.383072488913566   dF: -8.242e-06   |Residual|: 3.932e-04   |deigs|: 1.141e-03  t[s]:     34.86
	FillingsUpdate:  mu: -0.089619387  nElectrons: 9.000000  magneticMoment: [ Abs: 0.78133  Tot: +0.78000 ]
SCF: Cycle:  6   F: -28.383075648583215   dF: -3.160e-06   |Residual|: 2.836e-04   |deigs|: 1.595e-03  t[s]:     38.81
	FillingsUpdate:  mu: -0.089500097  nElectrons: 9.000000  magneticMoment: [ Abs: 0.78170  Tot: +0.78000 ]
SCF: Cycle:  7   F: -28.383078110449333   dF: -2.462e-06   |Residual|: 2.173e-04   |deigs|: 9.646e-04  t[s]:     42.82
	FillingsUpdate:  mu: -0.089362506  nElectrons: 9.000000  magneticMoment: [ Abs: 0.78184  Tot: +0.78000 ]
SCF: Cycle:  8   F: -28.383078814162989   dF: -7.037e-07   |Residual|: 1.766e-04   |deigs|: 4.616e-04  t[s]:     47.00
	FillingsUpdate:  mu: -0.089123823  nElectrons: 9.000000  magneticMoment: [ Abs: 0.78221  Tot: +0.78000 ]
SCF: Cycle:  9   F: -28.383079004292636   dF: -1.901e-07   |Residual|: 1.551e-04   |deigs|: 2.900e-04  t[s]:     51.18
	FillingsUpdate:  mu: -0.088953575  nElectrons: 9.000000  magneticMoment: [ Abs: 0.78195  Tot: +0.78000 ]
SCF: Cycle: 10   F: -28.383079354063689   dF: -3.498e-07   |Residual|: 1.457e-04   |deigs|: 2.195e-04  t[s]:     55.43
	FillingsUpdate:  mu: -0.088775553  nElectrons: 9.000000  magneticMoment: [ Abs: 0.78263  Tot: +0.78000 ]
SCF: Cycle: 11   F: -28.383080226145271   dF: -8.721e-07   |Residual|: 1.099e-04   |deigs|: 2.297e-04  t[s]:     59.69
	FillingsUpdate:  mu: -0.088708824  nElectrons: 9.000000  magneticMoment: [ Abs: 0.78239  Tot: +0.78000 ]
SCF: Cycle: 12   F: -28.383080690092189   dF: -4.639e-07   |Residual|: 9.381e-05   |deigs|: 1.156e-04  t[s]:     63.86
	FillingsUpdate:  mu: -0.088491216  nElectrons: 9.000000  magneticMoment: [ Abs: 0.78209  Tot: +0.78000 ]
SCF: Cycle: 13   F: -28.383080839421861   dF: -1.493e-07   |Residual|: 9.179e-05   |deigs|: 2.578e-04  t[s]:     68.04
	FillingsUpdate:  mu: -0.088285878  nElectrons: 9.000000  magneticMoment: [ Abs: 0.78227  Tot: +0.78000 ]
SCF: Cycle: 14   F: -28.383080693354412   dF: +1.461e-07   |Residual|: 9.064e-05   |deigs|: 2.261e-04  t[s]:     72.28
	FillingsUpdate:  mu: -0.088178032  nElectrons: 9.000000  magneticMoment: [ Abs: 0.78225  Tot: +0.78000 ]
SCF: Cycle: 15   F: -28.383081163893451   dF: -4.705e-07   |Residual|: 7.634e-05   |deigs|: 1.842e-04  t[s]:     76.55
	FillingsUpdate:  mu: -0.088088030  nElectrons: 9.000000  magneticMoment: [ Abs: 0.78180  Tot: +0.78000 ]
SCF: Cycle: 16   F: -28.383081551063423   dF: -3.872e-07   |Residual|: 6.400e-05   |deigs|: 1.434e-04  t[s]:     80.79
	FillingsUpdate:  mu: -0.087992154  nElectrons: 9.000000  magneticMoment: [ Abs: 0.78149  Tot: +0.78000 ]
SCF: Cycle: 17   F: -28.383081741756431   dF: -1.907e-07   |Residual|: 4.916e-05   |deigs|: 2.628e-04  t[s]:     85.10
	FillingsUpdate:  mu: -0.087955685  nElectrons: 9.000000  magneticMoment: [ Abs: 0.78155  Tot: +0.78000 ]
SCF: Cycle: 18   F: -28.383081915073234   dF: -1.733e-07   |Residual|: 3.331e-05   |deigs|: 5.922e-05  t[s]:     89.29
	FillingsUpdate:  mu: -0.087947247  nElectrons: 9.000000  magneticMoment: [ Abs: 0.78152  Tot: +0.78000 ]
SCF: Cycle: 19   F: -28.383082003240968   dF: -8.817e-08   |Residual|: 2.121e-05   |deigs|: 2.913e-05  t[s]:     93.50
	FillingsUpdate:  mu: -0.087956120  nElectrons: 9.000000  magneticMoment: [ Abs: 0.78152  Tot: +0.78000 ]
SCF: Cycle: 20   F: -28.383082038774660   dF: -3.553e-08   |Residual|: 1.163e-05   |deigs|: 2.656e-05  t[s]:     97.70
	FillingsUpdate:  mu: -0.087951064  nElectrons: 9.000000  magneticMoment: [ Abs: 0.78150  Tot: +0.78000 ]
SCF: Cycle: 21   F: -28.383082075603642   dF: -3.683e-08   |Residual|: 8.062e-06   |deigs|: 1.851e-05  t[s]:    101.92
	FillingsUpdate:  mu: -0.087949153  nElectrons: 9.000000  magneticMoment: [ Abs: 0.78150  Tot: +0.78000 ]
SCF: Cycle: 22   F: -28.383082091036318   dF: -1.543e-08   |Residual|: 5.888e-06   |deigs|: 2.041e-05  t[s]:    105.88
	FillingsUpdate:  mu: -0.087946463  nElectrons: 9.000000  magneticMoment: [ Abs: 0.78153  Tot: +0.78000 ]
SCF: Cycle: 23   F: -28.383082103851709   dF: -1.282e-08   |Residual|: 3.792e-06   |deigs|: 2.324e-05  t[s]:    110.07
	FillingsUpdate:  mu: -0.087946229  nElectrons: 9.000000  magneticMoment: [ Abs: 0.78152  Tot: +0.78000 ]
SCF: Cycle: 24   F: -28.383082113848854   dF: -9.997e-09   |Residual|: 2.254e-06   |deigs|: 2.808e-05  t[s]:    114.34
	FillingsUpdate:  mu: -0.087947120  nElectrons: 9.000000  magneticMoment: [ Abs: 0.78151  Tot: +0.78000 ]
SCF: Cycle: 25   F: -28.383082120084051   dF: -6.235e-09   |Residual|: 2.129e-06   |deigs|: 3.233e-05  t[s]:    118.31
SCF: Converged (|Delta E|<1.000000e-08 for 2 iters).


# Ionic positions in lattice coordinates:
ion K   0.000000000000000   0.000000000000000   0.000000000000000 0

# Forces in Lattice coordinates:
force K  -0.000000000000000  -0.000000000000000   0.000000000000000 0

# Energy components:
   Eewald =      -12.0320174002217755
       EH =       10.7498219639591941
     Eloc =      -29.9486895151486792
      Enl =       -2.7699548281512492
   Epulay =       -0.0000000016982517
      Exc =       -4.2423366279406673
       KE =        9.8600948341723207
-------------------------------------
     Etot =      -28.3830815750291094
       TS =        0.0000005450549413
-------------------------------------
        F =      -28.3830821200840511

IonicMinimize: Iter:   0  F: -28.383082120084051  |grad|_K:  0.000e+00  t[s]:    118.56
IonicMinimize: Converged (|grad|_K<1.000000e-04).

#--- Lowdin population analysis ---
# oxidation-state K +0.023
# magnetic-moments K +0.759

End date and time: Sat Feb  5 23:52:31 2022  (Duration: 0-0:01:58.60)
Done!
scale=4
magnetization=0.78
--------------------------------------------------------------------------
The library attempted to open the following supporting CUDA libraries,
but each of them failed.  CUDA-aware support is disabled.
libcuda.so.1: cannot open shared object file: No such file or directory
libcuda.dylib: cannot open shared object file: No such file or directory
/usr/lib64/libcuda.so.1: cannot open shared object file: No such file or directory
/usr/lib64/libcuda.dylib: cannot open shared object file: No such file or directory
If you are not interested in CUDA-aware support, then run with
--mca opal_warn_on_missing_libcuda 0 to suppress this message.  If you are interested
in CUDA-aware support, then try setting LD_LIBRARY_PATH to the location
of libcuda.so.1 to get passed this issue.
--------------------------------------------------------------------------
--------------------------------------------------------------------------
No OpenFabrics connection schemes reported that they were able to be
used on a specific port.  As such, the openib BTL (OpenFabrics
support) will be disabled for this port.

  Local host:           d-16-6-2
  Local device:         mlx5_1
  Local port:           1
  CPCs attempted:       rdmacm, udcm
--------------------------------------------------------------------------

*************** JDFTx 1.6.0 (git hash 42ebbcc2) ***************

Start date and time: Sat Feb  5 23:52:32 2022
Executable jdftx with command-line: -i Alkali.in
Running on hosts (process indices):  d-16-6-2 (0-18)
Divided in process groups (process indices):  0 (0)  1 (1)  2 (2)  3 (3)  4 (4)  5 (5)  6 (6)  7 (7)  8 (8)  9 (9)  10 (10)  11 (11)  12 (12)  13 (13)  14 (14)  15 (15)  16 (16)  17 (17)  18 (18)
Resource initialization completed at t[s]:      0.00
Run totals: 19 processes, 48 threads, 0 GPUs


Input parsed successfully to the following command list (including defaults):

basis kpoint-dependent
coords-type Lattice
core-overlap-check vector
coulomb-interaction Slab 001
davidson-band-ratio 1.1
dump End None
dump-name $INPUT.$VAR
elec-cutoff 20
elec-eigen-algo Davidson
elec-ex-corr gga-PBE
elec-initial-magnetization 0.780000 yes
elec-smearing Fermi 1e-05
electronic-minimize  \
	dirUpdateScheme      FletcherReeves \
	linminMethod         DirUpdateRecommended \
	nIterations          100 \
	history              15 \
	knormThreshold       0 \
	energyDiffThreshold  1e-08 \
	nEnergyDiff          2 \
	alphaTstart          1 \
	alphaTmin            1e-10 \
	updateTestStepSize   yes \
	alphaTreduceFactor   0.1 \
	alphaTincreaseFactor 3 \
	nAlphaAdjustMax      3 \
	wolfeEnergy          0.0001 \
	wolfeGradient        0.9 \
	fdTest               no
electronic-scf  \
	nIterations	10000 \
	energyDiffThreshold	1e-08 \
	residualThreshold	1e-07 \
	mixFraction	0.5 \
	qMetric	0.8 \
	history	10 \
	nEigSteps	2 \
	eigDiffThreshold	1e-08 \
	mixedVariable	Density \
	qKerker	0.8 \
	qKappa	-1 \
	verbose	no \
	mixFractionMag	1.5
exchange-regularization WignerSeitzTruncated
fluid None
fluid-ex-corr (null) lda-PZ
fluid-gummel-loop 10 1.000000e-05
fluid-minimize  \
	dirUpdateScheme      PolakRibiere \
	linminMethod         DirUpdateRecommended \
	nIterations          100 \
	history              15 \
	knormThreshold       0 \
	energyDiffThreshold  0 \
	nEnergyDiff          2 \
	alphaTstart          1 \
	alphaTmin            1e-10 \
	updateTestStepSize   yes \
	alphaTreduceFactor   0.1 \
	alphaTincreaseFactor 3 \
	nAlphaAdjustMax      3 \
	wolfeEnergy          0.0001 \
	wolfeGradient        0.9 \
	fdTest               no
fluid-solvent H2O 55.338 ScalarEOS \
	epsBulk 78.4 \
	pMol 0.92466 \
	epsInf 1.77 \
	Pvap 1.06736e-10 \
	sigmaBulk 4.62e-05 \
	Rvdw 2.61727 \
	Res 1.42 \
	tauNuc 343133 \
	poleEl 15 7 1
forces-output-coords Positions
ion K   0.000000000000000   0.000000000000000   0.000000000000000 0
ion-species SG15/$ID_ONCV_PBE.upf
ion-width 0
ionic-minimize  \
	dirUpdateScheme      L-BFGS \
	linminMethod         DirUpdateRecommended \
	nIterations          0 \
	history              15 \
	knormThreshold       0.0001 \
	energyDiffThreshold  1e-06 \
	nEnergyDiff          2 \
	alphaTstart          1 \
	alphaTmin            1e-10 \
	updateTestStepSize   yes \
	alphaTreduceFactor   0.1 \
	alphaTincreaseFactor 3 \
	nAlphaAdjustMax      3 \
	wolfeEnergy          0.0001 \
	wolfeGradient        0.9 \
	fdTest               no
kpoint   0.000000000000   0.000000000000   0.000000000000  1.00000000000000
kpoint-folding 12 12 1 
latt-move-scale 1 1 1
latt-scale 4 4 1 
lattice  \
	   4.727486978767153   -2.363743489383575    0.000000000000000  \
	  -0.000000000000000    4.094123819672498    0.000000000000000  \
	   0.000000000000000    0.000000000000000   40.000000000000000 
lattice-minimize  \
	dirUpdateScheme      L-BFGS \
	linminMethod         DirUpdateRecommended \
	nIterations          0 \
	history              15 \
	knormThreshold       0 \
	energyDiffThreshold  1e-06 \
	nEnergyDiff          2 \
	alphaTstart          1 \
	alphaTmin            1e-10 \
	updateTestStepSize   yes \
	alphaTreduceFactor   0.1 \
	alphaTincreaseFactor 3 \
	nAlphaAdjustMax      3 \
	wolfeEnergy          0.0001 \
	wolfeGradient        0.9 \
	fdTest               no
lcao-params -1 1e-06 1e-05
pcm-variant GLSSA13
spintype z-spin
subspace-rotation-factor 1 yes
symmetries automatic
symmetry-threshold 0.0001



---------- Setting up symmetries ----------

Found 24 point-group symmetries of the bravais lattice
Found 24 space-group symmetries with basis
Applied RMS atom displacement 0 bohrs to make symmetries exact.

---------- Initializing the Grid ----------
R = 
[      18.9099     -9.45497            0  ]
[            0      16.3765            0  ]
[            0            0           40  ]
unit cell volume = 12387.1
G =
[   0.332269   0.191835         -0  ]
[          0   0.383671         -0  ]
[         -0         -0    0.15708  ]
Minimum fftbox size, Smin = [  80  80  164  ]
Chosen fftbox size, S = [  80  80  168  ]

---------- Exchange Correlation functional ----------
Initalized PBE GGA exchange.
Initalized PBE GGA correlation.

---------- Setting up pseudopotentials ----------
Width of ionic core gaussian charges (only for fluid interactions / plotting) set to 0

Reading pseudopotential file '/home/gridsan/aligho/DFT/build-Nov24/pseudopotentials/SG15/K_ONCV_PBE.upf':
  'K' pseudopotential, 'PBE' functional
  Generated using ONCVPSP code by D. R. Hamann
  Author: Martin Schlipf and Francois Gygi  Date: 150915.
  9 valence electrons, 3 orbitals, 6 projectors, 2222 radial grid points, with lMax = 2
  Transforming local potential to a uniform radial grid of dG=0.02 with 1489 points.
  Transforming nonlocal projectors to a uniform radial grid of dG=0.02 with 432 points.
    3S    l: 0   occupation:  2.0   eigenvalue: -1.298836
    3P    l: 1   occupation:  6.0   eigenvalue: -0.691386
    4S    l: 0   occupation:  1.0   eigenvalue: -0.085223
  Transforming atomic orbitals to a uniform radial grid of dG=0.02 with 432 points.
  Core radius for overlap checks: 2.06 bohrs.
  Reading pulay file /home/gridsan/aligho/DFT/build-Nov24/pseudopotentials/SG15/K_ONCV_PBE.pulay ... using dE_dnG = -1.597219e-05 computed for Ecut = 20.

Initialized 1 species with 1 total atoms.

Folded 1 k-points by 12x12x1 to 144 k-points.

---------- Setting up k-points, bands, fillings ----------
Reduced to 19 k-points under symmetry. 
Computing the number of bands and number of electrons
Calculating initial fillings.
nElectrons:   9.000000   nBands: 6   nStates: 38

----- Setting up reduced wavefunction bases (one per k-point) -----
average nbasis = 52924.021 , ideal nbasis = 52918.836

---------- Setting up coulomb interaction ----------
Initialized slab truncation along lattice direction 001

---------- Setting up 2D ewald sum ----------
Optimum gaussian width for ewald sums = 10.498040 bohr.
Real space sums over 289 unit cells with max indices [  8  8  0  ]
Reciprocal space sums over 81 terms with max indices [  4  4  0  ]

---------- Allocating electronic variables ----------
Initializing wave functions:  linear combination of atomic orbitals
Note: number of bands (6) exceeds available atomic orbitals (5)
K pseudo-atom occupations:   s ( 2 1 )  p ( 6 )
[d-16-6-2:30021] 18 more processes have sent help message help-mpi-common-cuda.txt / dlopen failed
[d-16-6-2:30021] Set MCA parameter "orte_base_help_aggregate" to 0 to see all help / error messages
[d-16-6-2:30021] 18 more processes have sent help message help-mpi-btl-openib-cpc-base.txt / no cpcs for port
	FillingsUpdate:  mu: -0.085372633  nElectrons: 9.000000  magneticMoment: [ Abs: 0.78000  Tot: +0.78000 ]
LCAOMinimize: Iter:   0  F: -28.3798466257160449  |grad|_K:  1.704e-06  alpha:  1.000e+00
	FillingsUpdate:  mu: -0.085372268  nElectrons: 9.000000  magneticMoment: [ Abs: 0.78000  Tot: +0.78000 ]
LCAOMinimize: Iter:   1  F: -28.3798466276851933  |grad|_K:  8.131e-09  alpha:  9.920e-01  linmin: -1.968e-03  cgtest:  6.506e-02  t[s]:     14.92
LCAOMinimize: Encountered beta<0, resetting CG.
	FillingsUpdate:  mu: -0.085372268  nElectrons: 9.000000  magneticMoment: [ Abs: 0.78000  Tot: +0.78000 ]
LCAOMinimize: Iter:   2  F: -28.3798466276852039  |grad|_K:  5.960e-09  alpha:  2.665e-01  linmin: -4.563e-02  cgtest:  1.000e+00  t[s]:     18.91
LCAOMinimize: Encountered beta<0, resetting CG.
LCAOMinimize: Converged (|Delta F|<1.000000e-06 for 2 iters).


---- Citations for features of the code used in this run ----

   Software package:
      R. Sundararaman, K. Letchworth-Weaver, K.A. Schwarz, D. Gunceler, Y. Ozhabes and T.A. Arias, 'JDFTx: software for joint density-functional theory', SoftwareX 6, 278 (2017)

   gga-PBE exchange-correlation functional:
      J.P. Perdew, K. Burke and M. Ernzerhof, Phys. Rev. Lett. 77, 3865 (1996)

   Pseudopotentials:
      M Schlipf and F Gygi, Comput. Phys. Commun. 196, 36 (2015)

   Truncated Coulomb potentials:
      R. Sundararaman and T.A. Arias, Phys. Rev. B 87, 165122 (2013)

This list may not be complete. Please suggest additional citations or
report any other bugs at https://github.com/shankar1729/jdftx/issues

Initialization completed successfully at t[s]:     19.16


-------- Electronic minimization -----------
Will mix electronic density at each iteration.
	FillingsUpdate:  mu: -0.085372268  nElectrons: 9.000000  magneticMoment: [ Abs: 0.78000  Tot: +0.78000 ]
	FillingsUpdate:  mu: -0.085496049  nElectrons: 9.000000  magneticMoment: [ Abs: 0.78000  Tot: +0.78000 ]
SCF: Cycle:  0   F: -28.379951672603848   dF: -1.050e-04   |Residual|: 1.714e-03   |deigs|: 1.666e-01  t[s]:     27.23
	FillingsUpdate:  mu: -0.085509688  nElectrons: 9.000000  magneticMoment: [ Abs: 0.78173  Tot: +0.78000 ]
SCF: Cycle:  1   F: -28.379953430087696   dF: -1.757e-06   |Residual|: 4.514e-04   |deigs|: 1.266e-02  t[s]:     33.53
	FillingsUpdate:  mu: -0.085451692  nElectrons: 9.000000  magneticMoment: [ Abs: 0.78170  Tot: +0.78000 ]
SCF: Cycle:  2   F: -28.379953967947486   dF: -5.379e-07   |Residual|: 2.980e-04   |deigs|: 1.999e-03  t[s]:     40.02
	FillingsUpdate:  mu: -0.085406441  nElectrons: 9.000000  magneticMoment: [ Abs: 0.78198  Tot: +0.78000 ]
SCF: Cycle:  3   F: -28.379954266423894   dF: -2.985e-07   |Residual|: 2.292e-04   |deigs|: 7.887e-04  t[s]:     46.59
	FillingsUpdate:  mu: -0.085281818  nElectrons: 9.000000  magneticMoment: [ Abs: 0.78189  Tot: +0.78000 ]
SCF: Cycle:  4   F: -28.379954441495535   dF: -1.751e-07   |Residual|: 1.475e-04   |deigs|: 5.485e-04  t[s]:     53.27
	FillingsUpdate:  mu: -0.085158527  nElectrons: 9.000000  magneticMoment: [ Abs: 0.78189  Tot: +0.78000 ]
SCF: Cycle:  5   F: -28.379954492709111   dF: -5.121e-08   |Residual|: 9.620e-05   |deigs|: 5.250e-04  t[s]:     60.09
	FillingsUpdate:  mu: -0.085118390  nElectrons: 9.000000  magneticMoment: [ Abs: 0.78182  Tot: +0.78000 ]
SCF: Cycle:  6   F: -28.379954592043362   dF: -9.933e-08   |Residual|: 7.067e-05   |deigs|: 2.420e-04  t[s]:     67.08
	FillingsUpdate:  mu: -0.085097996  nElectrons: 9.000000  magneticMoment: [ Abs: 0.78188  Tot: +0.78000 ]
SCF: Cycle:  7   F: -28.379954671491063   dF: -7.945e-08   |Residual|: 5.249e-05   |deigs|: 1.228e-04  t[s]:     74.07
	FillingsUpdate:  mu: -0.085082039  nElectrons: 9.000000  magneticMoment: [ Abs: 0.78186  Tot: +0.78000 ]
SCF: Cycle:  8   F: -28.379954709423899   dF: -3.793e-08   |Residual|: 4.548e-05   |deigs|: 1.036e-04  t[s]:     81.20
	FillingsUpdate:  mu: -0.085059102  nElectrons: 9.000000  magneticMoment: [ Abs: 0.78187  Tot: +0.78000 ]
SCF: Cycle:  9   F: -28.379954715458545   dF: -6.035e-09   |Residual|: 3.734e-05   |deigs|: 1.651e-04  t[s]:     88.48
	FillingsUpdate:  mu: -0.085037418  nElectrons: 9.000000  magneticMoment: [ Abs: 0.78188  Tot: +0.78000 ]
SCF: Cycle: 10   F: -28.379954677224664   dF: +3.823e-08   |Residual|: 3.095e-05   |deigs|: 1.480e-04  t[s]:     95.90
	FillingsUpdate:  mu: -0.085009306  nElectrons: 9.000000  magneticMoment: [ Abs: 0.78197  Tot: +0.78000 ]
SCF: Cycle: 11   F: -28.379954536743309   dF: +1.405e-07   |Residual|: 2.846e-05   |deigs|: 1.018e-04  t[s]:    103.19
	FillingsUpdate:  mu: -0.084982478  nElectrons: 9.000000  magneticMoment: [ Abs: 0.78208  Tot: +0.78000 ]
SCF: Cycle: 12   F: -28.379954344268452   dF: +1.925e-07   |Residual|: 2.588e-05   |deigs|: 9.281e-05  t[s]:    110.44
	FillingsUpdate:  mu: -0.084970081  nElectrons: 9.000000  magneticMoment: [ Abs: 0.78204  Tot: +0.78000 ]
SCF: Cycle: 13   F: -28.379954447529574   dF: -1.033e-07   |Residual|: 2.277e-05   |deigs|: 7.429e-05  t[s]:    117.62
	FillingsUpdate:  mu: -0.084932353  nElectrons: 9.000000  magneticMoment: [ Abs: 0.78203  Tot: +0.78000 ]
SCF: Cycle: 14   F: -28.379954675234931   dF: -2.277e-07   |Residual|: 2.021e-05   |deigs|: 8.274e-05  t[s]:    124.99
	FillingsUpdate:  mu: -0.084894011  nElectrons: 9.000000  magneticMoment: [ Abs: 0.78199  Tot: +0.78000 ]
SCF: Cycle: 15   F: -28.379954584318376   dF: +9.092e-08   |Residual|: 2.007e-05   |deigs|: 6.854e-05  t[s]:    131.92
	FillingsUpdate:  mu: -0.084874671  nElectrons: 9.000000  magneticMoment: [ Abs: 0.78192  Tot: +0.78000 ]
SCF: Cycle: 16   F: -28.379954620319062   dF: -3.600e-08   |Residual|: 1.915e-05   |deigs|: 4.367e-05  t[s]:    139.21
	FillingsUpdate:  mu: -0.084860796  nElectrons: 9.000000  magneticMoment: [ Abs: 0.78191  Tot: +0.78000 ]
SCF: Cycle: 17   F: -28.379954542301867   dF: +7.802e-08   |Residual|: 1.607e-05   |deigs|: 2.910e-05  t[s]:    146.49
	FillingsUpdate:  mu: -0.084845992  nElectrons: 9.000000  magneticMoment: [ Abs: 0.78189  Tot: +0.78000 ]
SCF: Cycle: 18   F: -28.379954662780086   dF: -1.205e-07   |Residual|: 1.079e-05   |deigs|: 1.990e-05  t[s]:    153.67
	FillingsUpdate:  mu: -0.084844275  nElectrons: 9.000000  magneticMoment: [ Abs: 0.78187  Tot: +0.78000 ]
SCF: Cycle: 19   F: -28.379954801425885   dF: -1.386e-07   |Residual|: 7.097e-06   |deigs|: 1.062e-05  t[s]:    160.63
	FillingsUpdate:  mu: -0.084843466  nElectrons: 9.000000  magneticMoment: [ Abs: 0.78187  Tot: +0.78000 ]
SCF: Cycle: 20   F: -28.379954804475734   dF: -3.050e-09   |Residual|: 4.702e-06   |deigs|: 8.374e-06  t[s]:    167.45
	FillingsUpdate:  mu: -0.084843396  nElectrons: 9.000000  magneticMoment: [ Abs: 0.78187  Tot: +0.78000 ]
SCF: Cycle: 21   F: -28.379954818940927   dF: -1.447e-08   |Residual|: 3.533e-06   |deigs|: 9.814e-06  t[s]:    174.76
	FillingsUpdate:  mu: -0.084841828  nElectrons: 9.000000  magneticMoment: [ Abs: 0.78187  Tot: +0.78000 ]
SCF: Cycle: 22   F: -28.379954821078371   dF: -2.137e-09   |Residual|: 2.517e-06   |deigs|: 1.263e-05  t[s]:    181.79
	FillingsUpdate:  mu: -0.084840560  nElectrons: 9.000000  magneticMoment: [ Abs: 0.78187  Tot: +0.78000 ]
SCF: Cycle: 23   F: -28.379954827382942   dF: -6.305e-09   |Residual|: 1.664e-06   |deigs|: 1.546e-05  t[s]:    189.08
SCF: Converged (|Delta E|<1.000000e-08 for 2 iters).


# Ionic positions in lattice coordinates:
ion K   0.000000000000000   0.000000000000000   0.000000000000000 0

# Forces in Lattice coordinates:
force K   0.000000000000000  -0.000000000000000   0.000000000000000 0

# Energy components:
   Eewald =       -9.0240130501663280
       EH =       13.7835765162161454
     Eloc =      -35.9945206427854387
      Enl =       -2.7668200851617741
   Epulay =        0.0000000066859396
      Exc =       -4.2444291305614410
       KE =        9.8662521034711688
-------------------------------------
     Etot =      -28.3799542823017319
       TS =        0.0000005450812116
-------------------------------------
        F =      -28.3799548273829423

IonicMinimize: Iter:   0  F: -28.379954827382942  |grad|_K:  0.000e+00  t[s]:    189.49
IonicMinimize: Converged (|grad|_K<1.000000e-04).

#--- Lowdin population analysis ---
# oxidation-state K +0.001
# magnetic-moments K +0.780

End date and time: Sat Feb  5 23:55:42 2022  (Duration: 0-0:03:09.55)
Done!
