The alkali metal is K
scale=2
magnetization=0.64
--------------------------------------------------------------------------
The library attempted to open the following supporting CUDA libraries,
but each of them failed.  CUDA-aware support is disabled.
libcuda.so.1: cannot open shared object file: No such file or directory
libcuda.dylib: cannot open shared object file: No such file or directory
/usr/lib64/libcuda.so.1: cannot open shared object file: No such file or directory
/usr/lib64/libcuda.dylib: cannot open shared object file: No such file or directory
If you are not interested in CUDA-aware support, then run with
--mca opal_warn_on_missing_libcuda 0 to suppress this message.  If you are interested
in CUDA-aware support, then try setting LD_LIBRARY_PATH to the location
of libcuda.so.1 to get passed this issue.
--------------------------------------------------------------------------
--------------------------------------------------------------------------
No OpenFabrics connection schemes reported that they were able to be
used on a specific port.  As such, the openib BTL (OpenFabrics
support) will be disabled for this port.

  Local host:           d-3-7-1
  Local device:         mlx5_1
  Local port:           1
  CPCs attempted:       rdmacm, udcm
--------------------------------------------------------------------------

*************** JDFTx 1.6.0 (git hash 42ebbcc2) ***************

Start date and time: Sat Feb  5 23:49:25 2022
Executable jdftx with command-line: -i Alkali.in
Running on hosts (process indices):  d-3-7-1 (0-18)
Divided in process groups (process indices):  0 (0)  1 (1)  2 (2)  3 (3)  4 (4)  5 (5)  6 (6)  7 (7)  8 (8)  9 (9)  10 (10)  11 (11)  12 (12)  13 (13)  14 (14)  15 (15)  16 (16)  17 (17)  18 (18)
Resource initialization completed at t[s]:      0.00
Run totals: 19 processes, 48 threads, 0 GPUs


Input parsed successfully to the following command list (including defaults):

basis kpoint-dependent
coords-type Lattice
core-overlap-check vector
coulomb-interaction Slab 001
davidson-band-ratio 1.1
dump End None
dump-name $INPUT.$VAR
elec-cutoff 20
elec-eigen-algo Davidson
elec-ex-corr gga-PBE
elec-initial-magnetization 0.640000 yes
elec-smearing Fermi 1e-05
electronic-minimize  \
	dirUpdateScheme      FletcherReeves \
	linminMethod         DirUpdateRecommended \
	nIterations          100 \
	history              15 \
	knormThreshold       0 \
	energyDiffThreshold  1e-08 \
	nEnergyDiff          2 \
	alphaTstart          1 \
	alphaTmin            1e-10 \
	updateTestStepSize   yes \
	alphaTreduceFactor   0.1 \
	alphaTincreaseFactor 3 \
	nAlphaAdjustMax      3 \
	wolfeEnergy          0.0001 \
	wolfeGradient        0.9 \
	fdTest               no
electronic-scf  \
	nIterations	10000 \
	energyDiffThreshold	1e-08 \
	residualThreshold	1e-07 \
	mixFraction	0.5 \
	qMetric	0.8 \
	history	10 \
	nEigSteps	2 \
	eigDiffThreshold	1e-08 \
	mixedVariable	Density \
	qKerker	0.8 \
	qKappa	-1 \
	verbose	no \
	mixFractionMag	1.5
exchange-regularization WignerSeitzTruncated
fluid None
fluid-ex-corr (null) lda-PZ
fluid-gummel-loop 10 1.000000e-05
fluid-minimize  \
	dirUpdateScheme      PolakRibiere \
	linminMethod         DirUpdateRecommended \
	nIterations          100 \
	history              15 \
	knormThreshold       0 \
	energyDiffThreshold  0 \
	nEnergyDiff          2 \
	alphaTstart          1 \
	alphaTmin            1e-10 \
	updateTestStepSize   yes \
	alphaTreduceFactor   0.1 \
	alphaTincreaseFactor 3 \
	nAlphaAdjustMax      3 \
	wolfeEnergy          0.0001 \
	wolfeGradient        0.9 \
	fdTest               no
fluid-solvent H2O 55.338 ScalarEOS \
	epsBulk 78.4 \
	pMol 0.92466 \
	epsInf 1.77 \
	Pvap 1.06736e-10 \
	sigmaBulk 4.62e-05 \
	Rvdw 2.61727 \
	Res 1.42 \
	tauNuc 343133 \
	poleEl 15 7 1
forces-output-coords Positions
ion K   0.000000000000000   0.000000000000000   0.000000000000000 0
ion-species SG15/$ID_ONCV_PBE.upf
ion-width 0
ionic-minimize  \
	dirUpdateScheme      L-BFGS \
	linminMethod         DirUpdateRecommended \
	nIterations          0 \
	history              15 \
	knormThreshold       0.0001 \
	energyDiffThreshold  1e-06 \
	nEnergyDiff          2 \
	alphaTstart          1 \
	alphaTmin            1e-10 \
	updateTestStepSize   yes \
	alphaTreduceFactor   0.1 \
	alphaTincreaseFactor 3 \
	nAlphaAdjustMax      3 \
	wolfeEnergy          0.0001 \
	wolfeGradient        0.9 \
	fdTest               no
kpoint   0.000000000000   0.000000000000   0.000000000000  1.00000000000000
kpoint-folding 12 12 1 
latt-move-scale 1 1 1
latt-scale 2 2 1 
lattice  \
	   4.727486978767153   -2.363743489383575    0.000000000000000  \
	  -0.000000000000000    4.094123819672498    0.000000000000000  \
	   0.000000000000000    0.000000000000000   40.000000000000000 
lattice-minimize  \
	dirUpdateScheme      L-BFGS \
	linminMethod         DirUpdateRecommended \
	nIterations          0 \
	history              15 \
	knormThreshold       0 \
	energyDiffThreshold  1e-06 \
	nEnergyDiff          2 \
	alphaTstart          1 \
	alphaTmin            1e-10 \
	updateTestStepSize   yes \
	alphaTreduceFactor   0.1 \
	alphaTincreaseFactor 3 \
	nAlphaAdjustMax      3 \
	wolfeEnergy          0.0001 \
	wolfeGradient        0.9 \
	fdTest               no
lcao-params -1 1e-06 1e-05
pcm-variant GLSSA13
spintype z-spin
subspace-rotation-factor 1 yes
symmetries automatic
symmetry-threshold 0.0001



---------- Setting up symmetries ----------

Found 24 point-group symmetries of the bravais lattice
Found 24 space-group symmetries with basis
Applied RMS atom displacement 0 bohrs to make symmetries exact.

---------- Initializing the Grid ----------
R = 
[      9.45497     -4.72749            0  ]
[            0      8.18825            0  ]
[            0            0           40  ]
unit cell volume = 3096.79
G =
[   0.664538   0.383671         -0  ]
[          0   0.767342         -0  ]
[         -0         -0    0.15708  ]
Minimum fftbox size, Smin = [  40  40  164  ]
Chosen fftbox size, S = [  40  40  168  ]

---------- Exchange Correlation functional ----------
Initalized PBE GGA exchange.
Initalized PBE GGA correlation.

---------- Setting up pseudopotentials ----------
Width of ionic core gaussian charges (only for fluid interactions / plotting) set to 0

Reading pseudopotential file '/home/gridsan/aligho/DFT/build-Nov24/pseudopotentials/SG15/K_ONCV_PBE.upf':
  'K' pseudopotential, 'PBE' functional
  Generated using ONCVPSP code by D. R. Hamann
  Author: Martin Schlipf and Francois Gygi  Date: 150915.
  9 valence electrons, 3 orbitals, 6 projectors, 2222 radial grid points, with lMax = 2
  Transforming local potential to a uniform radial grid of dG=0.02 with 1489 points.
  Transforming nonlocal projectors to a uniform radial grid of dG=0.02 with 432 points.
    3S    l: 0   occupation:  2.0   eigenvalue: -1.298836
    3P    l: 1   occupation:  6.0   eigenvalue: -0.691386
    4S    l: 0   occupation:  1.0   eigenvalue: -0.085223
  Transforming atomic orbitals to a uniform radial grid of dG=0.02 with 432 points.
  Core radius for overlap checks: 2.06 bohrs.
  Reading pulay file /home/gridsan/aligho/DFT/build-Nov24/pseudopotentials/SG15/K_ONCV_PBE.pulay ... using dE_dnG = -1.597219e-05 computed for Ecut = 20.

Initialized 1 species with 1 total atoms.

Folded 1 k-points by 12x12x1 to 144 k-points.

---------- Setting up k-points, bands, fillings ----------
Reduced to 19 k-points under symmetry. 
Computing the number of bands and number of electrons
Calculating initial fillings.
nElectrons:   9.000000   nBands: 6   nStates: 38

----- Setting up reduced wavefunction bases (one per k-point) -----
average nbasis = 13230.521 , ideal nbasis = 13229.709

---------- Setting up coulomb interaction ----------
Initialized slab truncation along lattice direction 001

---------- Setting up 2D ewald sum ----------
Optimum gaussian width for ewald sums = 5.249020 bohr.
Real space sums over 289 unit cells with max indices [  8  8  0  ]
Reciprocal space sums over 81 terms with max indices [  4  4  0  ]

---------- Allocating electronic variables ----------
Initializing wave functions:  linear combination of atomic orbitals
Note: number of bands (6) exceeds available atomic orbitals (5)
K pseudo-atom occupations:   s ( 2 1 )  p ( 6 )
	FillingsUpdate:  mu: -0.098206270  nElectrons: 9.000000  magneticMoment: [ Abs: 0.64000  Tot: +0.64000 ]
LCAOMinimize: Iter:   0  F: -28.3896369274970084  |grad|_K:  2.442e-05  alpha:  1.000e+00
	FillingsUpdate:  mu: -0.098200177  nElectrons: 9.000000  magneticMoment: [ Abs: 0.64000  Tot: +0.64000 ]
LCAOMinimize: Iter:   1  F: -28.3896373283954837  |grad|_K:  2.274e-07  alpha:  9.828e-01  linmin: -2.101e-02  cgtest:  3.510e-01  t[s]:      4.59
LCAOMinimize: Encountered beta<0, resetting CG.
[d-3-7-1:20851] 18 more processes have sent help message help-mpi-common-cuda.txt / dlopen failed
[d-3-7-1:20851] Set MCA parameter "orte_base_help_aggregate" to 0 to see all help / error messages
[d-3-7-1:20851] 18 more processes have sent help message help-mpi-btl-openib-cpc-base.txt / no cpcs for port
	FillingsUpdate:  mu: -0.098200221  nElectrons: 9.000000  magneticMoment: [ Abs: 0.64000  Tot: +0.64000 ]
LCAOMinimize: Iter:   2  F: -28.3896373284313164  |grad|_K:  1.142e-09  alpha:  1.005e+00  linmin:  8.587e-02  cgtest: -7.251e-01  t[s]:      5.84
LCAOMinimize: Converged (|Delta F|<1.000000e-06 for 2 iters).


---- Citations for features of the code used in this run ----

   Software package:
      R. Sundararaman, K. Letchworth-Weaver, K.A. Schwarz, D. Gunceler, Y. Ozhabes and T.A. Arias, 'JDFTx: software for joint density-functional theory', SoftwareX 6, 278 (2017)

   gga-PBE exchange-correlation functional:
      J.P. Perdew, K. Burke and M. Ernzerhof, Phys. Rev. Lett. 77, 3865 (1996)

   Pseudopotentials:
      M Schlipf and F Gygi, Comput. Phys. Commun. 196, 36 (2015)

   Truncated Coulomb potentials:
      R. Sundararaman and T.A. Arias, Phys. Rev. B 87, 165122 (2013)

This list may not be complete. Please suggest additional citations or
report any other bugs at https://github.com/shankar1729/jdftx/issues

Initialization completed successfully at t[s]:      5.93


-------- Electronic minimization -----------
Will mix electronic density at each iteration.
	FillingsUpdate:  mu: -0.098200221  nElectrons: 9.000000  magneticMoment: [ Abs: 0.64000  Tot: +0.64000 ]
	FillingsUpdate:  mu: -0.107950374  nElectrons: 9.000000  magneticMoment: [ Abs: 0.64000  Tot: +0.64000 ]
SCF: Cycle:  0   F: -28.398045804893059   dF: -8.408e-03   |Residual|: 1.311e-02   |deigs|: 1.732e-01  t[s]:      8.48
	FillingsUpdate:  mu: -0.108238406  nElectrons: 9.000000  magneticMoment: [ Abs: 0.64000  Tot: +0.64000 ]
SCF: Cycle:  1   F: -28.398396379537111   dF: -3.506e-04   |Residual|: 9.624e-03   |deigs|: 7.996e-03  t[s]:     10.48
	FillingsUpdate:  mu: -0.107696946  nElectrons: 9.000000  magneticMoment: [ Abs: 0.64329  Tot: +0.64000 ]
SCF: Cycle:  2   F: -28.398485422858514   dF: -8.904e-05   |Residual|: 5.710e-03   |deigs|: 3.841e-03  t[s]:     12.39
	FillingsUpdate:  mu: -0.106472431  nElectrons: 9.000000  magneticMoment: [ Abs: 0.64000  Tot: +0.64000 ]
SCF: Cycle:  3   F: -28.398554545137916   dF: -6.912e-05   |Residual|: 3.360e-03   |deigs|: 3.792e-03  t[s]:     14.37
	FillingsUpdate:  mu: -0.104912309  nElectrons: 9.000000  magneticMoment: [ Abs: 0.64001  Tot: +0.64000 ]
SCF: Cycle:  4   F: -28.398601852218064   dF: -4.731e-05   |Residual|: 2.024e-03   |deigs|: 3.584e-03  t[s]:     16.28
	FillingsUpdate:  mu: -0.103414208  nElectrons: 9.000000  magneticMoment: [ Abs: 0.64062  Tot: +0.64000 ]
SCF: Cycle:  5   F: -28.398623077799435   dF: -2.123e-05   |Residual|: 1.728e-03   |deigs|: 2.637e-03  t[s]:     18.26
	FillingsUpdate:  mu: -0.101419057  nElectrons: 9.000000  magneticMoment: [ Abs: 0.64558  Tot: +0.64000 ]
SCF: Cycle:  6   F: -28.398632647909487   dF: -9.570e-06   |Residual|: 1.222e-03   |deigs|: 2.617e-03  t[s]:     20.32
	FillingsUpdate:  mu: -0.099253468  nElectrons: 9.000000  magneticMoment: [ Abs: 0.64701  Tot: +0.64000 ]
SCF: Cycle:  7   F: -28.398653587124148   dF: -2.094e-05   |Residual|: 9.667e-04   |deigs|: 2.873e-03  t[s]:     22.32
	FillingsUpdate:  mu: -0.098859707  nElectrons: 9.000000  magneticMoment: [ Abs: 0.64184  Tot: +0.64000 ]
SCF: Cycle:  8   F: -28.398674062564186   dF: -2.048e-05   |Residual|: 7.776e-04   |deigs|: 7.348e-04  t[s]:     24.42
	FillingsUpdate:  mu: -0.098171081  nElectrons: 9.000000  magneticMoment: [ Abs: 0.64151  Tot: +0.64000 ]
SCF: Cycle:  9   F: -28.398681761022800   dF: -7.698e-06   |Residual|: 6.343e-04   |deigs|: 7.886e-04  t[s]:     26.62
	FillingsUpdate:  mu: -0.096955333  nElectrons: 9.000000  magneticMoment: [ Abs: 0.64355  Tot: +0.64000 ]
SCF: Cycle: 10   F: -28.398683849057139   dF: -2.088e-06   |Residual|: 5.376e-04   |deigs|: 1.276e-03  t[s]:     28.78
	FillingsUpdate:  mu: -0.095988470  nElectrons: 9.000000  magneticMoment: [ Abs: 0.64345  Tot: +0.64000 ]
SCF: Cycle: 11   F: -28.398684986736690   dF: -1.138e-06   |Residual|: 4.911e-04   |deigs|: 9.447e-04  t[s]:     30.92
	FillingsUpdate:  mu: -0.095120127  nElectrons: 9.000000  magneticMoment: [ Abs: 0.64336  Tot: +0.64000 ]
SCF: Cycle: 12   F: -28.398691918678953   dF: -6.932e-06   |Residual|: 4.356e-04   |deigs|: 8.353e-04  t[s]:     33.09
	FillingsUpdate:  mu: -0.094106179  nElectrons: 9.000000  magneticMoment: [ Abs: 0.64455  Tot: +0.64000 ]
SCF: Cycle: 13   F: -28.398697541123987   dF: -5.622e-06   |Residual|: 3.814e-04   |deigs|: 1.037e-03  t[s]:     35.17
	FillingsUpdate:  mu: -0.092543809  nElectrons: 9.000000  magneticMoment: [ Abs: 0.64285  Tot: +0.64000 ]
SCF: Cycle: 14   F: -28.398702157181802   dF: -4.616e-06   |Residual|: 3.705e-04   |deigs|: 1.637e-03  t[s]:     37.25
	FillingsUpdate:  mu: -0.091616909  nElectrons: 9.000000  magneticMoment: [ Abs: 0.64048  Tot: +0.64000 ]
SCF: Cycle: 15   F: -28.398704820188890   dF: -2.663e-06   |Residual|: 3.225e-04   |deigs|: 1.284e-03  t[s]:     39.30
	FillingsUpdate:  mu: -0.091076917  nElectrons: 9.000000  magneticMoment: [ Abs: 0.64117  Tot: +0.64000 ]
SCF: Cycle: 16   F: -28.398706589975280   dF: -1.770e-06   |Residual|: 2.422e-04   |deigs|: 7.274e-04  t[s]:     41.41
	FillingsUpdate:  mu: -0.090638425  nElectrons: 9.000000  magneticMoment: [ Abs: 0.64054  Tot: +0.64000 ]
SCF: Cycle: 17   F: -28.398707738575908   dF: -1.149e-06   |Residual|: 1.606e-04   |deigs|: 4.790e-04  t[s]:     43.56
	FillingsUpdate:  mu: -0.090445723  nElectrons: 9.000000  magneticMoment: [ Abs: 0.64064  Tot: +0.64000 ]
SCF: Cycle: 18   F: -28.398708219056747   dF: -4.805e-07   |Residual|: 1.011e-04   |deigs|: 2.365e-04  t[s]:     45.70
	FillingsUpdate:  mu: -0.090410783  nElectrons: 9.000000  magneticMoment: [ Abs: 0.64067  Tot: +0.64000 ]
SCF: Cycle: 19   F: -28.398708462404656   dF: -2.433e-07   |Residual|: 6.018e-05   |deigs|: 1.321e-04  t[s]:     47.80
	FillingsUpdate:  mu: -0.090487203  nElectrons: 9.000000  magneticMoment: [ Abs: 0.64042  Tot: +0.64000 ]
SCF: Cycle: 20   F: -28.398708552651961   dF: -9.025e-08   |Residual|: 4.036e-05   |deigs|: 1.839e-04  t[s]:     49.92
	FillingsUpdate:  mu: -0.090472005  nElectrons: 9.000000  magneticMoment: [ Abs: 0.64034  Tot: +0.64000 ]
SCF: Cycle: 21   F: -28.398708609850249   dF: -5.720e-08   |Residual|: 2.472e-05   |deigs|: 7.389e-05  t[s]:     52.02
	FillingsUpdate:  mu: -0.090465137  nElectrons: 9.000000  magneticMoment: [ Abs: 0.64026  Tot: +0.64000 ]
SCF: Cycle: 22   F: -28.398708635068616   dF: -2.522e-08   |Residual|: 1.767e-05   |deigs|: 4.338e-05  t[s]:     54.23
	FillingsUpdate:  mu: -0.090468444  nElectrons: 9.000000  magneticMoment: [ Abs: 0.64022  Tot: +0.64000 ]
SCF: Cycle: 23   F: -28.398708661086562   dF: -2.602e-08   |Residual|: 1.449e-05   |deigs|: 5.937e-05  t[s]:     56.29
	FillingsUpdate:  mu: -0.090464181  nElectrons: 9.000000  magneticMoment: [ Abs: 0.64018  Tot: +0.64000 ]
SCF: Cycle: 24   F: -28.398708674812433   dF: -1.373e-08   |Residual|: 1.171e-05   |deigs|: 7.235e-05  t[s]:     58.41
	FillingsUpdate:  mu: -0.090454423  nElectrons: 9.000000  magneticMoment: [ Abs: 0.64016  Tot: +0.64000 ]
SCF: Cycle: 25   F: -28.398708682109245   dF: -7.297e-09   |Residual|: 9.561e-06   |deigs|: 9.906e-05  t[s]:     60.53
	FillingsUpdate:  mu: -0.090444017  nElectrons: 9.000000  magneticMoment: [ Abs: 0.64013  Tot: +0.64000 ]
SCF: Cycle: 26   F: -28.398708688214594   dF: -6.105e-09   |Residual|: 7.119e-06   |deigs|: 1.344e-04  t[s]:     62.67
SCF: Converged (|Delta E|<1.000000e-08 for 2 iters).


# Ionic positions in lattice coordinates:
ion K   0.000000000000000   0.000000000000000   0.000000000000000 0

# Forces in Lattice coordinates:
force K   0.000000000000000   0.000000000000000   0.000000000000000 0

# Energy components:
   Eewald =      -18.0480261003326561
       EH =        4.8859642038863917
     Eloc =      -18.0784081360936177
      Enl =       -2.7768864726576483
   Epulay =        0.0000000041876954
      Exc =       -4.2667325926098645
       KE =        9.8853814356025644
-------------------------------------
     Etot =      -28.3987076580171340
       TS =        0.0000010301974605
-------------------------------------
        F =      -28.3987086882145938

IonicMinimize: Iter:   0  F: -28.398708688214594  |grad|_K:  0.000e+00  t[s]:     62.79
IonicMinimize: Converged (|grad|_K<1.000000e-04).

#--- Lowdin population analysis ---
# oxidation-state K +0.108
# magnetic-moments K +0.537

End date and time: Sat Feb  5 23:50:28 2022  (Duration: 0-0:01:02.81)
Done!
scale=3
magnetization=0.64
--------------------------------------------------------------------------
The library attempted to open the following supporting CUDA libraries,
but each of them failed.  CUDA-aware support is disabled.
libcuda.so.1: cannot open shared object file: No such file or directory
libcuda.dylib: cannot open shared object file: No such file or directory
/usr/lib64/libcuda.so.1: cannot open shared object file: No such file or directory
/usr/lib64/libcuda.dylib: cannot open shared object file: No such file or directory
If you are not interested in CUDA-aware support, then run with
--mca opal_warn_on_missing_libcuda 0 to suppress this message.  If you are interested
in CUDA-aware support, then try setting LD_LIBRARY_PATH to the location
of libcuda.so.1 to get passed this issue.
--------------------------------------------------------------------------
--------------------------------------------------------------------------
No OpenFabrics connection schemes reported that they were able to be
used on a specific port.  As such, the openib BTL (OpenFabrics
support) will be disabled for this port.

  Local host:           d-3-7-1
  Local device:         mlx5_1
  Local port:           1
  CPCs attempted:       rdmacm, udcm
--------------------------------------------------------------------------

*************** JDFTx 1.6.0 (git hash 42ebbcc2) ***************

Start date and time: Sat Feb  5 23:50:29 2022
Executable jdftx with command-line: -i Alkali.in
Running on hosts (process indices):  d-3-7-1 (0-18)
Divided in process groups (process indices):  0 (0)  1 (1)  2 (2)  3 (3)  4 (4)  5 (5)  6 (6)  7 (7)  8 (8)  9 (9)  10 (10)  11 (11)  12 (12)  13 (13)  14 (14)  15 (15)  16 (16)  17 (17)  18 (18)
Resource initialization completed at t[s]:      0.00
Run totals: 19 processes, 48 threads, 0 GPUs


Input parsed successfully to the following command list (including defaults):

basis kpoint-dependent
coords-type Lattice
core-overlap-check vector
coulomb-interaction Slab 001
davidson-band-ratio 1.1
dump End None
dump-name $INPUT.$VAR
elec-cutoff 20
elec-eigen-algo Davidson
elec-ex-corr gga-PBE
elec-initial-magnetization 0.640000 yes
elec-smearing Fermi 1e-05
electronic-minimize  \
	dirUpdateScheme      FletcherReeves \
	linminMethod         DirUpdateRecommended \
	nIterations          100 \
	history              15 \
	knormThreshold       0 \
	energyDiffThreshold  1e-08 \
	nEnergyDiff          2 \
	alphaTstart          1 \
	alphaTmin            1e-10 \
	updateTestStepSize   yes \
	alphaTreduceFactor   0.1 \
	alphaTincreaseFactor 3 \
	nAlphaAdjustMax      3 \
	wolfeEnergy          0.0001 \
	wolfeGradient        0.9 \
	fdTest               no
electronic-scf  \
	nIterations	10000 \
	energyDiffThreshold	1e-08 \
	residualThreshold	1e-07 \
	mixFraction	0.5 \
	qMetric	0.8 \
	history	10 \
	nEigSteps	2 \
	eigDiffThreshold	1e-08 \
	mixedVariable	Density \
	qKerker	0.8 \
	qKappa	-1 \
	verbose	no \
	mixFractionMag	1.5
exchange-regularization WignerSeitzTruncated
fluid None
fluid-ex-corr (null) lda-PZ
fluid-gummel-loop 10 1.000000e-05
fluid-minimize  \
	dirUpdateScheme      PolakRibiere \
	linminMethod         DirUpdateRecommended \
	nIterations          100 \
	history              15 \
	knormThreshold       0 \
	energyDiffThreshold  0 \
	nEnergyDiff          2 \
	alphaTstart          1 \
	alphaTmin            1e-10 \
	updateTestStepSize   yes \
	alphaTreduceFactor   0.1 \
	alphaTincreaseFactor 3 \
	nAlphaAdjustMax      3 \
	wolfeEnergy          0.0001 \
	wolfeGradient        0.9 \
	fdTest               no
fluid-solvent H2O 55.338 ScalarEOS \
	epsBulk 78.4 \
	pMol 0.92466 \
	epsInf 1.77 \
	Pvap 1.06736e-10 \
	sigmaBulk 4.62e-05 \
	Rvdw 2.61727 \
	Res 1.42 \
	tauNuc 343133 \
	poleEl 15 7 1
forces-output-coords Positions
ion K   0.000000000000000   0.000000000000000   0.000000000000000 0
ion-species SG15/$ID_ONCV_PBE.upf
ion-width 0
ionic-minimize  \
	dirUpdateScheme      L-BFGS \
	linminMethod         DirUpdateRecommended \
	nIterations          0 \
	history              15 \
	knormThreshold       0.0001 \
	energyDiffThreshold  1e-06 \
	nEnergyDiff          2 \
	alphaTstart          1 \
	alphaTmin            1e-10 \
	updateTestStepSize   yes \
	alphaTreduceFactor   0.1 \
	alphaTincreaseFactor 3 \
	nAlphaAdjustMax      3 \
	wolfeEnergy          0.0001 \
	wolfeGradient        0.9 \
	fdTest               no
kpoint   0.000000000000   0.000000000000   0.000000000000  1.00000000000000
kpoint-folding 12 12 1 
latt-move-scale 1 1 1
latt-scale 3 3 1 
lattice  \
	   4.727486978767153   -2.363743489383575    0.000000000000000  \
	  -0.000000000000000    4.094123819672498    0.000000000000000  \
	   0.000000000000000    0.000000000000000   40.000000000000000 
lattice-minimize  \
	dirUpdateScheme      L-BFGS \
	linminMethod         DirUpdateRecommended \
	nIterations          0 \
	history              15 \
	knormThreshold       0 \
	energyDiffThreshold  1e-06 \
	nEnergyDiff          2 \
	alphaTstart          1 \
	alphaTmin            1e-10 \
	updateTestStepSize   yes \
	alphaTreduceFactor   0.1 \
	alphaTincreaseFactor 3 \
	nAlphaAdjustMax      3 \
	wolfeEnergy          0.0001 \
	wolfeGradient        0.9 \
	fdTest               no
lcao-params -1 1e-06 1e-05
pcm-variant GLSSA13
spintype z-spin
subspace-rotation-factor 1 yes
symmetries automatic
symmetry-threshold 0.0001



---------- Setting up symmetries ----------

Found 24 point-group symmetries of the bravais lattice
Found 24 space-group symmetries with basis
Applied RMS atom displacement 0 bohrs to make symmetries exact.

---------- Initializing the Grid ----------
R = 
[      14.1825     -7.09123            0  ]
[            0      12.2824            0  ]
[            0            0           40  ]
unit cell volume = 6967.77
G =
[   0.443025   0.255781         -0  ]
[          0   0.511561         -0  ]
[         -0         -0    0.15708  ]
Minimum fftbox size, Smin = [  60  60  164  ]
Chosen fftbox size, S = [  60  60  168  ]

---------- Exchange Correlation functional ----------
Initalized PBE GGA exchange.
Initalized PBE GGA correlation.

---------- Setting up pseudopotentials ----------
Width of ionic core gaussian charges (only for fluid interactions / plotting) set to 0

Reading pseudopotential file '/home/gridsan/aligho/DFT/build-Nov24/pseudopotentials/SG15/K_ONCV_PBE.upf':
  'K' pseudopotential, 'PBE' functional
  Generated using ONCVPSP code by D. R. Hamann
  Author: Martin Schlipf and Francois Gygi  Date: 150915.
  9 valence electrons, 3 orbitals, 6 projectors, 2222 radial grid points, with lMax = 2
  Transforming local potential to a uniform radial grid of dG=0.02 with 1489 points.
  Transforming nonlocal projectors to a uniform radial grid of dG=0.02 with 432 points.
    3S    l: 0   occupation:  2.0   eigenvalue: -1.298836
    3P    l: 1   occupation:  6.0   eigenvalue: -0.691386
    4S    l: 0   occupation:  1.0   eigenvalue: -0.085223
  Transforming atomic orbitals to a uniform radial grid of dG=0.02 with 432 points.
  Core radius for overlap checks: 2.06 bohrs.
  Reading pulay file /home/gridsan/aligho/DFT/build-Nov24/pseudopotentials/SG15/K_ONCV_PBE.pulay ... using dE_dnG = -1.597219e-05 computed for Ecut = 20.

Initialized 1 species with 1 total atoms.

Folded 1 k-points by 12x12x1 to 144 k-points.

---------- Setting up k-points, bands, fillings ----------
Reduced to 19 k-points under symmetry. 
Computing the number of bands and number of electrons
Calculating initial fillings.
nElectrons:   9.000000   nBands: 6   nStates: 38

----- Setting up reduced wavefunction bases (one per k-point) -----
average nbasis = 29766.104 , ideal nbasis = 29766.845

---------- Setting up coulomb interaction ----------
Initialized slab truncation along lattice direction 001

---------- Setting up 2D ewald sum ----------
Optimum gaussian width for ewald sums = 7.873530 bohr.
Real space sums over 289 unit cells with max indices [  8  8  0  ]
Reciprocal space sums over 81 terms with max indices [  4  4  0  ]

---------- Allocating electronic variables ----------
Initializing wave functions:  linear combination of atomic orbitals
Note: number of bands (6) exceeds available atomic orbitals (5)
K pseudo-atom occupations:   s ( 2 1 )  p ( 6 )
[d-3-7-1:95364] 18 more processes have sent help message help-mpi-common-cuda.txt / dlopen failed
[d-3-7-1:95364] Set MCA parameter "orte_base_help_aggregate" to 0 to see all help / error messages
[d-3-7-1:95364] 18 more processes have sent help message help-mpi-btl-openib-cpc-base.txt / no cpcs for port
	FillingsUpdate:  mu: -0.088539021  nElectrons: 9.000000  magneticMoment: [ Abs: 0.64000  Tot: +0.64000 ]
LCAOMinimize: Iter:   0  F: -28.3821781931632025  |grad|_K:  1.116e-05  alpha:  1.000e+00
	FillingsUpdate:  mu: -0.088537014  nElectrons: 9.000000  magneticMoment: [ Abs: 0.64000  Tot: +0.64000 ]
LCAOMinimize: Iter:   1  F: -28.3821782775640266  |grad|_K:  7.431e-08  alpha:  9.915e-01  linmin: -9.525e-03  cgtest:  2.567e-01  t[s]:      8.92
LCAOMinimize: Encountered beta<0, resetting CG.
	FillingsUpdate:  mu: -0.088537019  nElectrons: 9.000000  magneticMoment: [ Abs: 0.64000  Tot: +0.64000 ]
LCAOMinimize: Iter:   2  F: -28.3821782775683005  |grad|_K:  9.692e-09  alpha:  1.129e+00  linmin:  9.475e-02  cgtest: -9.990e-01  t[s]:     11.26
LCAOMinimize: Converged (|Delta F|<1.000000e-06 for 2 iters).


---- Citations for features of the code used in this run ----

   Software package:
      R. Sundararaman, K. Letchworth-Weaver, K.A. Schwarz, D. Gunceler, Y. Ozhabes and T.A. Arias, 'JDFTx: software for joint density-functional theory', SoftwareX 6, 278 (2017)

   gga-PBE exchange-correlation functional:
      J.P. Perdew, K. Burke and M. Ernzerhof, Phys. Rev. Lett. 77, 3865 (1996)

   Pseudopotentials:
      M Schlipf and F Gygi, Comput. Phys. Commun. 196, 36 (2015)

   Truncated Coulomb potentials:
      R. Sundararaman and T.A. Arias, Phys. Rev. B 87, 165122 (2013)

This list may not be complete. Please suggest additional citations or
report any other bugs at https://github.com/shankar1729/jdftx/issues

Initialization completed successfully at t[s]:     11.43


-------- Electronic minimization -----------
Will mix electronic density at each iteration.
	FillingsUpdate:  mu: -0.088537019  nElectrons: 9.000000  magneticMoment: [ Abs: 0.64000  Tot: +0.64000 ]
	FillingsUpdate:  mu: -0.089428763  nElectrons: 9.000000  magneticMoment: [ Abs: 0.64000  Tot: +0.64000 ]
SCF: Cycle:  0   F: -28.383357626023013   dF: -1.179e-03   |Residual|: 3.351e-03   |deigs|: 1.741e-01  t[s]:     16.25
	FillingsUpdate:  mu: -0.089580532  nElectrons: 9.000000  magneticMoment: [ Abs: 0.64011  Tot: +0.64000 ]
SCF: Cycle:  1   F: -28.383391232953983   dF: -3.361e-05   |Residual|: 2.426e-03   |deigs|: 4.853e-03  t[s]:     20.07
	FillingsUpdate:  mu: -0.089714275  nElectrons: 9.000000  magneticMoment: [ Abs: 0.64125  Tot: +0.64000 ]
SCF: Cycle:  2   F: -28.383415974718716   dF: -2.474e-05   |Residual|: 1.839e-03   |deigs|: 2.961e-03  t[s]:     23.96
	FillingsUpdate:  mu: -0.089970629  nElectrons: 9.000000  magneticMoment: [ Abs: 0.64156  Tot: +0.64000 ]
SCF: Cycle:  3   F: -28.383435133771446   dF: -1.916e-05   |Residual|: 1.265e-03   |deigs|: 1.800e-03  t[s]:     27.81
	FillingsUpdate:  mu: -0.090120376  nElectrons: 9.000000  magneticMoment: [ Abs: 0.64097  Tot: +0.64000 ]
SCF: Cycle:  4   F: -28.383447347661114   dF: -1.221e-05   |Residual|: 7.176e-04   |deigs|: 2.427e-03  t[s]:     31.77
	FillingsUpdate:  mu: -0.090242825  nElectrons: 9.000000  magneticMoment: [ Abs: 0.64128  Tot: +0.64000 ]
SCF: Cycle:  5   F: -28.383453909793431   dF: -6.562e-06   |Residual|: 4.126e-04   |deigs|: 1.848e-03  t[s]:     35.82
	FillingsUpdate:  mu: -0.090198487  nElectrons: 9.000000  magneticMoment: [ Abs: 0.64098  Tot: +0.64000 ]
SCF: Cycle:  6   F: -28.383457471774449   dF: -3.562e-06   |Residual|: 2.866e-04   |deigs|: 9.209e-04  t[s]:     39.91
	FillingsUpdate:  mu: -0.090097472  nElectrons: 9.000000  magneticMoment: [ Abs: 0.64126  Tot: +0.64000 ]
SCF: Cycle:  7   F: -28.383459205064078   dF: -1.733e-06   |Residual|: 2.278e-04   |deigs|: 7.768e-04  t[s]:     44.07
	FillingsUpdate:  mu: -0.089954129  nElectrons: 9.000000  magneticMoment: [ Abs: 0.64151  Tot: +0.64000 ]
SCF: Cycle:  8   F: -28.383459941874147   dF: -7.368e-07   |Residual|: 1.806e-04   |deigs|: 5.458e-04  t[s]:     48.34
	FillingsUpdate:  mu: -0.089704437  nElectrons: 9.000000  magneticMoment: [ Abs: 0.64202  Tot: +0.64000 ]
SCF: Cycle:  9   F: -28.383460134424659   dF: -1.926e-07   |Residual|: 1.586e-04   |deigs|: 3.697e-04  t[s]:     52.64
	FillingsUpdate:  mu: -0.089535538  nElectrons: 9.000000  magneticMoment: [ Abs: 0.64181  Tot: +0.64000 ]
SCF: Cycle: 10   F: -28.383460130466702   dF: +3.958e-09   |Residual|: 1.477e-04   |deigs|: 2.112e-04  t[s]:     57.00
	FillingsUpdate:  mu: -0.089300230  nElectrons: 9.000000  magneticMoment: [ Abs: 0.64217  Tot: +0.64000 ]
SCF: Cycle: 11   F: -28.383460778557904   dF: -6.481e-07   |Residual|: 1.227e-04   |deigs|: 2.553e-04  t[s]:     61.39
	FillingsUpdate:  mu: -0.089330949  nElectrons: 9.000000  magneticMoment: [ Abs: 0.64178  Tot: +0.64000 ]
SCF: Cycle: 12   F: -28.383461578320897   dF: -7.998e-07   |Residual|: 9.473e-05   |deigs|: 9.441e-05  t[s]:     65.70
	FillingsUpdate:  mu: -0.089082540  nElectrons: 9.000000  magneticMoment: [ Abs: 0.64146  Tot: +0.64000 ]
SCF: Cycle: 13   F: -28.383461758619930   dF: -1.803e-07   |Residual|: 9.477e-05   |deigs|: 2.663e-04  t[s]:     69.99
	FillingsUpdate:  mu: -0.088865134  nElectrons: 9.000000  magneticMoment: [ Abs: 0.64158  Tot: +0.64000 ]
SCF: Cycle: 14   F: -28.383461491899652   dF: +2.667e-07   |Residual|: 9.518e-05   |deigs|: 2.423e-04  t[s]:     74.37
	FillingsUpdate:  mu: -0.088699509  nElectrons: 9.000000  magneticMoment: [ Abs: 0.64180  Tot: +0.64000 ]
SCF: Cycle: 15   F: -28.383461717693585   dF: -2.258e-07   |Residual|: 8.299e-05   |deigs|: 1.711e-04  t[s]:     78.73
	FillingsUpdate:  mu: -0.088645879  nElectrons: 9.000000  magneticMoment: [ Abs: 0.64151  Tot: +0.64000 ]
SCF: Cycle: 16   F: -28.383462241729816   dF: -5.240e-07   |Residual|: 6.516e-05   |deigs|: 9.685e-05  t[s]:     83.04
	FillingsUpdate:  mu: -0.088526851  nElectrons: 9.000000  magneticMoment: [ Abs: 0.64120  Tot: +0.64000 ]
SCF: Cycle: 17   F: -28.383462439565605   dF: -1.978e-07   |Residual|: 5.164e-05   |deigs|: 2.964e-04  t[s]:     87.30
	FillingsUpdate:  mu: -0.088464119  nElectrons: 9.000000  magneticMoment: [ Abs: 0.64114  Tot: +0.64000 ]
SCF: Cycle: 18   F: -28.383462640222813   dF: -2.007e-07   |Residual|: 3.306e-05   |deigs|: 2.886e-04  t[s]:     91.58
	FillingsUpdate:  mu: -0.088449203  nElectrons: 9.000000  magneticMoment: [ Abs: 0.64116  Tot: +0.64000 ]
SCF: Cycle: 19   F: -28.383462731644446   dF: -9.142e-08   |Residual|: 2.045e-05   |deigs|: 2.332e-05  t[s]:     95.86
	FillingsUpdate:  mu: -0.088452823  nElectrons: 9.000000  magneticMoment: [ Abs: 0.64115  Tot: +0.64000 ]
SCF: Cycle: 20   F: -28.383462768477962   dF: -3.683e-08   |Residual|: 1.124e-05   |deigs|: 1.612e-05  t[s]:    100.10
	FillingsUpdate:  mu: -0.088453337  nElectrons: 9.000000  magneticMoment: [ Abs: 0.64114  Tot: +0.64000 ]
SCF: Cycle: 21   F: -28.383462793105430   dF: -2.463e-08   |Residual|: 6.598e-06   |deigs|: 1.606e-05  t[s]:    104.42
	FillingsUpdate:  mu: -0.088452303  nElectrons: 9.000000  magneticMoment: [ Abs: 0.64115  Tot: +0.64000 ]
SCF: Cycle: 22   F: -28.383462807488108   dF: -1.438e-08   |Residual|: 4.112e-06   |deigs|: 2.202e-05  t[s]:    108.50
	FillingsUpdate:  mu: -0.088452655  nElectrons: 9.000000  magneticMoment: [ Abs: 0.64116  Tot: +0.64000 ]
SCF: Cycle: 23   F: -28.383462814282542   dF: -6.794e-09   |Residual|: 3.066e-06   |deigs|: 2.849e-05  t[s]:    112.59
	FillingsUpdate:  mu: -0.088452137  nElectrons: 9.000000  magneticMoment: [ Abs: 0.64116  Tot: +0.64000 ]
SCF: Cycle: 24   F: -28.383462818520002   dF: -4.237e-09   |Residual|: 2.120e-06   |deigs|: 3.730e-05  t[s]:    116.74
SCF: Converged (|Delta E|<1.000000e-08 for 2 iters).


# Ionic positions in lattice coordinates:
ion K   0.000000000000000   0.000000000000000   0.000000000000000 0

# Forces in Lattice coordinates:
force K   0.000000000000000   0.000000000000000   0.000000000000000 0

# Energy components:
   Eewald =      -12.0320174002217755
       EH =       10.7347514033232461
     Eloc =      -29.9319999443441418
      Enl =       -2.7707146285671511
   Epulay =       -0.0000000016982517
      Exc =       -4.2402002946836976
       KE =        9.8567190778692311
-------------------------------------
     Etot =      -28.3834617883225420
       TS =        0.0000010301974605
-------------------------------------
        F =      -28.3834628185200017

IonicMinimize: Iter:   0  F: -28.383462818520002  |grad|_K:  0.000e+00  t[s]:    117.00
IonicMinimize: Converged (|grad|_K<1.000000e-04).

#--- Lowdin population analysis ---
# oxidation-state K +0.025
# magnetic-moments K +0.618

End date and time: Sat Feb  5 23:52:26 2022  (Duration: 0-0:01:57.05)
Done!
scale=4
magnetization=0.64
--------------------------------------------------------------------------
The library attempted to open the following supporting CUDA libraries,
but each of them failed.  CUDA-aware support is disabled.
libcuda.so.1: cannot open shared object file: No such file or directory
libcuda.dylib: cannot open shared object file: No such file or directory
/usr/lib64/libcuda.so.1: cannot open shared object file: No such file or directory
/usr/lib64/libcuda.dylib: cannot open shared object file: No such file or directory
If you are not interested in CUDA-aware support, then run with
--mca opal_warn_on_missing_libcuda 0 to suppress this message.  If you are interested
in CUDA-aware support, then try setting LD_LIBRARY_PATH to the location
of libcuda.so.1 to get passed this issue.
--------------------------------------------------------------------------
--------------------------------------------------------------------------
No OpenFabrics connection schemes reported that they were able to be
used on a specific port.  As such, the openib BTL (OpenFabrics
support) will be disabled for this port.

  Local host:           d-3-7-1
  Local device:         mlx5_1
  Local port:           1
  CPCs attempted:       rdmacm, udcm
--------------------------------------------------------------------------

*************** JDFTx 1.6.0 (git hash 42ebbcc2) ***************

Start date and time: Sat Feb  5 23:52:27 2022
Executable jdftx with command-line: -i Alkali.in
Running on hosts (process indices):  d-3-7-1 (0-18)
Divided in process groups (process indices):  0 (0)  1 (1)  2 (2)  3 (3)  4 (4)  5 (5)  6 (6)  7 (7)  8 (8)  9 (9)  10 (10)  11 (11)  12 (12)  13 (13)  14 (14)  15 (15)  16 (16)  17 (17)  18 (18)
Resource initialization completed at t[s]:      0.00
Run totals: 19 processes, 48 threads, 0 GPUs


Input parsed successfully to the following command list (including defaults):

basis kpoint-dependent
coords-type Lattice
core-overlap-check vector
coulomb-interaction Slab 001
davidson-band-ratio 1.1
dump End None
dump-name $INPUT.$VAR
elec-cutoff 20
elec-eigen-algo Davidson
elec-ex-corr gga-PBE
elec-initial-magnetization 0.640000 yes
elec-smearing Fermi 1e-05
electronic-minimize  \
	dirUpdateScheme      FletcherReeves \
	linminMethod         DirUpdateRecommended \
	nIterations          100 \
	history              15 \
	knormThreshold       0 \
	energyDiffThreshold  1e-08 \
	nEnergyDiff          2 \
	alphaTstart          1 \
	alphaTmin            1e-10 \
	updateTestStepSize   yes \
	alphaTreduceFactor   0.1 \
	alphaTincreaseFactor 3 \
	nAlphaAdjustMax      3 \
	wolfeEnergy          0.0001 \
	wolfeGradient        0.9 \
	fdTest               no
electronic-scf  \
	nIterations	10000 \
	energyDiffThreshold	1e-08 \
	residualThreshold	1e-07 \
	mixFraction	0.5 \
	qMetric	0.8 \
	history	10 \
	nEigSteps	2 \
	eigDiffThreshold	1e-08 \
	mixedVariable	Density \
	qKerker	0.8 \
	qKappa	-1 \
	verbose	no \
	mixFractionMag	1.5
exchange-regularization WignerSeitzTruncated
fluid None
fluid-ex-corr (null) lda-PZ
fluid-gummel-loop 10 1.000000e-05
fluid-minimize  \
	dirUpdateScheme      PolakRibiere \
	linminMethod         DirUpdateRecommended \
	nIterations          100 \
	history              15 \
	knormThreshold       0 \
	energyDiffThreshold  0 \
	nEnergyDiff          2 \
	alphaTstart          1 \
	alphaTmin            1e-10 \
	updateTestStepSize   yes \
	alphaTreduceFactor   0.1 \
	alphaTincreaseFactor 3 \
	nAlphaAdjustMax      3 \
	wolfeEnergy          0.0001 \
	wolfeGradient        0.9 \
	fdTest               no
fluid-solvent H2O 55.338 ScalarEOS \
	epsBulk 78.4 \
	pMol 0.92466 \
	epsInf 1.77 \
	Pvap 1.06736e-10 \
	sigmaBulk 4.62e-05 \
	Rvdw 2.61727 \
	Res 1.42 \
	tauNuc 343133 \
	poleEl 15 7 1
forces-output-coords Positions
ion K   0.000000000000000   0.000000000000000   0.000000000000000 0
ion-species SG15/$ID_ONCV_PBE.upf
ion-width 0
ionic-minimize  \
	dirUpdateScheme      L-BFGS \
	linminMethod         DirUpdateRecommended \
	nIterations          0 \
	history              15 \
	knormThreshold       0.0001 \
	energyDiffThreshold  1e-06 \
	nEnergyDiff          2 \
	alphaTstart          1 \
	alphaTmin            1e-10 \
	updateTestStepSize   yes \
	alphaTreduceFactor   0.1 \
	alphaTincreaseFactor 3 \
	nAlphaAdjustMax      3 \
	wolfeEnergy          0.0001 \
	wolfeGradient        0.9 \
	fdTest               no
kpoint   0.000000000000   0.000000000000   0.000000000000  1.00000000000000
kpoint-folding 12 12 1 
latt-move-scale 1 1 1
latt-scale 4 4 1 
lattice  \
	   4.727486978767153   -2.363743489383575    0.000000000000000  \
	  -0.000000000000000    4.094123819672498    0.000000000000000  \
	   0.000000000000000    0.000000000000000   40.000000000000000 
lattice-minimize  \
	dirUpdateScheme      L-BFGS \
	linminMethod         DirUpdateRecommended \
	nIterations          0 \
	history              15 \
	knormThreshold       0 \
	energyDiffThreshold  1e-06 \
	nEnergyDiff          2 \
	alphaTstart          1 \
	alphaTmin            1e-10 \
	updateTestStepSize   yes \
	alphaTreduceFactor   0.1 \
	alphaTincreaseFactor 3 \
	nAlphaAdjustMax      3 \
	wolfeEnergy          0.0001 \
	wolfeGradient        0.9 \
	fdTest               no
lcao-params -1 1e-06 1e-05
pcm-variant GLSSA13
spintype z-spin
subspace-rotation-factor 1 yes
symmetries automatic
symmetry-threshold 0.0001



---------- Setting up symmetries ----------

Found 24 point-group symmetries of the bravais lattice
Found 24 space-group symmetries with basis
Applied RMS atom displacement 0 bohrs to make symmetries exact.

---------- Initializing the Grid ----------
R = 
[      18.9099     -9.45497            0  ]
[            0      16.3765            0  ]
[            0            0           40  ]
unit cell volume = 12387.1
G =
[   0.332269   0.191835         -0  ]
[          0   0.383671         -0  ]
[         -0         -0    0.15708  ]
Minimum fftbox size, Smin = [  80  80  164  ]
Chosen fftbox size, S = [  80  80  168  ]

---------- Exchange Correlation functional ----------
Initalized PBE GGA exchange.
Initalized PBE GGA correlation.

---------- Setting up pseudopotentials ----------
Width of ionic core gaussian charges (only for fluid interactions / plotting) set to 0

Reading pseudopotential file '/home/gridsan/aligho/DFT/build-Nov24/pseudopotentials/SG15/K_ONCV_PBE.upf':
  'K' pseudopotential, 'PBE' functional
  Generated using ONCVPSP code by D. R. Hamann
  Author: Martin Schlipf and Francois Gygi  Date: 150915.
  9 valence electrons, 3 orbitals, 6 projectors, 2222 radial grid points, with lMax = 2
  Transforming local potential to a uniform radial grid of dG=0.02 with 1489 points.
  Transforming nonlocal projectors to a uniform radial grid of dG=0.02 with 432 points.
    3S    l: 0   occupation:  2.0   eigenvalue: -1.298836
    3P    l: 1   occupation:  6.0   eigenvalue: -0.691386
    4S    l: 0   occupation:  1.0   eigenvalue: -0.085223
  Transforming atomic orbitals to a uniform radial grid of dG=0.02 with 432 points.
  Core radius for overlap checks: 2.06 bohrs.
  Reading pulay file /home/gridsan/aligho/DFT/build-Nov24/pseudopotentials/SG15/K_ONCV_PBE.pulay ... using dE_dnG = -1.597219e-05 computed for Ecut = 20.

Initialized 1 species with 1 total atoms.

Folded 1 k-points by 12x12x1 to 144 k-points.

---------- Setting up k-points, bands, fillings ----------
Reduced to 19 k-points under symmetry. 
Computing the number of bands and number of electrons
Calculating initial fillings.
nElectrons:   9.000000   nBands: 6   nStates: 38

----- Setting up reduced wavefunction bases (one per k-point) -----
average nbasis = 52924.021 , ideal nbasis = 52918.836

---------- Setting up coulomb interaction ----------
Initialized slab truncation along lattice direction 001

---------- Setting up 2D ewald sum ----------
Optimum gaussian width for ewald sums = 10.498040 bohr.
Real space sums over 289 unit cells with max indices [  8  8  0  ]
Reciprocal space sums over 81 terms with max indices [  4  4  0  ]

---------- Allocating electronic variables ----------
Initializing wave functions:  linear combination of atomic orbitals
Note: number of bands (6) exceeds available atomic orbitals (5)
K pseudo-atom occupations:   s ( 2 1 )  p ( 6 )
[d-3-7-1:62497] 18 more processes have sent help message help-mpi-common-cuda.txt / dlopen failed
[d-3-7-1:62497] Set MCA parameter "orte_base_help_aggregate" to 0 to see all help / error messages
[d-3-7-1:62497] 18 more processes have sent help message help-mpi-btl-openib-cpc-base.txt / no cpcs for port
	FillingsUpdate:  mu: -0.085713242  nElectrons: 9.000000  magneticMoment: [ Abs: 0.64000  Tot: +0.64000 ]
LCAOMinimize: Iter:   0  F: -28.3790254954937993  |grad|_K:  2.463e-06  alpha:  1.000e+00
	FillingsUpdate:  mu: -0.085712721  nElectrons: 9.000000  magneticMoment: [ Abs: 0.64000  Tot: +0.64000 ]
LCAOMinimize: Iter:   1  F: -28.3790254996055324  |grad|_K:  1.146e-08  alpha:  9.909e-01  linmin: -1.782e-03  cgtest:  1.170e-01  t[s]:     15.40
LCAOMinimize: Encountered beta<0, resetting CG.
LCAOMinimize: 	Step increased F by 4.263256e-14, reducing alpha to 2.699636e-02.
LCAOMinimize: 	Step increased F by 1.492140e-13, reducing alpha to 2.699636e-03.
LCAOMinimize: 	Step increased F by 2.131628e-13, reducing alpha to 2.699636e-04.
LCAOMinimize: 	Step failed to reduce F after 3 attempts. Quitting step.
LCAOMinimize: 	Undoing step.
LCAOMinimize: 	Step failed along negative gradient direction.
LCAOMinimize: Probably at roundoff error limit. (Stopping)


---- Citations for features of the code used in this run ----

   Software package:
      R. Sundararaman, K. Letchworth-Weaver, K.A. Schwarz, D. Gunceler, Y. Ozhabes and T.A. Arias, 'JDFTx: software for joint density-functional theory', SoftwareX 6, 278 (2017)

   gga-PBE exchange-correlation functional:
      J.P. Perdew, K. Burke and M. Ernzerhof, Phys. Rev. Lett. 77, 3865 (1996)

   Pseudopotentials:
      M Schlipf and F Gygi, Comput. Phys. Commun. 196, 36 (2015)

   Truncated Coulomb potentials:
      R. Sundararaman and T.A. Arias, Phys. Rev. B 87, 165122 (2013)

This list may not be complete. Please suggest additional citations or
report any other bugs at https://github.com/shankar1729/jdftx/issues

Initialization completed successfully at t[s]:     26.95


-------- Electronic minimization -----------
Will mix electronic density at each iteration.
	FillingsUpdate:  mu: -0.085712721  nElectrons: 9.000000  magneticMoment: [ Abs: 0.64000  Tot: +0.64000 ]
	FillingsUpdate:  mu: -0.085814184  nElectrons: 9.000000  magneticMoment: [ Abs: 0.64000  Tot: +0.64000 ]
SCF: Cycle:  0   F: -28.379115019016787   dF: -8.952e-05   |Residual|: 1.392e-03   |deigs|: 1.704e-01  t[s]:     35.23
	FillingsUpdate:  mu: -0.085826332  nElectrons: 9.000000  magneticMoment: [ Abs: 0.64121  Tot: +0.64000 ]
SCF: Cycle:  1   F: -28.379116353257825   dF: -1.334e-06   |Residual|: 3.514e-04   |deigs|: 9.988e-03  t[s]:     41.79
	FillingsUpdate:  mu: -0.085799823  nElectrons: 9.000000  magneticMoment: [ Abs: 0.64128  Tot: +0.64000 ]
SCF: Cycle:  2   F: -28.379116677365921   dF: -3.241e-07   |Residual|: 1.988e-04   |deigs|: 1.639e-03  t[s]:     48.44
	FillingsUpdate:  mu: -0.085785673  nElectrons: 9.000000  magneticMoment: [ Abs: 0.64150  Tot: +0.64000 ]
SCF: Cycle:  3   F: -28.379116876229801   dF: -1.989e-07   |Residual|: 1.448e-04   |deigs|: 5.315e-04  t[s]:     55.15
	FillingsUpdate:  mu: -0.085747325  nElectrons: 9.000000  magneticMoment: [ Abs: 0.64146  Tot: +0.64000 ]
SCF: Cycle:  4   F: -28.379117036004185   dF: -1.598e-07   |Residual|: 1.066e-04   |deigs|: 2.722e-04  t[s]:     62.09
	FillingsUpdate:  mu: -0.085696525  nElectrons: 9.000000  magneticMoment: [ Abs: 0.64149  Tot: +0.64000 ]
SCF: Cycle:  5   F: -28.379117123673069   dF: -8.767e-08   |Residual|: 7.134e-05   |deigs|: 2.963e-04  t[s]:     69.09
	FillingsUpdate:  mu: -0.085655061  nElectrons: 9.000000  magneticMoment: [ Abs: 0.64144  Tot: +0.64000 ]
SCF: Cycle:  6   F: -28.379117176594882   dF: -5.292e-08   |Residual|: 5.440e-05   |deigs|: 3.449e-04  t[s]:     76.15
	FillingsUpdate:  mu: -0.085634274  nElectrons: 9.000000  magneticMoment: [ Abs: 0.64145  Tot: +0.64000 ]
SCF: Cycle:  7   F: -28.379117227510296   dF: -5.092e-08   |Residual|: 4.458e-05   |deigs|: 4.804e-04  t[s]:     83.35
	FillingsUpdate:  mu: -0.085617479  nElectrons: 9.000000  magneticMoment: [ Abs: 0.64145  Tot: +0.64000 ]
SCF: Cycle:  8   F: -28.379117264626593   dF: -3.712e-08   |Residual|: 3.854e-05   |deigs|: 3.939e-04  t[s]:     90.70
	FillingsUpdate:  mu: -0.085595856  nElectrons: 9.000000  magneticMoment: [ Abs: 0.64145  Tot: +0.64000 ]
SCF: Cycle:  9   F: -28.379117288515207   dF: -2.389e-08   |Residual|: 3.127e-05   |deigs|: 1.823e-04  t[s]:     98.18
	FillingsUpdate:  mu: -0.085584050  nElectrons: 9.000000  magneticMoment: [ Abs: 0.64146  Tot: +0.64000 ]
SCF: Cycle: 10   F: -28.379117278452572   dF: +1.006e-08   |Residual|: 2.580e-05   |deigs|: 1.426e-04  t[s]:    105.74
	FillingsUpdate:  mu: -0.085567570  nElectrons: 9.000000  magneticMoment: [ Abs: 0.64151  Tot: +0.64000 ]
SCF: Cycle: 11   F: -28.379117247486764   dF: +3.097e-08   |Residual|: 2.290e-05   |deigs|: 9.864e-05  t[s]:    113.32
	FillingsUpdate:  mu: -0.085548690  nElectrons: 9.000000  magneticMoment: [ Abs: 0.64157  Tot: +0.64000 ]
SCF: Cycle: 12   F: -28.379117084070170   dF: +1.634e-07   |Residual|: 2.054e-05   |deigs|: 7.667e-05  t[s]:    120.89
	FillingsUpdate:  mu: -0.085528087  nElectrons: 9.000000  magneticMoment: [ Abs: 0.64159  Tot: +0.64000 ]
SCF: Cycle: 13   F: -28.379117091555983   dF: -7.486e-09   |Residual|: 2.009e-05   |deigs|: 5.917e-05  t[s]:    128.32
	FillingsUpdate:  mu: -0.085502980  nElectrons: 9.000000  magneticMoment: [ Abs: 0.64161  Tot: +0.64000 ]
SCF: Cycle: 14   F: -28.379117198171834   dF: -1.066e-07   |Residual|: 1.891e-05   |deigs|: 3.607e-05  t[s]:    135.85
	FillingsUpdate:  mu: -0.085461684  nElectrons: 9.000000  magneticMoment: [ Abs: 0.64162  Tot: +0.64000 ]
SCF: Cycle: 15   F: -28.379117220568688   dF: -2.240e-08   |Residual|: 1.719e-05   |deigs|: 4.919e-05  t[s]:    143.18
	FillingsUpdate:  mu: -0.085435330  nElectrons: 9.000000  magneticMoment: [ Abs: 0.64154  Tot: +0.64000 ]
SCF: Cycle: 16   F: -28.379117229485598   dF: -8.917e-09   |Residual|: 1.515e-05   |deigs|: 3.123e-05  t[s]:    150.72
	FillingsUpdate:  mu: -0.085427105  nElectrons: 9.000000  magneticMoment: [ Abs: 0.64150  Tot: +0.64000 ]
SCF: Cycle: 17   F: -28.379117236232126   dF: -6.747e-09   |Residual|: 1.188e-05   |deigs|: 1.435e-05  t[s]:    158.24
SCF: Converged (|Delta E|<1.000000e-08 for 2 iters).


# Ionic positions in lattice coordinates:
ion K   0.000000000000000   0.000000000000000   0.000000000000000 0

# Forces in Lattice coordinates:
force K  -0.000000000000000   0.000000000000000   0.000000000000000 0

# Energy components:
   Eewald =       -9.0240130501663280
       EH =       13.7749412813639456
     Eloc =      -35.9852307210060971
      Enl =       -2.7669959745282275
   Epulay =        0.0000000066859396
      Exc =       -4.2425580151905322
       KE =        9.8647407809193801
-------------------------------------
     Etot =      -28.3791156919219212
       TS =        0.0000015443102062
-------------------------------------
        F =      -28.3791172362321262

IonicMinimize: Iter:   0  F: -28.379117236232126  |grad|_K:  0.000e+00  t[s]:    158.65
IonicMinimize: Converged (|grad|_K<1.000000e-04).

#--- Lowdin population analysis ---
# oxidation-state K +0.001
# magnetic-moments K +0.640

End date and time: Sat Feb  5 23:55:05 2022  (Duration: 0-0:02:38.72)
Done!
