The alkali metal is K
scale=2
magnetization=0.9
--------------------------------------------------------------------------
The library attempted to open the following supporting CUDA libraries,
but each of them failed.  CUDA-aware support is disabled.
libcuda.so.1: cannot open shared object file: No such file or directory
libcuda.dylib: cannot open shared object file: No such file or directory
/usr/lib64/libcuda.so.1: cannot open shared object file: No such file or directory
/usr/lib64/libcuda.dylib: cannot open shared object file: No such file or directory
If you are not interested in CUDA-aware support, then run with
--mca opal_warn_on_missing_libcuda 0 to suppress this message.  If you are interested
in CUDA-aware support, then try setting LD_LIBRARY_PATH to the location
of libcuda.so.1 to get passed this issue.
--------------------------------------------------------------------------
--------------------------------------------------------------------------
No OpenFabrics connection schemes reported that they were able to be
used on a specific port.  As such, the openib BTL (OpenFabrics
support) will be disabled for this port.

  Local host:           d-4-8-2
  Local device:         mlx5_1
  Local port:           1
  CPCs attempted:       rdmacm, udcm
--------------------------------------------------------------------------

*************** JDFTx 1.6.0 (git hash 42ebbcc2) ***************

Start date and time: Sat Feb  5 23:54:35 2022
Executable jdftx with command-line: -i Alkali.in
Running on hosts (process indices):  d-4-8-2 (0-18)
Divided in process groups (process indices):  0 (0)  1 (1)  2 (2)  3 (3)  4 (4)  5 (5)  6 (6)  7 (7)  8 (8)  9 (9)  10 (10)  11 (11)  12 (12)  13 (13)  14 (14)  15 (15)  16 (16)  17 (17)  18 (18)
Resource initialization completed at t[s]:      0.00
Run totals: 19 processes, 48 threads, 0 GPUs


Input parsed successfully to the following command list (including defaults):

basis kpoint-dependent
coords-type Lattice
core-overlap-check vector
coulomb-interaction Slab 001
davidson-band-ratio 1.1
dump End None
dump-name $INPUT.$VAR
elec-cutoff 20
elec-eigen-algo Davidson
elec-ex-corr gga-PBE
elec-initial-magnetization 0.900000 yes
elec-smearing Fermi 1e-05
electronic-minimize  \
	dirUpdateScheme      FletcherReeves \
	linminMethod         DirUpdateRecommended \
	nIterations          100 \
	history              15 \
	knormThreshold       0 \
	energyDiffThreshold  1e-08 \
	nEnergyDiff          2 \
	alphaTstart          1 \
	alphaTmin            1e-10 \
	updateTestStepSize   yes \
	alphaTreduceFactor   0.1 \
	alphaTincreaseFactor 3 \
	nAlphaAdjustMax      3 \
	wolfeEnergy          0.0001 \
	wolfeGradient        0.9 \
	fdTest               no
electronic-scf  \
	nIterations	10000 \
	energyDiffThreshold	1e-08 \
	residualThreshold	1e-07 \
	mixFraction	0.5 \
	qMetric	0.8 \
	history	10 \
	nEigSteps	2 \
	eigDiffThreshold	1e-08 \
	mixedVariable	Density \
	qKerker	0.8 \
	qKappa	-1 \
	verbose	no \
	mixFractionMag	1.5
exchange-regularization WignerSeitzTruncated
fluid None
fluid-ex-corr (null) lda-PZ
fluid-gummel-loop 10 1.000000e-05
fluid-minimize  \
	dirUpdateScheme      PolakRibiere \
	linminMethod         DirUpdateRecommended \
	nIterations          100 \
	history              15 \
	knormThreshold       0 \
	energyDiffThreshold  0 \
	nEnergyDiff          2 \
	alphaTstart          1 \
	alphaTmin            1e-10 \
	updateTestStepSize   yes \
	alphaTreduceFactor   0.1 \
	alphaTincreaseFactor 3 \
	nAlphaAdjustMax      3 \
	wolfeEnergy          0.0001 \
	wolfeGradient        0.9 \
	fdTest               no
fluid-solvent H2O 55.338 ScalarEOS \
	epsBulk 78.4 \
	pMol 0.92466 \
	epsInf 1.77 \
	Pvap 1.06736e-10 \
	sigmaBulk 4.62e-05 \
	Rvdw 2.61727 \
	Res 1.42 \
	tauNuc 343133 \
	poleEl 15 7 1
forces-output-coords Positions
ion K   0.000000000000000   0.000000000000000   0.000000000000000 0
ion-species SG15/$ID_ONCV_PBE.upf
ion-width 0
ionic-minimize  \
	dirUpdateScheme      L-BFGS \
	linminMethod         DirUpdateRecommended \
	nIterations          0 \
	history              15 \
	knormThreshold       0.0001 \
	energyDiffThreshold  1e-06 \
	nEnergyDiff          2 \
	alphaTstart          1 \
	alphaTmin            1e-10 \
	updateTestStepSize   yes \
	alphaTreduceFactor   0.1 \
	alphaTincreaseFactor 3 \
	nAlphaAdjustMax      3 \
	wolfeEnergy          0.0001 \
	wolfeGradient        0.9 \
	fdTest               no
kpoint   0.000000000000   0.000000000000   0.000000000000  1.00000000000000
kpoint-folding 12 12 1 
latt-move-scale 1 1 1
latt-scale 2 2 1 
lattice  \
	   4.727486978767153   -2.363743489383575    0.000000000000000  \
	  -0.000000000000000    4.094123819672498    0.000000000000000  \
	   0.000000000000000    0.000000000000000   40.000000000000000 
lattice-minimize  \
	dirUpdateScheme      L-BFGS \
	linminMethod         DirUpdateRecommended \
	nIterations          0 \
	history              15 \
	knormThreshold       0 \
	energyDiffThreshold  1e-06 \
	nEnergyDiff          2 \
	alphaTstart          1 \
	alphaTmin            1e-10 \
	updateTestStepSize   yes \
	alphaTreduceFactor   0.1 \
	alphaTincreaseFactor 3 \
	nAlphaAdjustMax      3 \
	wolfeEnergy          0.0001 \
	wolfeGradient        0.9 \
	fdTest               no
lcao-params -1 1e-06 1e-05
pcm-variant GLSSA13
spintype z-spin
subspace-rotation-factor 1 yes
symmetries automatic
symmetry-threshold 0.0001



---------- Setting up symmetries ----------

Found 24 point-group symmetries of the bravais lattice
Found 24 space-group symmetries with basis
Applied RMS atom displacement 0 bohrs to make symmetries exact.

---------- Initializing the Grid ----------
R = 
[      9.45497     -4.72749            0  ]
[            0      8.18825            0  ]
[            0            0           40  ]
unit cell volume = 3096.79
G =
[   0.664538   0.383671         -0  ]
[          0   0.767342         -0  ]
[         -0         -0    0.15708  ]
Minimum fftbox size, Smin = [  40  40  164  ]
Chosen fftbox size, S = [  40  40  168  ]

---------- Exchange Correlation functional ----------
Initalized PBE GGA exchange.
Initalized PBE GGA correlation.

---------- Setting up pseudopotentials ----------
Width of ionic core gaussian charges (only for fluid interactions / plotting) set to 0

Reading pseudopotential file '/home/gridsan/aligho/DFT/build-Nov24/pseudopotentials/SG15/K_ONCV_PBE.upf':
  'K' pseudopotential, 'PBE' functional
  Generated using ONCVPSP code by D. R. Hamann
  Author: Martin Schlipf and Francois Gygi  Date: 150915.
  9 valence electrons, 3 orbitals, 6 projectors, 2222 radial grid points, with lMax = 2
  Transforming local potential to a uniform radial grid of dG=0.02 with 1489 points.
  Transforming nonlocal projectors to a uniform radial grid of dG=0.02 with 432 points.
    3S    l: 0   occupation:  2.0   eigenvalue: -1.298836
    3P    l: 1   occupation:  6.0   eigenvalue: -0.691386
    4S    l: 0   occupation:  1.0   eigenvalue: -0.085223
  Transforming atomic orbitals to a uniform radial grid of dG=0.02 with 432 points.
  Core radius for overlap checks: 2.06 bohrs.
  Reading pulay file /home/gridsan/aligho/DFT/build-Nov24/pseudopotentials/SG15/K_ONCV_PBE.pulay ... using dE_dnG = -1.597219e-05 computed for Ecut = 20.

Initialized 1 species with 1 total atoms.

Folded 1 k-points by 12x12x1 to 144 k-points.

---------- Setting up k-points, bands, fillings ----------
Reduced to 19 k-points under symmetry. 
Computing the number of bands and number of electrons
Calculating initial fillings.
nElectrons:   9.000000   nBands: 6   nStates: 38

----- Setting up reduced wavefunction bases (one per k-point) -----
average nbasis = 13230.521 , ideal nbasis = 13229.709

---------- Setting up coulomb interaction ----------
Initialized slab truncation along lattice direction 001

---------- Setting up 2D ewald sum ----------
Optimum gaussian width for ewald sums = 5.249020 bohr.
Real space sums over 289 unit cells with max indices [  8  8  0  ]
Reciprocal space sums over 81 terms with max indices [  4  4  0  ]

---------- Allocating electronic variables ----------
Initializing wave functions:  linear combination of atomic orbitals
Note: number of bands (6) exceeds available atomic orbitals (5)
K pseudo-atom occupations:   s ( 2 1 )  p ( 6 )
	FillingsUpdate:  mu: -0.092037226  nElectrons: 9.000000  magneticMoment: [ Abs: 0.90000  Tot: +0.90000 ]
LCAOMinimize: Iter:   0  F: -28.3811299127602794  |grad|_K:  7.604e-06  alpha:  1.000e+00
	FillingsUpdate:  mu: -0.092035285  nElectrons: 9.000000  magneticMoment: [ Abs: 0.90000  Tot: +0.90000 ]
LCAOMinimize: Iter:   1  F: -28.3811299518007871  |grad|_K:  6.761e-08  alpha:  9.871e-01  linmin: -5.882e-03  cgtest:  1.543e-01  t[s]:      4.56
LCAOMinimize: Encountered beta<0, resetting CG.
[d-4-8-2:74811] 18 more processes have sent help message help-mpi-common-cuda.txt / dlopen failed
[d-4-8-2:74811] Set MCA parameter "orte_base_help_aggregate" to 0 to see all help / error messages
[d-4-8-2:74811] 18 more processes have sent help message help-mpi-btl-openib-cpc-base.txt / no cpcs for port
	FillingsUpdate:  mu: -0.092035308  nElectrons: 9.000000  magneticMoment: [ Abs: 0.90000  Tot: +0.90000 ]
LCAOMinimize: Iter:   2  F: -28.3811299518038851  |grad|_K:  8.057e-09  alpha:  1.117e+00  linmin:  7.058e-02  cgtest: -9.975e-01  t[s]:      5.80
LCAOMinimize: Converged (|Delta F|<1.000000e-06 for 2 iters).


---- Citations for features of the code used in this run ----

   Software package:
      R. Sundararaman, K. Letchworth-Weaver, K.A. Schwarz, D. Gunceler, Y. Ozhabes and T.A. Arias, 'JDFTx: software for joint density-functional theory', SoftwareX 6, 278 (2017)

   gga-PBE exchange-correlation functional:
      J.P. Perdew, K. Burke and M. Ernzerhof, Phys. Rev. Lett. 77, 3865 (1996)

   Pseudopotentials:
      M Schlipf and F Gygi, Comput. Phys. Commun. 196, 36 (2015)

   Truncated Coulomb potentials:
      R. Sundararaman and T.A. Arias, Phys. Rev. B 87, 165122 (2013)

This list may not be complete. Please suggest additional citations or
report any other bugs at https://github.com/shankar1729/jdftx/issues

Initialization completed successfully at t[s]:      5.90


-------- Electronic minimization -----------
Will mix electronic density at each iteration.
	FillingsUpdate:  mu: -0.092035308  nElectrons: 9.000000  magneticMoment: [ Abs: 0.90000  Tot: +0.90000 ]
	FillingsUpdate:  mu: -0.104005919  nElectrons: 9.000000  magneticMoment: [ Abs: 0.90000  Tot: +0.90000 ]
SCF: Cycle:  0   F: -28.391958133777152   dF: -1.083e-02   |Residual|: 1.703e-02   |deigs|: 1.732e-01  t[s]:      8.30
	FillingsUpdate:  mu: -0.106834997  nElectrons: 9.000000  magneticMoment: [ Abs: 0.90000  Tot: +0.90000 ]
SCF: Cycle:  1   F: -28.392702598067594   dF: -7.445e-04   |Residual|: 1.292e-02   |deigs|: 8.246e-03  t[s]:     10.12
	FillingsUpdate:  mu: -0.105899712  nElectrons: 9.000000  magneticMoment: [ Abs: 0.90285  Tot: +0.90000 ]
SCF: Cycle:  2   F: -28.392864072886379   dF: -1.615e-04   |Residual|: 8.256e-03   |deigs|: 3.624e-03  t[s]:     11.99
	FillingsUpdate:  mu: -0.106488547  nElectrons: 9.000000  magneticMoment: [ Abs: 0.90000  Tot: +0.90000 ]
SCF: Cycle:  3   F: -28.392994519207690   dF: -1.304e-04   |Residual|: 4.471e-03   |deigs|: 3.334e-03  t[s]:     13.92
	FillingsUpdate:  mu: -0.104084065  nElectrons: 9.000000  magneticMoment: [ Abs: 0.90002  Tot: +0.90000 ]
SCF: Cycle:  4   F: -28.393053449102204   dF: -5.893e-05   |Residual|: 2.458e-03   |deigs|: 4.569e-03  t[s]:     15.81
	FillingsUpdate:  mu: -0.102298443  nElectrons: 9.000000  magneticMoment: [ Abs: 0.90004  Tot: +0.90000 ]
SCF: Cycle:  5   F: -28.393082821594106   dF: -2.937e-05   |Residual|: 2.071e-03   |deigs|: 2.146e-03  t[s]:     17.75
	FillingsUpdate:  mu: -0.100141503  nElectrons: 9.000000  magneticMoment: [ Abs: 0.90330  Tot: +0.90000 ]
SCF: Cycle:  6   F: -28.393111626770555   dF: -2.881e-05   |Residual|: 1.518e-03   |deigs|: 3.074e-03  t[s]:     19.67
	FillingsUpdate:  mu: -0.098101430  nElectrons: 9.000000  magneticMoment: [ Abs: 0.90564  Tot: +0.90000 ]
SCF: Cycle:  7   F: -28.393132320493159   dF: -2.069e-05   |Residual|: 1.223e-03   |deigs|: 3.242e-03  t[s]:     21.72
	FillingsUpdate:  mu: -0.096974763  nElectrons: 9.000000  magneticMoment: [ Abs: 0.90220  Tot: +0.90000 ]
SCF: Cycle:  8   F: -28.393158874668522   dF: -2.655e-05   |Residual|: 9.746e-04   |deigs|: 1.361e-03  t[s]:     23.78
	FillingsUpdate:  mu: -0.097012963  nElectrons: 9.000000  magneticMoment: [ Abs: 0.90013  Tot: +0.90000 ]
SCF: Cycle:  9   F: -28.393178941672893   dF: -2.007e-05   |Residual|: 8.049e-04   |deigs|: 6.515e-04  t[s]:     25.81
	FillingsUpdate:  mu: -0.095922158  nElectrons: 9.000000  magneticMoment: [ Abs: 0.90201  Tot: +0.90000 ]
SCF: Cycle: 10   F: -28.393188836293309   dF: -9.895e-06   |Residual|: 6.867e-04   |deigs|: 1.075e-03  t[s]:     28.01
	FillingsUpdate:  mu: -0.094927299  nElectrons: 9.000000  magneticMoment: [ Abs: 0.90316  Tot: +0.90000 ]
SCF: Cycle: 11   F: -28.393195064624187   dF: -6.228e-06   |Residual|: 5.526e-04   |deigs|: 1.025e-03  t[s]:     30.17
	FillingsUpdate:  mu: -0.094391854  nElectrons: 9.000000  magneticMoment: [ Abs: 0.90336  Tot: +0.90000 ]
SCF: Cycle: 12   F: -28.393198607288475   dF: -3.543e-06   |Residual|: 4.837e-04   |deigs|: 6.809e-04  t[s]:     32.21
	FillingsUpdate:  mu: -0.093380891  nElectrons: 9.000000  magneticMoment: [ Abs: 0.90321  Tot: +0.90000 ]
SCF: Cycle: 13   F: -28.393201895426731   dF: -3.288e-06   |Residual|: 4.124e-04   |deigs|: 1.093e-03  t[s]:     34.31
	FillingsUpdate:  mu: -0.091802246  nElectrons: 9.000000  magneticMoment: [ Abs: 0.90266  Tot: +0.90000 ]
SCF: Cycle: 14   F: -28.393204581247463   dF: -2.686e-06   |Residual|: 4.084e-04   |deigs|: 1.743e-03  t[s]:     36.37
	FillingsUpdate:  mu: -0.090974318  nElectrons: 9.000000  magneticMoment: [ Abs: 0.90161  Tot: +0.90000 ]
SCF: Cycle: 15   F: -28.393207257393414   dF: -2.676e-06   |Residual|: 3.646e-04   |deigs|: 7.876e-04  t[s]:     38.46
	FillingsUpdate:  mu: -0.089869961  nElectrons: 9.000000  magneticMoment: [ Abs: 0.90169  Tot: +0.90000 ]
SCF: Cycle: 16   F: -28.393210579682354   dF: -3.322e-06   |Residual|: 2.563e-04   |deigs|: 1.195e-03  t[s]:     40.48
	FillingsUpdate:  mu: -0.089186305  nElectrons: 9.000000  magneticMoment: [ Abs: 0.90092  Tot: +0.90000 ]
SCF: Cycle: 17   F: -28.393211634035211   dF: -1.054e-06   |Residual|: 2.066e-04   |deigs|: 7.037e-04  t[s]:     42.51
	FillingsUpdate:  mu: -0.088934271  nElectrons: 9.000000  magneticMoment: [ Abs: 0.90102  Tot: +0.90000 ]
SCF: Cycle: 18   F: -28.393212868188943   dF: -1.234e-06   |Residual|: 1.422e-04   |deigs|: 3.306e-04  t[s]:     44.63
	FillingsUpdate:  mu: -0.088898127  nElectrons: 9.000000  magneticMoment: [ Abs: 0.90108  Tot: +0.90000 ]
SCF: Cycle: 19   F: -28.393213672134785   dF: -8.039e-07   |Residual|: 1.747e-04   |deigs|: 3.236e-04  t[s]:     46.60
	FillingsUpdate:  mu: -0.088862960  nElectrons: 9.000000  magneticMoment: [ Abs: 0.90111  Tot: +0.90000 ]
SCF: Cycle: 20   F: -28.393213782926406   dF: -1.108e-07   |Residual|: 2.287e-04   |deigs|: 2.184e-04  t[s]:     48.47
	FillingsUpdate:  mu: -0.088912452  nElectrons: 9.000000  magneticMoment: [ Abs: 0.90082  Tot: +0.90000 ]
SCF: Cycle: 21   F: -28.393214089541001   dF: -3.066e-07   |Residual|: 2.755e-04   |deigs|: 4.383e-04  t[s]:     50.49
	FillingsUpdate:  mu: -0.088925919  nElectrons: 9.000000  magneticMoment: [ Abs: 0.90076  Tot: +0.90000 ]
SCF: Cycle: 22   F: -28.393214094548675   dF: -5.008e-09   |Residual|: 2.715e-04   |deigs|: 2.516e-04  t[s]:     52.55
	FillingsUpdate:  mu: -0.088932868  nElectrons: 9.000000  magneticMoment: [ Abs: 0.90064  Tot: +0.90000 ]
SCF: Cycle: 23   F: -28.393214177568186   dF: -8.302e-08   |Residual|: 2.620e-04   |deigs|: 1.714e-04  t[s]:     54.63
	FillingsUpdate:  mu: -0.089006432  nElectrons: 9.000000  magneticMoment: [ Abs: 0.90056  Tot: +0.90000 ]
SCF: Cycle: 24   F: -28.393214189312896   dF: -1.174e-08   |Residual|: 2.615e-04   |deigs|: 1.952e-04  t[s]:     56.64
	FillingsUpdate:  mu: -0.088886996  nElectrons: 9.000000  magneticMoment: [ Abs: 0.90064  Tot: +0.90000 ]
SCF: Cycle: 25   F: -28.393214206823888   dF: -1.751e-08   |Residual|: 2.846e-04   |deigs|: 1.986e-04  t[s]:     58.66
	FillingsUpdate:  mu: -0.088819353  nElectrons: 9.000000  magneticMoment: [ Abs: 0.90062  Tot: +0.90000 ]
SCF: Cycle: 26   F: -28.393214187237977   dF: +1.959e-08   |Residual|: 3.206e-04   |deigs|: 1.815e-04  t[s]:     60.69
	FillingsUpdate:  mu: -0.088980815  nElectrons: 9.000000  magneticMoment: [ Abs: 0.90064  Tot: +0.90000 ]
SCF: Cycle: 27   F: -28.393214235313096   dF: -4.808e-08   |Residual|: 2.374e-04   |deigs|: 2.024e-04  t[s]:     62.74
	FillingsUpdate:  mu: -0.089115446  nElectrons: 9.000000  magneticMoment: [ Abs: 0.90049  Tot: +0.90000 ]
SCF: Cycle: 28   F: -28.393214170661622   dF: +6.465e-08   |Residual|: 1.277e-04   |deigs|: 1.769e-04  t[s]:     64.78
	FillingsUpdate:  mu: -0.089056402  nElectrons: 9.000000  magneticMoment: [ Abs: 0.90048  Tot: +0.90000 ]
SCF: Cycle: 29   F: -28.393214094115066   dF: +7.655e-08   |Residual|: 8.666e-05   |deigs|: 6.449e-05  t[s]:     66.81
	FillingsUpdate:  mu: -0.089023309  nElectrons: 9.000000  magneticMoment: [ Abs: 0.90052  Tot: +0.90000 ]
SCF: Cycle: 30   F: -28.393214398033749   dF: -3.039e-07   |Residual|: 2.219e-04   |deigs|: 7.824e-05  t[s]:     68.92
	FillingsUpdate:  mu: -0.089123433  nElectrons: 9.000000  magneticMoment: [ Abs: 0.90041  Tot: +0.90000 ]
SCF: Cycle: 31   F: -28.393214446545464   dF: -4.851e-08   |Residual|: 2.123e-04   |deigs|: 1.036e-04  t[s]:     70.96
	FillingsUpdate:  mu: -0.089295199  nElectrons: 9.000000  magneticMoment: [ Abs: 0.90016  Tot: +0.90000 ]
SCF: Cycle: 32   F: -28.393214466468535   dF: -1.992e-08   |Residual|: 1.220e-04   |deigs|: 1.771e-04  t[s]:     73.02
	FillingsUpdate:  mu: -0.089391841  nElectrons: 9.000000  magneticMoment: [ Abs: 0.90010  Tot: +0.90000 ]
SCF: Cycle: 33   F: -28.393214491472747   dF: -2.500e-08   |Residual|: 7.441e-05   |deigs|: 9.001e-05  t[s]:     75.03
	FillingsUpdate:  mu: -0.089407317  nElectrons: 9.000000  magneticMoment: [ Abs: 0.90014  Tot: +0.90000 ]
SCF: Cycle: 34   F: -28.393214695298138   dF: -2.038e-07   |Residual|: 1.445e-04   |deigs|: 2.046e-05  t[s]:     77.04
	FillingsUpdate:  mu: -0.089352600  nElectrons: 9.000000  magneticMoment: [ Abs: 0.90014  Tot: +0.90000 ]
SCF: Cycle: 35   F: -28.393214636576243   dF: +5.872e-08   |Residual|: 1.486e-04   |deigs|: 4.817e-05  t[s]:     78.99
	FillingsUpdate:  mu: -0.089420505  nElectrons: 9.000000  magneticMoment: [ Abs: 0.90011  Tot: +0.90000 ]
SCF: Cycle: 36   F: -28.393214674468684   dF: -3.789e-08   |Residual|: 1.356e-04   |deigs|: 6.598e-05  t[s]:     80.96
	FillingsUpdate:  mu: -0.089522066  nElectrons: 9.000000  magneticMoment: [ Abs: 0.90006  Tot: +0.90000 ]
SCF: Cycle: 37   F: -28.393214701576049   dF: -2.711e-08   |Residual|: 9.197e-05   |deigs|: 9.834e-05  t[s]:     83.03
	FillingsUpdate:  mu: -0.089605322  nElectrons: 9.000000  magneticMoment: [ Abs: 0.90006  Tot: +0.90000 ]
SCF: Cycle: 38   F: -28.393214723295266   dF: -2.172e-08   |Residual|: 6.456e-05   |deigs|: 7.838e-05  t[s]:     85.07
	FillingsUpdate:  mu: -0.089659511  nElectrons: 9.000000  magneticMoment: [ Abs: 0.90006  Tot: +0.90000 ]
SCF: Cycle: 39   F: -28.393214737196359   dF: -1.390e-08   |Residual|: 5.361e-05   |deigs|: 5.179e-05  t[s]:     87.10
	FillingsUpdate:  mu: -0.089645842  nElectrons: 9.000000  magneticMoment: [ Abs: 0.90006  Tot: +0.90000 ]
SCF: Cycle: 40   F: -28.393214735255704   dF: +1.941e-09   |Residual|: 5.332e-05   |deigs|: 3.454e-05  t[s]:     89.16
	FillingsUpdate:  mu: -0.089644237  nElectrons: 9.000000  magneticMoment: [ Abs: 0.90006  Tot: +0.90000 ]
SCF: Cycle: 41   F: -28.393214737001543   dF: -1.746e-09   |Residual|: 5.300e-05   |deigs|: 5.814e-05  t[s]:     91.20
	FillingsUpdate:  mu: -0.089649502  nElectrons: 9.000000  magneticMoment: [ Abs: 0.90006  Tot: +0.90000 ]
SCF: Cycle: 42   F: -28.393214738407003   dF: -1.405e-09   |Residual|: 5.161e-05   |deigs|: 1.309e-05  t[s]:     93.22
SCF: Converged (|Delta E|<1.000000e-08 for 2 iters).


# Ionic positions in lattice coordinates:
ion K   0.000000000000000   0.000000000000000   0.000000000000000 0

# Forces in Lattice coordinates:
force K  -0.000000000000000  -0.000000000000000   0.000000000000000 0

# Energy components:
   Eewald =      -18.0480261003326561
       EH =        4.8974391742792029
     Eloc =      -18.0898853220821074
      Enl =       -2.7804874292230917
   Epulay =        0.0000000041876954
      Exc =       -4.2706097629423736
       KE =        9.8983552561823309
-------------------------------------
     Etot =      -28.3932141799309967
       TS =        0.0000005584760081
-------------------------------------
        F =      -28.3932147384070035

IonicMinimize: Iter:   0  F: -28.393214738407003  |grad|_K:  0.000e+00  t[s]:     93.34
IonicMinimize: Converged (|grad|_K<1.000000e-04).

#--- Lowdin population analysis ---
# oxidation-state K +0.190
# magnetic-moments K +0.712

End date and time: Sat Feb  5 23:56:09 2022  (Duration: 0-0:01:33.36)
Done!
scale=3
magnetization=0.9
--------------------------------------------------------------------------
The library attempted to open the following supporting CUDA libraries,
but each of them failed.  CUDA-aware support is disabled.
libcuda.so.1: cannot open shared object file: No such file or directory
libcuda.dylib: cannot open shared object file: No such file or directory
/usr/lib64/libcuda.so.1: cannot open shared object file: No such file or directory
/usr/lib64/libcuda.dylib: cannot open shared object file: No such file or directory
If you are not interested in CUDA-aware support, then run with
--mca opal_warn_on_missing_libcuda 0 to suppress this message.  If you are interested
in CUDA-aware support, then try setting LD_LIBRARY_PATH to the location
of libcuda.so.1 to get passed this issue.
--------------------------------------------------------------------------
--------------------------------------------------------------------------
No OpenFabrics connection schemes reported that they were able to be
used on a specific port.  As such, the openib BTL (OpenFabrics
support) will be disabled for this port.

  Local host:           d-4-8-2
  Local device:         mlx5_1
  Local port:           1
  CPCs attempted:       rdmacm, udcm
--------------------------------------------------------------------------

*************** JDFTx 1.6.0 (git hash 42ebbcc2) ***************

Start date and time: Sat Feb  5 23:56:10 2022
Executable jdftx with command-line: -i Alkali.in
Running on hosts (process indices):  d-4-8-2 (0-18)
Divided in process groups (process indices):  0 (0)  1 (1)  2 (2)  3 (3)  4 (4)  5 (5)  6 (6)  7 (7)  8 (8)  9 (9)  10 (10)  11 (11)  12 (12)  13 (13)  14 (14)  15 (15)  16 (16)  17 (17)  18 (18)
Resource initialization completed at t[s]:      0.00
Run totals: 19 processes, 48 threads, 0 GPUs


Input parsed successfully to the following command list (including defaults):

basis kpoint-dependent
coords-type Lattice
core-overlap-check vector
coulomb-interaction Slab 001
davidson-band-ratio 1.1
dump End None
dump-name $INPUT.$VAR
elec-cutoff 20
elec-eigen-algo Davidson
elec-ex-corr gga-PBE
elec-initial-magnetization 0.900000 yes
elec-smearing Fermi 1e-05
electronic-minimize  \
	dirUpdateScheme      FletcherReeves \
	linminMethod         DirUpdateRecommended \
	nIterations          100 \
	history              15 \
	knormThreshold       0 \
	energyDiffThreshold  1e-08 \
	nEnergyDiff          2 \
	alphaTstart          1 \
	alphaTmin            1e-10 \
	updateTestStepSize   yes \
	alphaTreduceFactor   0.1 \
	alphaTincreaseFactor 3 \
	nAlphaAdjustMax      3 \
	wolfeEnergy          0.0001 \
	wolfeGradient        0.9 \
	fdTest               no
electronic-scf  \
	nIterations	10000 \
	energyDiffThreshold	1e-08 \
	residualThreshold	1e-07 \
	mixFraction	0.5 \
	qMetric	0.8 \
	history	10 \
	nEigSteps	2 \
	eigDiffThreshold	1e-08 \
	mixedVariable	Density \
	qKerker	0.8 \
	qKappa	-1 \
	verbose	no \
	mixFractionMag	1.5
exchange-regularization WignerSeitzTruncated
fluid None
fluid-ex-corr (null) lda-PZ
fluid-gummel-loop 10 1.000000e-05
fluid-minimize  \
	dirUpdateScheme      PolakRibiere \
	linminMethod         DirUpdateRecommended \
	nIterations          100 \
	history              15 \
	knormThreshold       0 \
	energyDiffThreshold  0 \
	nEnergyDiff          2 \
	alphaTstart          1 \
	alphaTmin            1e-10 \
	updateTestStepSize   yes \
	alphaTreduceFactor   0.1 \
	alphaTincreaseFactor 3 \
	nAlphaAdjustMax      3 \
	wolfeEnergy          0.0001 \
	wolfeGradient        0.9 \
	fdTest               no
fluid-solvent H2O 55.338 ScalarEOS \
	epsBulk 78.4 \
	pMol 0.92466 \
	epsInf 1.77 \
	Pvap 1.06736e-10 \
	sigmaBulk 4.62e-05 \
	Rvdw 2.61727 \
	Res 1.42 \
	tauNuc 343133 \
	poleEl 15 7 1
forces-output-coords Positions
ion K   0.000000000000000   0.000000000000000   0.000000000000000 0
ion-species SG15/$ID_ONCV_PBE.upf
ion-width 0
ionic-minimize  \
	dirUpdateScheme      L-BFGS \
	linminMethod         DirUpdateRecommended \
	nIterations          0 \
	history              15 \
	knormThreshold       0.0001 \
	energyDiffThreshold  1e-06 \
	nEnergyDiff          2 \
	alphaTstart          1 \
	alphaTmin            1e-10 \
	updateTestStepSize   yes \
	alphaTreduceFactor   0.1 \
	alphaTincreaseFactor 3 \
	nAlphaAdjustMax      3 \
	wolfeEnergy          0.0001 \
	wolfeGradient        0.9 \
	fdTest               no
kpoint   0.000000000000   0.000000000000   0.000000000000  1.00000000000000
kpoint-folding 12 12 1 
latt-move-scale 1 1 1
latt-scale 3 3 1 
lattice  \
	   4.727486978767153   -2.363743489383575    0.000000000000000  \
	  -0.000000000000000    4.094123819672498    0.000000000000000  \
	   0.000000000000000    0.000000000000000   40.000000000000000 
lattice-minimize  \
	dirUpdateScheme      L-BFGS \
	linminMethod         DirUpdateRecommended \
	nIterations          0 \
	history              15 \
	knormThreshold       0 \
	energyDiffThreshold  1e-06 \
	nEnergyDiff          2 \
	alphaTstart          1 \
	alphaTmin            1e-10 \
	updateTestStepSize   yes \
	alphaTreduceFactor   0.1 \
	alphaTincreaseFactor 3 \
	nAlphaAdjustMax      3 \
	wolfeEnergy          0.0001 \
	wolfeGradient        0.9 \
	fdTest               no
lcao-params -1 1e-06 1e-05
pcm-variant GLSSA13
spintype z-spin
subspace-rotation-factor 1 yes
symmetries automatic
symmetry-threshold 0.0001



---------- Setting up symmetries ----------

Found 24 point-group symmetries of the bravais lattice
Found 24 space-group symmetries with basis
Applied RMS atom displacement 0 bohrs to make symmetries exact.

---------- Initializing the Grid ----------
R = 
[      14.1825     -7.09123            0  ]
[            0      12.2824            0  ]
[            0            0           40  ]
unit cell volume = 6967.77
G =
[   0.443025   0.255781         -0  ]
[          0   0.511561         -0  ]
[         -0         -0    0.15708  ]
Minimum fftbox size, Smin = [  60  60  164  ]
Chosen fftbox size, S = [  60  60  168  ]

---------- Exchange Correlation functional ----------
Initalized PBE GGA exchange.
Initalized PBE GGA correlation.

---------- Setting up pseudopotentials ----------
Width of ionic core gaussian charges (only for fluid interactions / plotting) set to 0

Reading pseudopotential file '/home/gridsan/aligho/DFT/build-Nov24/pseudopotentials/SG15/K_ONCV_PBE.upf':
  'K' pseudopotential, 'PBE' functional
  Generated using ONCVPSP code by D. R. Hamann
  Author: Martin Schlipf and Francois Gygi  Date: 150915.
  9 valence electrons, 3 orbitals, 6 projectors, 2222 radial grid points, with lMax = 2
  Transforming local potential to a uniform radial grid of dG=0.02 with 1489 points.
  Transforming nonlocal projectors to a uniform radial grid of dG=0.02 with 432 points.
    3S    l: 0   occupation:  2.0   eigenvalue: -1.298836
    3P    l: 1   occupation:  6.0   eigenvalue: -0.691386
    4S    l: 0   occupation:  1.0   eigenvalue: -0.085223
  Transforming atomic orbitals to a uniform radial grid of dG=0.02 with 432 points.
  Core radius for overlap checks: 2.06 bohrs.
  Reading pulay file /home/gridsan/aligho/DFT/build-Nov24/pseudopotentials/SG15/K_ONCV_PBE.pulay ... using dE_dnG = -1.597219e-05 computed for Ecut = 20.

Initialized 1 species with 1 total atoms.

Folded 1 k-points by 12x12x1 to 144 k-points.

---------- Setting up k-points, bands, fillings ----------
Reduced to 19 k-points under symmetry. 
Computing the number of bands and number of electrons
Calculating initial fillings.
nElectrons:   9.000000   nBands: 6   nStates: 38

----- Setting up reduced wavefunction bases (one per k-point) -----
average nbasis = 29766.104 , ideal nbasis = 29766.845

---------- Setting up coulomb interaction ----------
Initialized slab truncation along lattice direction 001

---------- Setting up 2D ewald sum ----------
Optimum gaussian width for ewald sums = 7.873530 bohr.
Real space sums over 289 unit cells with max indices [  8  8  0  ]
Reciprocal space sums over 81 terms with max indices [  4  4  0  ]

---------- Allocating electronic variables ----------
Initializing wave functions:  linear combination of atomic orbitals
Note: number of bands (6) exceeds available atomic orbitals (5)
K pseudo-atom occupations:   s ( 2 1 )  p ( 6 )
[d-4-8-2:57462] 18 more processes have sent help message help-mpi-common-cuda.txt / dlopen failed
[d-4-8-2:57462] Set MCA parameter "orte_base_help_aggregate" to 0 to see all help / error messages
[d-4-8-2:57462] 18 more processes have sent help message help-mpi-btl-openib-cpc-base.txt / no cpcs for port
	FillingsUpdate:  mu: -0.086802138  nElectrons: 9.000000  magneticMoment: [ Abs: 0.90000  Tot: +0.90000 ]
LCAOMinimize: Iter:   0  F: -28.3816774522148947  |grad|_K:  5.077e-06  alpha:  1.000e+00
	FillingsUpdate:  mu: -0.086801344  nElectrons: 9.000000  magneticMoment: [ Abs: 0.90000  Tot: +0.90000 ]
LCAOMinimize: Iter:   1  F: -28.3816774697871459  |grad|_K:  2.479e-08  alpha:  9.968e-01  linmin: -4.407e-03  cgtest:  7.203e-02  t[s]:      8.84
LCAOMinimize: Encountered beta<0, resetting CG.
	FillingsUpdate:  mu: -0.086801347  nElectrons: 9.000000  magneticMoment: [ Abs: 0.90000  Tot: +0.90000 ]
LCAOMinimize: Iter:   2  F: -28.3816774697877712  |grad|_K:  9.342e-09  alpha:  6.188e-01  linmin: -8.331e-02  cgtest:  1.000e+00  t[s]:     11.19
LCAOMinimize: Encountered beta<0, resetting CG.
LCAOMinimize: Converged (|Delta F|<1.000000e-06 for 2 iters).


---- Citations for features of the code used in this run ----

   Software package:
      R. Sundararaman, K. Letchworth-Weaver, K.A. Schwarz, D. Gunceler, Y. Ozhabes and T.A. Arias, 'JDFTx: software for joint density-functional theory', SoftwareX 6, 278 (2017)

   gga-PBE exchange-correlation functional:
      J.P. Perdew, K. Burke and M. Ernzerhof, Phys. Rev. Lett. 77, 3865 (1996)

   Pseudopotentials:
      M Schlipf and F Gygi, Comput. Phys. Commun. 196, 36 (2015)

   Truncated Coulomb potentials:
      R. Sundararaman and T.A. Arias, Phys. Rev. B 87, 165122 (2013)

This list may not be complete. Please suggest additional citations or
report any other bugs at https://github.com/shankar1729/jdftx/issues

Initialization completed successfully at t[s]:     11.35


-------- Electronic minimization -----------
Will mix electronic density at each iteration.
	FillingsUpdate:  mu: -0.086801347  nElectrons: 9.000000  magneticMoment: [ Abs: 0.90000  Tot: +0.90000 ]
	FillingsUpdate:  mu: -0.087411671  nElectrons: 9.000000  magneticMoment: [ Abs: 0.90000  Tot: +0.90000 ]
SCF: Cycle:  0   F: -28.382607041571948   dF: -9.296e-04   |Residual|: 2.985e-03   |deigs|: 1.731e-01  t[s]:     16.22
	FillingsUpdate:  mu: -0.087568070  nElectrons: 9.000000  magneticMoment: [ Abs: 0.90095  Tot: +0.90000 ]
SCF: Cycle:  1   F: -28.382630345748833   dF: -2.330e-05   |Residual|: 1.717e-03   |deigs|: 5.375e-03  t[s]:     19.94
	FillingsUpdate:  mu: -0.087817392  nElectrons: 9.000000  magneticMoment: [ Abs: 0.90180  Tot: +0.90000 ]
SCF: Cycle:  2   F: -28.382644701782493   dF: -1.436e-05   |Residual|: 1.365e-03   |deigs|: 3.055e-03  t[s]:     23.74
	FillingsUpdate:  mu: -0.088134247  nElectrons: 9.000000  magneticMoment: [ Abs: 0.90233  Tot: +0.90000 ]
SCF: Cycle:  3   F: -28.382658843458074   dF: -1.414e-05   |Residual|: 1.019e-03   |deigs|: 2.253e-03  t[s]:     27.64
	FillingsUpdate:  mu: -0.088306464  nElectrons: 9.000000  magneticMoment: [ Abs: 0.90188  Tot: +0.90000 ]
SCF: Cycle:  4   F: -28.382672535603049   dF: -1.369e-05   |Residual|: 6.949e-04   |deigs|: 1.565e-03  t[s]:     31.53
	FillingsUpdate:  mu: -0.088264930  nElectrons: 9.000000  magneticMoment: [ Abs: 0.90206  Tot: +0.90000 ]
SCF: Cycle:  5   F: -28.382683658579754   dF: -1.112e-05   |Residual|: 3.708e-04   |deigs|: 8.194e-04  t[s]:     35.52
	FillingsUpdate:  mu: -0.088152149  nElectrons: 9.000000  magneticMoment: [ Abs: 0.90177  Tot: +0.90000 ]
SCF: Cycle:  6   F: -28.382687345555532   dF: -3.687e-06   |Residual|: 2.758e-04   |deigs|: 1.552e-03  t[s]:     39.52
	FillingsUpdate:  mu: -0.088019235  nElectrons: 9.000000  magneticMoment: [ Abs: 0.90210  Tot: +0.90000 ]
SCF: Cycle:  7   F: -28.382690143705926   dF: -2.798e-06   |Residual|: 2.074e-04   |deigs|: 9.686e-04  t[s]:     43.71
	FillingsUpdate:  mu: -0.087734747  nElectrons: 9.000000  magneticMoment: [ Abs: 0.90222  Tot: +0.90000 ]
SCF: Cycle:  8   F: -28.382691120430728   dF: -9.767e-07   |Residual|: 1.661e-04   |deigs|: 3.202e-04  t[s]:     47.84
	FillingsUpdate:  mu: -0.087599524  nElectrons: 9.000000  magneticMoment: [ Abs: 0.90243  Tot: +0.90000 ]
SCF: Cycle:  9   F: -28.382691578788908   dF: -4.584e-07   |Residual|: 1.537e-04   |deigs|: 1.861e-04  t[s]:     52.12
	FillingsUpdate:  mu: -0.087473352  nElectrons: 9.000000  magneticMoment: [ Abs: 0.90210  Tot: +0.90000 ]
SCF: Cycle: 10   F: -28.382691990554303   dF: -4.118e-07   |Residual|: 1.396e-04   |deigs|: 2.631e-04  t[s]:     56.42
	FillingsUpdate:  mu: -0.087390201  nElectrons: 9.000000  magneticMoment: [ Abs: 0.90289  Tot: +0.90000 ]
SCF: Cycle: 11   F: -28.382691929486217   dF: +6.107e-08   |Residual|: 1.007e-04   |deigs|: 1.657e-04  t[s]:     60.73
	FillingsUpdate:  mu: -0.087361847  nElectrons: 9.000000  magneticMoment: [ Abs: 0.90271  Tot: +0.90000 ]
SCF: Cycle: 12   F: -28.382693045574900   dF: -1.116e-06   |Residual|: 8.315e-05   |deigs|: 1.960e-04  t[s]:     64.99
	FillingsUpdate:  mu: -0.087217243  nElectrons: 9.000000  magneticMoment: [ Abs: 0.90287  Tot: +0.90000 ]
SCF: Cycle: 13   F: -28.382693398273819   dF: -3.527e-07   |Residual|: 8.666e-05   |deigs|: 2.151e-04  t[s]:     69.26
	FillingsUpdate:  mu: -0.086990337  nElectrons: 9.000000  magneticMoment: [ Abs: 0.90278  Tot: +0.90000 ]
SCF: Cycle: 14   F: -28.382693175117335   dF: +2.232e-07   |Residual|: 8.867e-05   |deigs|: 2.529e-04  t[s]:     73.51
	FillingsUpdate:  mu: -0.086815564  nElectrons: 9.000000  magneticMoment: [ Abs: 0.90273  Tot: +0.90000 ]
SCF: Cycle: 15   F: -28.382693367988239   dF: -1.929e-07   |Residual|: 7.422e-05   |deigs|: 1.905e-04  t[s]:     77.78
	FillingsUpdate:  mu: -0.086762190  nElectrons: 9.000000  magneticMoment: [ Abs: 0.90228  Tot: +0.90000 ]
SCF: Cycle: 16   F: -28.382693655516036   dF: -2.875e-07   |Residual|: 6.192e-05   |deigs|: 1.238e-04  t[s]:     82.06
	FillingsUpdate:  mu: -0.086664018  nElectrons: 9.000000  magneticMoment: [ Abs: 0.90199  Tot: +0.90000 ]
SCF: Cycle: 17   F: -28.382693961070647   dF: -3.056e-07   |Residual|: 5.364e-05   |deigs|: 1.334e-04  t[s]:     86.38
	FillingsUpdate:  mu: -0.086643670  nElectrons: 9.000000  magneticMoment: [ Abs: 0.90191  Tot: +0.90000 ]
SCF: Cycle: 18   F: -28.382694268706391   dF: -3.076e-07   |Residual|: 4.083e-05   |deigs|: 3.670e-05  t[s]:     90.64
	FillingsUpdate:  mu: -0.086648662  nElectrons: 9.000000  magneticMoment: [ Abs: 0.90193  Tot: +0.90000 ]
SCF: Cycle: 19   F: -28.382694239752613   dF: +2.895e-08   |Residual|: 2.565e-05   |deigs|: 2.424e-05  t[s]:     94.89
	FillingsUpdate:  mu: -0.086623369  nElectrons: 9.000000  magneticMoment: [ Abs: 0.90194  Tot: +0.90000 ]
SCF: Cycle: 20   F: -28.382694453164891   dF: -2.134e-07   |Residual|: 1.564e-05   |deigs|: 3.444e-05  t[s]:     99.17
	FillingsUpdate:  mu: -0.086622400  nElectrons: 9.000000  magneticMoment: [ Abs: 0.90192  Tot: +0.90000 ]
SCF: Cycle: 21   F: -28.382694529201160   dF: -7.604e-08   |Residual|: 1.077e-05   |deigs|: 4.677e-05  t[s]:    103.37
	FillingsUpdate:  mu: -0.086623974  nElectrons: 9.000000  magneticMoment: [ Abs: 0.90194  Tot: +0.90000 ]
SCF: Cycle: 22   F: -28.382694532284628   dF: -3.083e-09   |Residual|: 6.139e-06   |deigs|: 4.493e-05  t[s]:    107.70
	FillingsUpdate:  mu: -0.086624577  nElectrons: 9.000000  magneticMoment: [ Abs: 0.90195  Tot: +0.90000 ]
SCF: Cycle: 23   F: -28.382694552853998   dF: -2.057e-08   |Residual|: 4.613e-06   |deigs|: 5.293e-05  t[s]:    111.97
	FillingsUpdate:  mu: -0.086629632  nElectrons: 9.000000  magneticMoment: [ Abs: 0.90195  Tot: +0.90000 ]
SCF: Cycle: 24   F: -28.382694558720559   dF: -5.867e-09   |Residual|: 3.680e-06   |deigs|: 5.082e-05  t[s]:    116.18
	FillingsUpdate:  mu: -0.086629874  nElectrons: 9.000000  magneticMoment: [ Abs: 0.90193  Tot: +0.90000 ]
SCF: Cycle: 25   F: -28.382694565585904   dF: -6.865e-09   |Residual|: 2.880e-06   |deigs|: 5.375e-05  t[s]:    120.50
SCF: Converged (|Delta E|<1.000000e-08 for 2 iters).


# Ionic positions in lattice coordinates:
ion K   0.000000000000000   0.000000000000000   0.000000000000000 0

# Forces in Lattice coordinates:
force K   0.000000000000000  -0.000000000000000   0.000000000000000 0

# Energy components:
   Eewald =      -12.0320174002217755
       EH =       10.7665331663853259
     Eloc =      -29.9672358601809492
      Enl =       -2.7690682188207072
   Epulay =       -0.0000000016982517
      Exc =       -4.2447929008036542
       KE =        9.8638872808408919
-------------------------------------
     Etot =      -28.3826939344991231
       TS =        0.0000006310867818
-------------------------------------
        F =      -28.3826945655859042

IonicMinimize: Iter:   0  F: -28.382694565585904  |grad|_K:  0.000e+00  t[s]:    120.75
IonicMinimize: Converged (|grad|_K<1.000000e-04).

#--- Lowdin population analysis ---
# oxidation-state K +0.019
# magnetic-moments K +0.881

End date and time: Sat Feb  5 23:58:10 2022  (Duration: 0-0:02:00.80)
Done!
scale=4
magnetization=0.9
--------------------------------------------------------------------------
The library attempted to open the following supporting CUDA libraries,
but each of them failed.  CUDA-aware support is disabled.
libcuda.so.1: cannot open shared object file: No such file or directory
libcuda.dylib: cannot open shared object file: No such file or directory
/usr/lib64/libcuda.so.1: cannot open shared object file: No such file or directory
/usr/lib64/libcuda.dylib: cannot open shared object file: No such file or directory
If you are not interested in CUDA-aware support, then run with
--mca opal_warn_on_missing_libcuda 0 to suppress this message.  If you are interested
in CUDA-aware support, then try setting LD_LIBRARY_PATH to the location
of libcuda.so.1 to get passed this issue.
--------------------------------------------------------------------------
--------------------------------------------------------------------------
No OpenFabrics connection schemes reported that they were able to be
used on a specific port.  As such, the openib BTL (OpenFabrics
support) will be disabled for this port.

  Local host:           d-4-8-2
  Local device:         mlx5_1
  Local port:           1
  CPCs attempted:       rdmacm, udcm
--------------------------------------------------------------------------

*************** JDFTx 1.6.0 (git hash 42ebbcc2) ***************

Start date and time: Sat Feb  5 23:58:11 2022
Executable jdftx with command-line: -i Alkali.in
Running on hosts (process indices):  d-4-8-2 (0-18)
Divided in process groups (process indices):  0 (0)  1 (1)  2 (2)  3 (3)  4 (4)  5 (5)  6 (6)  7 (7)  8 (8)  9 (9)  10 (10)  11 (11)  12 (12)  13 (13)  14 (14)  15 (15)  16 (16)  17 (17)  18 (18)
Resource initialization completed at t[s]:      0.00
Run totals: 19 processes, 48 threads, 0 GPUs


Input parsed successfully to the following command list (including defaults):

basis kpoint-dependent
coords-type Lattice
core-overlap-check vector
coulomb-interaction Slab 001
davidson-band-ratio 1.1
dump End None
dump-name $INPUT.$VAR
elec-cutoff 20
elec-eigen-algo Davidson
elec-ex-corr gga-PBE
elec-initial-magnetization 0.900000 yes
elec-smearing Fermi 1e-05
electronic-minimize  \
	dirUpdateScheme      FletcherReeves \
	linminMethod         DirUpdateRecommended \
	nIterations          100 \
	history              15 \
	knormThreshold       0 \
	energyDiffThreshold  1e-08 \
	nEnergyDiff          2 \
	alphaTstart          1 \
	alphaTmin            1e-10 \
	updateTestStepSize   yes \
	alphaTreduceFactor   0.1 \
	alphaTincreaseFactor 3 \
	nAlphaAdjustMax      3 \
	wolfeEnergy          0.0001 \
	wolfeGradient        0.9 \
	fdTest               no
electronic-scf  \
	nIterations	10000 \
	energyDiffThreshold	1e-08 \
	residualThreshold	1e-07 \
	mixFraction	0.5 \
	qMetric	0.8 \
	history	10 \
	nEigSteps	2 \
	eigDiffThreshold	1e-08 \
	mixedVariable	Density \
	qKerker	0.8 \
	qKappa	-1 \
	verbose	no \
	mixFractionMag	1.5
exchange-regularization WignerSeitzTruncated
fluid None
fluid-ex-corr (null) lda-PZ
fluid-gummel-loop 10 1.000000e-05
fluid-minimize  \
	dirUpdateScheme      PolakRibiere \
	linminMethod         DirUpdateRecommended \
	nIterations          100 \
	history              15 \
	knormThreshold       0 \
	energyDiffThreshold  0 \
	nEnergyDiff          2 \
	alphaTstart          1 \
	alphaTmin            1e-10 \
	updateTestStepSize   yes \
	alphaTreduceFactor   0.1 \
	alphaTincreaseFactor 3 \
	nAlphaAdjustMax      3 \
	wolfeEnergy          0.0001 \
	wolfeGradient        0.9 \
	fdTest               no
fluid-solvent H2O 55.338 ScalarEOS \
	epsBulk 78.4 \
	pMol 0.92466 \
	epsInf 1.77 \
	Pvap 1.06736e-10 \
	sigmaBulk 4.62e-05 \
	Rvdw 2.61727 \
	Res 1.42 \
	tauNuc 343133 \
	poleEl 15 7 1
forces-output-coords Positions
ion K   0.000000000000000   0.000000000000000   0.000000000000000 0
ion-species SG15/$ID_ONCV_PBE.upf
ion-width 0
ionic-minimize  \
	dirUpdateScheme      L-BFGS \
	linminMethod         DirUpdateRecommended \
	nIterations          0 \
	history              15 \
	knormThreshold       0.0001 \
	energyDiffThreshold  1e-06 \
	nEnergyDiff          2 \
	alphaTstart          1 \
	alphaTmin            1e-10 \
	updateTestStepSize   yes \
	alphaTreduceFactor   0.1 \
	alphaTincreaseFactor 3 \
	nAlphaAdjustMax      3 \
	wolfeEnergy          0.0001 \
	wolfeGradient        0.9 \
	fdTest               no
kpoint   0.000000000000   0.000000000000   0.000000000000  1.00000000000000
kpoint-folding 12 12 1 
latt-move-scale 1 1 1
latt-scale 4 4 1 
lattice  \
	   4.727486978767153   -2.363743489383575    0.000000000000000  \
	  -0.000000000000000    4.094123819672498    0.000000000000000  \
	   0.000000000000000    0.000000000000000   40.000000000000000 
lattice-minimize  \
	dirUpdateScheme      L-BFGS \
	linminMethod         DirUpdateRecommended \
	nIterations          0 \
	history              15 \
	knormThreshold       0 \
	energyDiffThreshold  1e-06 \
	nEnergyDiff          2 \
	alphaTstart          1 \
	alphaTmin            1e-10 \
	updateTestStepSize   yes \
	alphaTreduceFactor   0.1 \
	alphaTincreaseFactor 3 \
	nAlphaAdjustMax      3 \
	wolfeEnergy          0.0001 \
	wolfeGradient        0.9 \
	fdTest               no
lcao-params -1 1e-06 1e-05
pcm-variant GLSSA13
spintype z-spin
subspace-rotation-factor 1 yes
symmetries automatic
symmetry-threshold 0.0001



---------- Setting up symmetries ----------

Found 24 point-group symmetries of the bravais lattice
Found 24 space-group symmetries with basis
Applied RMS atom displacement 0 bohrs to make symmetries exact.

---------- Initializing the Grid ----------
R = 
[      18.9099     -9.45497            0  ]
[            0      16.3765            0  ]
[            0            0           40  ]
unit cell volume = 12387.1
G =
[   0.332269   0.191835         -0  ]
[          0   0.383671         -0  ]
[         -0         -0    0.15708  ]
Minimum fftbox size, Smin = [  80  80  164  ]
Chosen fftbox size, S = [  80  80  168  ]

---------- Exchange Correlation functional ----------
Initalized PBE GGA exchange.
Initalized PBE GGA correlation.

---------- Setting up pseudopotentials ----------
Width of ionic core gaussian charges (only for fluid interactions / plotting) set to 0

Reading pseudopotential file '/home/gridsan/aligho/DFT/build-Nov24/pseudopotentials/SG15/K_ONCV_PBE.upf':
  'K' pseudopotential, 'PBE' functional
  Generated using ONCVPSP code by D. R. Hamann
  Author: Martin Schlipf and Francois Gygi  Date: 150915.
  9 valence electrons, 3 orbitals, 6 projectors, 2222 radial grid points, with lMax = 2
  Transforming local potential to a uniform radial grid of dG=0.02 with 1489 points.
  Transforming nonlocal projectors to a uniform radial grid of dG=0.02 with 432 points.
    3S    l: 0   occupation:  2.0   eigenvalue: -1.298836
    3P    l: 1   occupation:  6.0   eigenvalue: -0.691386
    4S    l: 0   occupation:  1.0   eigenvalue: -0.085223
  Transforming atomic orbitals to a uniform radial grid of dG=0.02 with 432 points.
  Core radius for overlap checks: 2.06 bohrs.
  Reading pulay file /home/gridsan/aligho/DFT/build-Nov24/pseudopotentials/SG15/K_ONCV_PBE.pulay ... using dE_dnG = -1.597219e-05 computed for Ecut = 20.

Initialized 1 species with 1 total atoms.

Folded 1 k-points by 12x12x1 to 144 k-points.

---------- Setting up k-points, bands, fillings ----------
Reduced to 19 k-points under symmetry. 
Computing the number of bands and number of electrons
Calculating initial fillings.
nElectrons:   9.000000   nBands: 6   nStates: 38

----- Setting up reduced wavefunction bases (one per k-point) -----
average nbasis = 52924.021 , ideal nbasis = 52918.836

---------- Setting up coulomb interaction ----------
Initialized slab truncation along lattice direction 001

---------- Setting up 2D ewald sum ----------
Optimum gaussian width for ewald sums = 10.498040 bohr.
Real space sums over 289 unit cells with max indices [  8  8  0  ]
Reciprocal space sums over 81 terms with max indices [  4  4  0  ]

---------- Allocating electronic variables ----------
Initializing wave functions:  linear combination of atomic orbitals
Note: number of bands (6) exceeds available atomic orbitals (5)
K pseudo-atom occupations:   s ( 2 1 )  p ( 6 )
[d-4-8-2:39031] 18 more processes have sent help message help-mpi-common-cuda.txt / dlopen failed
[d-4-8-2:39031] Set MCA parameter "orte_base_help_aggregate" to 0 to see all help / error messages
[d-4-8-2:39031] 18 more processes have sent help message help-mpi-btl-openib-cpc-base.txt / no cpcs for port
	FillingsUpdate:  mu: -0.084090480  nElectrons: 9.000000  magneticMoment: [ Abs: 0.90000  Tot: +0.90000 ]
LCAOMinimize: Iter:   0  F: -28.3807079875267902  |grad|_K:  8.416e-07  alpha:  1.000e+00
	FillingsUpdate:  mu: -0.084090291  nElectrons: 9.000000  magneticMoment: [ Abs: 0.90000  Tot: +0.90000 ]
LCAOMinimize: Iter:   1  F: -28.3807079880082931  |grad|_K:  4.140e-09  alpha:  9.940e-01  linmin:  2.286e-03  cgtest: -6.471e-02  t[s]:     15.05
LCAOMinimize: 	Step increased F by 8.171241e-14, reducing alpha to 6.364958e-03.
	FillingsUpdate:  mu: -0.084090291  nElectrons: 9.000000  magneticMoment: [ Abs: 0.90000  Tot: +0.90000 ]
LCAOMinimize: Iter:   2  F: -28.3807079880084814  |grad|_K:  4.114e-09  alpha:  6.365e-03  linmin: -4.651e-02  cgtest:  1.000e+00  t[s]:     21.36
LCAOMinimize: Encountered beta<0, resetting CG.
LCAOMinimize: Converged (|Delta F|<1.000000e-06 for 2 iters).


---- Citations for features of the code used in this run ----

   Software package:
      R. Sundararaman, K. Letchworth-Weaver, K.A. Schwarz, D. Gunceler, Y. Ozhabes and T.A. Arias, 'JDFTx: software for joint density-functional theory', SoftwareX 6, 278 (2017)

   gga-PBE exchange-correlation functional:
      J.P. Perdew, K. Burke and M. Ernzerhof, Phys. Rev. Lett. 77, 3865 (1996)

   Pseudopotentials:
      M Schlipf and F Gygi, Comput. Phys. Commun. 196, 36 (2015)

   Truncated Coulomb potentials:
      R. Sundararaman and T.A. Arias, Phys. Rev. B 87, 165122 (2013)

This list may not be complete. Please suggest additional citations or
report any other bugs at https://github.com/shankar1729/jdftx/issues

Initialization completed successfully at t[s]:     21.62


-------- Electronic minimization -----------
Will mix electronic density at each iteration.
	FillingsUpdate:  mu: -0.084090291  nElectrons: 9.000000  magneticMoment: [ Abs: 0.90000  Tot: +0.90000 ]
	FillingsUpdate:  mu: -0.084273082  nElectrons: 9.000000  magneticMoment: [ Abs: 0.90000  Tot: +0.90000 ]
SCF: Cycle:  0   F: -28.380834423346069   dF: -1.264e-04   |Residual|: 2.036e-03   |deigs|: 1.631e-01  t[s]:     29.81
	FillingsUpdate:  mu: -0.084250705  nElectrons: 9.000000  magneticMoment: [ Abs: 0.90236  Tot: +0.90000 ]
SCF: Cycle:  1   F: -28.380836724424938   dF: -2.301e-06   |Residual|: 5.847e-04   |deigs|: 1.458e-02  t[s]:     36.28
	FillingsUpdate:  mu: -0.084162297  nElectrons: 9.000000  magneticMoment: [ Abs: 0.90216  Tot: +0.90000 ]
SCF: Cycle:  2   F: -28.380837478546038   dF: -7.541e-07   |Residual|: 4.248e-04   |deigs|: 2.874e-03  t[s]:     42.81
	FillingsUpdate:  mu: -0.084053151  nElectrons: 9.000000  magneticMoment: [ Abs: 0.90252  Tot: +0.90000 ]
SCF: Cycle:  3   F: -28.380837904855891   dF: -4.263e-07   |Residual|: 3.261e-04   |deigs|: 1.243e-03  t[s]:     49.37
	FillingsUpdate:  mu: -0.083813108  nElectrons: 9.000000  magneticMoment: [ Abs: 0.90229  Tot: +0.90000 ]
SCF: Cycle:  4   F: -28.380837782533302   dF: +1.223e-07   |Residual|: 1.912e-04   |deigs|: 7.411e-04  t[s]:     56.18
	FillingsUpdate:  mu: -0.083684782  nElectrons: 9.000000  magneticMoment: [ Abs: 0.90225  Tot: +0.90000 ]
SCF: Cycle:  5   F: -28.380838036272777   dF: -2.537e-07   |Residual|: 1.316e-04   |deigs|: 4.258e-04  t[s]:     63.05
	FillingsUpdate:  mu: -0.083619922  nElectrons: 9.000000  magneticMoment: [ Abs: 0.90223  Tot: +0.90000 ]
SCF: Cycle:  6   F: -28.380838337816790   dF: -3.015e-07   |Residual|: 8.729e-05   |deigs|: 1.898e-04  t[s]:     70.01
	FillingsUpdate:  mu: -0.083590388  nElectrons: 9.000000  magneticMoment: [ Abs: 0.90232  Tot: +0.90000 ]
SCF: Cycle:  7   F: -28.380838452869906   dF: -1.151e-07   |Residual|: 6.637e-05   |deigs|: 1.155e-04  t[s]:     77.13
	FillingsUpdate:  mu: -0.083589251  nElectrons: 9.000000  magneticMoment: [ Abs: 0.90227  Tot: +0.90000 ]
SCF: Cycle:  8   F: -28.380838470694442   dF: -1.782e-08   |Residual|: 5.210e-05   |deigs|: 9.717e-05  t[s]:     84.36
	FillingsUpdate:  mu: -0.083571361  nElectrons: 9.000000  magneticMoment: [ Abs: 0.90229  Tot: +0.90000 ]
SCF: Cycle:  9   F: -28.380838442696717   dF: +2.800e-08   |Residual|: 4.063e-05   |deigs|: 7.647e-05  t[s]:     91.70
	FillingsUpdate:  mu: -0.083546681  nElectrons: 9.000000  magneticMoment: [ Abs: 0.90231  Tot: +0.90000 ]
SCF: Cycle: 10   F: -28.380838435217619   dF: +7.479e-09   |Residual|: 3.658e-05   |deigs|: 7.685e-05  t[s]:     99.07
	FillingsUpdate:  mu: -0.083506150  nElectrons: 9.000000  magneticMoment: [ Abs: 0.90238  Tot: +0.90000 ]
SCF: Cycle: 11   F: -28.380837994022038   dF: +4.412e-07   |Residual|: 3.382e-05   |deigs|: 1.053e-04  t[s]:    106.46
	FillingsUpdate:  mu: -0.083487763  nElectrons: 9.000000  magneticMoment: [ Abs: 0.90246  Tot: +0.90000 ]
SCF: Cycle: 12   F: -28.380838185369750   dF: -1.913e-07   |Residual|: 2.737e-05   |deigs|: 7.900e-05  t[s]:    113.77
	FillingsUpdate:  mu: -0.083444956  nElectrons: 9.000000  magneticMoment: [ Abs: 0.90247  Tot: +0.90000 ]
SCF: Cycle: 13   F: -28.380838105408341   dF: +7.996e-08   |Residual|: 2.431e-05   |deigs|: 7.481e-05  t[s]:    121.15
	FillingsUpdate:  mu: -0.083413417  nElectrons: 9.000000  magneticMoment: [ Abs: 0.90246  Tot: +0.90000 ]
SCF: Cycle: 14   F: -28.380838301115940   dF: -1.957e-07   |Residual|: 2.341e-05   |deigs|: 6.384e-05  t[s]:    128.55
	FillingsUpdate:  mu: -0.083385126  nElectrons: 9.000000  magneticMoment: [ Abs: 0.90243  Tot: +0.90000 ]
SCF: Cycle: 15   F: -28.380838396999362   dF: -9.588e-08   |Residual|: 2.226e-05   |deigs|: 5.227e-05  t[s]:    135.83
	FillingsUpdate:  mu: -0.083372659  nElectrons: 9.000000  magneticMoment: [ Abs: 0.90239  Tot: +0.90000 ]
SCF: Cycle: 16   F: -28.380838442718343   dF: -4.572e-08   |Residual|: 1.804e-05   |deigs|: 3.774e-05  t[s]:    143.16
	FillingsUpdate:  mu: -0.083362046  nElectrons: 9.000000  magneticMoment: [ Abs: 0.90239  Tot: +0.90000 ]
SCF: Cycle: 17   F: -28.380838548777881   dF: -1.061e-07   |Residual|: 1.434e-05   |deigs|: 2.966e-05  t[s]:    150.49
	FillingsUpdate:  mu: -0.083348988  nElectrons: 9.000000  magneticMoment: [ Abs: 0.90239  Tot: +0.90000 ]
SCF: Cycle: 18   F: -28.380838614955053   dF: -6.618e-08   |Residual|: 1.138e-05   |deigs|: 1.857e-05  t[s]:    157.57
	FillingsUpdate:  mu: -0.083342999  nElectrons: 9.000000  magneticMoment: [ Abs: 0.90235  Tot: +0.90000 ]
SCF: Cycle: 19   F: -28.380838579901329   dF: +3.505e-08   |Residual|: 8.254e-06   |deigs|: 1.961e-05  t[s]:    164.64
	FillingsUpdate:  mu: -0.083339896  nElectrons: 9.000000  magneticMoment: [ Abs: 0.90232  Tot: +0.90000 ]
SCF: Cycle: 20   F: -28.380838602080207   dF: -2.218e-08   |Residual|: 6.497e-06   |deigs|: 2.129e-05  t[s]:    171.80
	FillingsUpdate:  mu: -0.083336957  nElectrons: 9.000000  magneticMoment: [ Abs: 0.90229  Tot: +0.90000 ]
SCF: Cycle: 21   F: -28.380838640084136   dF: -3.800e-08   |Residual|: 4.744e-06   |deigs|: 2.419e-05  t[s]:    178.94
	FillingsUpdate:  mu: -0.083335191  nElectrons: 9.000000  magneticMoment: [ Abs: 0.90228  Tot: +0.90000 ]
SCF: Cycle: 22   F: -28.380838639278608   dF: +8.055e-10   |Residual|: 3.490e-06   |deigs|: 2.497e-05  t[s]:    185.91
	FillingsUpdate:  mu: -0.083333931  nElectrons: 9.000000  magneticMoment: [ Abs: 0.90228  Tot: +0.90000 ]
SCF: Cycle: 23   F: -28.380838650914022   dF: -1.164e-08   |Residual|: 2.437e-06   |deigs|: 2.556e-05  t[s]:    193.35
	FillingsUpdate:  mu: -0.083333080  nElectrons: 9.000000  magneticMoment: [ Abs: 0.90228  Tot: +0.90000 ]
SCF: Cycle: 24   F: -28.380838664096409   dF: -1.318e-08   |Residual|: 1.670e-06   |deigs|: 2.606e-05  t[s]:    200.19
	FillingsUpdate:  mu: -0.083333855  nElectrons: 9.000000  magneticMoment: [ Abs: 0.90228  Tot: +0.90000 ]
SCF: Cycle: 25   F: -28.380838667435114   dF: -3.339e-09   |Residual|: 1.063e-06   |deigs|: 2.550e-05  t[s]:    206.92
	FillingsUpdate:  mu: -0.083334221  nElectrons: 9.000000  magneticMoment: [ Abs: 0.90228  Tot: +0.90000 ]
SCF: Cycle: 26   F: -28.380838668978736   dF: -1.544e-09   |Residual|: 7.500e-07   |deigs|: 2.407e-05  t[s]:    213.76
SCF: Converged (|Delta E|<1.000000e-08 for 2 iters).


# Ionic positions in lattice coordinates:
ion K   0.000000000000000   0.000000000000000   0.000000000000000 0

# Forces in Lattice coordinates:
force K   0.000000000000000   0.000000000000000   0.000000000000000 0

# Energy components:
   Eewald =       -9.0240130501663280
       EH =       13.7923388332581585
     Eloc =      -36.0039581123969867
      Enl =       -2.7666038118621161
   Epulay =        0.0000000066859396
      Exc =       -4.2463676977726701
       KE =        9.8677657943704808
-------------------------------------
     Etot =      -28.3808380378835245
       TS =        0.0000006310952125
-------------------------------------
        F =      -28.3808386689787362

IonicMinimize: Iter:   0  F: -28.380838668978736  |grad|_K:  0.000e+00  t[s]:    214.17
IonicMinimize: Converged (|grad|_K<1.000000e-04).

#--- Lowdin population analysis ---
# oxidation-state K +0.001
# magnetic-moments K +0.899

End date and time: Sun Feb  6 00:01:46 2022  (Duration: 0-0:03:34.23)
Done!
