The alkali metal is K
scale=2
magnetization=0.06
--------------------------------------------------------------------------
The library attempted to open the following supporting CUDA libraries,
but each of them failed.  CUDA-aware support is disabled.
libcuda.so.1: cannot open shared object file: No such file or directory
libcuda.dylib: cannot open shared object file: No such file or directory
/usr/lib64/libcuda.so.1: cannot open shared object file: No such file or directory
/usr/lib64/libcuda.dylib: cannot open shared object file: No such file or directory
If you are not interested in CUDA-aware support, then run with
--mca opal_warn_on_missing_libcuda 0 to suppress this message.  If you are interested
in CUDA-aware support, then try setting LD_LIBRARY_PATH to the location
of libcuda.so.1 to get passed this issue.
--------------------------------------------------------------------------
--------------------------------------------------------------------------
No OpenFabrics connection schemes reported that they were able to be
used on a specific port.  As such, the openib BTL (OpenFabrics
support) will be disabled for this port.

  Local host:           d-3-7-1
  Local device:         mlx5_1
  Local port:           1
  CPCs attempted:       rdmacm, udcm
--------------------------------------------------------------------------

*************** JDFTx 1.6.0 (git hash 42ebbcc2) ***************

Start date and time: Sat Feb  5 23:43:06 2022
Executable jdftx with command-line: -i Alkali.in
Running on hosts (process indices):  d-3-7-1 (0-18)
Divided in process groups (process indices):  0 (0)  1 (1)  2 (2)  3 (3)  4 (4)  5 (5)  6 (6)  7 (7)  8 (8)  9 (9)  10 (10)  11 (11)  12 (12)  13 (13)  14 (14)  15 (15)  16 (16)  17 (17)  18 (18)
Resource initialization completed at t[s]:      0.00
Run totals: 19 processes, 48 threads, 0 GPUs


Input parsed successfully to the following command list (including defaults):

basis kpoint-dependent
coords-type Lattice
core-overlap-check vector
coulomb-interaction Slab 001
davidson-band-ratio 1.1
dump End None
dump-name $INPUT.$VAR
elec-cutoff 20
elec-eigen-algo Davidson
elec-ex-corr gga-PBE
elec-initial-magnetization 0.060000 yes
elec-smearing Fermi 1e-05
electronic-minimize  \
	dirUpdateScheme      FletcherReeves \
	linminMethod         DirUpdateRecommended \
	nIterations          100 \
	history              15 \
	knormThreshold       0 \
	energyDiffThreshold  1e-08 \
	nEnergyDiff          2 \
	alphaTstart          1 \
	alphaTmin            1e-10 \
	updateTestStepSize   yes \
	alphaTreduceFactor   0.1 \
	alphaTincreaseFactor 3 \
	nAlphaAdjustMax      3 \
	wolfeEnergy          0.0001 \
	wolfeGradient        0.9 \
	fdTest               no
electronic-scf  \
	nIterations	10000 \
	energyDiffThreshold	1e-08 \
	residualThreshold	1e-07 \
	mixFraction	0.5 \
	qMetric	0.8 \
	history	10 \
	nEigSteps	2 \
	eigDiffThreshold	1e-08 \
	mixedVariable	Density \
	qKerker	0.8 \
	qKappa	-1 \
	verbose	no \
	mixFractionMag	1.5
exchange-regularization WignerSeitzTruncated
fluid None
fluid-ex-corr (null) lda-PZ
fluid-gummel-loop 10 1.000000e-05
fluid-minimize  \
	dirUpdateScheme      PolakRibiere \
	linminMethod         DirUpdateRecommended \
	nIterations          100 \
	history              15 \
	knormThreshold       0 \
	energyDiffThreshold  0 \
	nEnergyDiff          2 \
	alphaTstart          1 \
	alphaTmin            1e-10 \
	updateTestStepSize   yes \
	alphaTreduceFactor   0.1 \
	alphaTincreaseFactor 3 \
	nAlphaAdjustMax      3 \
	wolfeEnergy          0.0001 \
	wolfeGradient        0.9 \
	fdTest               no
fluid-solvent H2O 55.338 ScalarEOS \
	epsBulk 78.4 \
	pMol 0.92466 \
	epsInf 1.77 \
	Pvap 1.06736e-10 \
	sigmaBulk 4.62e-05 \
	Rvdw 2.61727 \
	Res 1.42 \
	tauNuc 343133 \
	poleEl 15 7 1
forces-output-coords Positions
ion K   0.000000000000000   0.000000000000000   0.000000000000000 0
ion-species SG15/$ID_ONCV_PBE.upf
ion-width 0
ionic-minimize  \
	dirUpdateScheme      L-BFGS \
	linminMethod         DirUpdateRecommended \
	nIterations          0 \
	history              15 \
	knormThreshold       0.0001 \
	energyDiffThreshold  1e-06 \
	nEnergyDiff          2 \
	alphaTstart          1 \
	alphaTmin            1e-10 \
	updateTestStepSize   yes \
	alphaTreduceFactor   0.1 \
	alphaTincreaseFactor 3 \
	nAlphaAdjustMax      3 \
	wolfeEnergy          0.0001 \
	wolfeGradient        0.9 \
	fdTest               no
kpoint   0.000000000000   0.000000000000   0.000000000000  1.00000000000000
kpoint-folding 12 12 1 
latt-move-scale 1 1 1
latt-scale 2 2 1 
lattice  \
	   4.727486978767153   -2.363743489383575    0.000000000000000  \
	  -0.000000000000000    4.094123819672498    0.000000000000000  \
	   0.000000000000000    0.000000000000000   40.000000000000000 
lattice-minimize  \
	dirUpdateScheme      L-BFGS \
	linminMethod         DirUpdateRecommended \
	nIterations          0 \
	history              15 \
	knormThreshold       0 \
	energyDiffThreshold  1e-06 \
	nEnergyDiff          2 \
	alphaTstart          1 \
	alphaTmin            1e-10 \
	updateTestStepSize   yes \
	alphaTreduceFactor   0.1 \
	alphaTincreaseFactor 3 \
	nAlphaAdjustMax      3 \
	wolfeEnergy          0.0001 \
	wolfeGradient        0.9 \
	fdTest               no
lcao-params -1 1e-06 1e-05
pcm-variant GLSSA13
spintype z-spin
subspace-rotation-factor 1 yes
symmetries automatic
symmetry-threshold 0.0001



---------- Setting up symmetries ----------

Found 24 point-group symmetries of the bravais lattice
Found 24 space-group symmetries with basis
Applied RMS atom displacement 0 bohrs to make symmetries exact.

---------- Initializing the Grid ----------
R = 
[      9.45497     -4.72749            0  ]
[            0      8.18825            0  ]
[            0            0           40  ]
unit cell volume = 3096.79
G =
[   0.664538   0.383671         -0  ]
[          0   0.767342         -0  ]
[         -0         -0    0.15708  ]
Minimum fftbox size, Smin = [  40  40  164  ]
Chosen fftbox size, S = [  40  40  168  ]

---------- Exchange Correlation functional ----------
Initalized PBE GGA exchange.
Initalized PBE GGA correlation.

---------- Setting up pseudopotentials ----------
Width of ionic core gaussian charges (only for fluid interactions / plotting) set to 0

Reading pseudopotential file '/home/gridsan/aligho/DFT/build-Nov24/pseudopotentials/SG15/K_ONCV_PBE.upf':
  'K' pseudopotential, 'PBE' functional
  Generated using ONCVPSP code by D. R. Hamann
  Author: Martin Schlipf and Francois Gygi  Date: 150915.
  9 valence electrons, 3 orbitals, 6 projectors, 2222 radial grid points, with lMax = 2
  Transforming local potential to a uniform radial grid of dG=0.02 with 1489 points.
  Transforming nonlocal projectors to a uniform radial grid of dG=0.02 with 432 points.
    3S    l: 0   occupation:  2.0   eigenvalue: -1.298836
    3P    l: 1   occupation:  6.0   eigenvalue: -0.691386
    4S    l: 0   occupation:  1.0   eigenvalue: -0.085223
  Transforming atomic orbitals to a uniform radial grid of dG=0.02 with 432 points.
  Core radius for overlap checks: 2.06 bohrs.
  Reading pulay file /home/gridsan/aligho/DFT/build-Nov24/pseudopotentials/SG15/K_ONCV_PBE.pulay ... using dE_dnG = -1.597219e-05 computed for Ecut = 20.

Initialized 1 species with 1 total atoms.

Folded 1 k-points by 12x12x1 to 144 k-points.

---------- Setting up k-points, bands, fillings ----------
Reduced to 19 k-points under symmetry. 
Computing the number of bands and number of electrons
Calculating initial fillings.
nElectrons:   9.000000   nBands: 6   nStates: 38

----- Setting up reduced wavefunction bases (one per k-point) -----
average nbasis = 13230.521 , ideal nbasis = 13229.709

---------- Setting up coulomb interaction ----------
Initialized slab truncation along lattice direction 001

---------- Setting up 2D ewald sum ----------
Optimum gaussian width for ewald sums = 5.249020 bohr.
Real space sums over 289 unit cells with max indices [  8  8  0  ]
Reciprocal space sums over 81 terms with max indices [  4  4  0  ]

---------- Allocating electronic variables ----------
Initializing wave functions:  linear combination of atomic orbitals
Note: number of bands (6) exceeds available atomic orbitals (5)
K pseudo-atom occupations:   s ( 2 1 )  p ( 6 )
	FillingsUpdate:  mu: -0.096294182  nElectrons: 9.000000  magneticMoment: [ Abs: 0.06000  Tot: +0.06000 ]
LCAOMinimize: Iter:   0  F: -28.3988613408089243  |grad|_K:  4.393e-05  alpha:  1.000e+00
	FillingsUpdate:  mu: -0.096283630  nElectrons: 9.000000  magneticMoment: [ Abs: 0.06000  Tot: +0.06000 ]
LCAOMinimize: Iter:   1  F: -28.3988626327534206  |grad|_K:  4.662e-07  alpha:  9.788e-01  linmin: -3.248e-02  cgtest:  5.641e-01  t[s]:      4.70
LCAOMinimize: Encountered beta<0, resetting CG.
[d-3-7-1:55442] 18 more processes have sent help message help-mpi-common-cuda.txt / dlopen failed
[d-3-7-1:55442] Set MCA parameter "orte_base_help_aggregate" to 0 to see all help / error messages
[d-3-7-1:55442] 18 more processes have sent help message help-mpi-btl-openib-cpc-base.txt / no cpcs for port
	FillingsUpdate:  mu: -0.096283698  nElectrons: 9.000000  magneticMoment: [ Abs: 0.06000  Tot: +0.06000 ]
LCAOMinimize: Iter:   2  F: -28.3988626329029152  |grad|_K:  1.833e-09  alpha:  1.004e+00  linmin:  9.719e-02  cgtest: -8.282e-01  t[s]:      5.90
LCAOMinimize: 	Step increased F by 1.207923e-13, reducing alpha to 2.536816e-03.
LCAOMinimize: 	Step increased F by 1.421085e-13, reducing alpha to 2.536816e-04.
LCAOMinimize: 	Step increased F by 3.161915e-13, reducing alpha to 2.536816e-05.
LCAOMinimize: 	Step failed to reduce F after 3 attempts. Quitting step.
LCAOMinimize: 	Undoing step.
LCAOMinimize: 	Step failed: resetting search direction.
	FillingsUpdate:  mu: -0.096283698  nElectrons: 9.000000  magneticMoment: [ Abs: 0.06000  Tot: +0.06000 ]
LCAOMinimize: Iter:   3  F: -28.3988626329028691  |grad|_K:  1.832e-09  alpha:  2.537e-05
LCAOMinimize: 	Wrong curvature in test step, increasing alphaT to 3.013073e+00.
	FillingsUpdate:  mu: -0.096283698  nElectrons: 9.000000  magneticMoment: [ Abs: 0.06000  Tot: +0.06000 ]
LCAOMinimize: Iter:   4  F: -28.3988626329030645  |grad|_K:  2.892e-11  alpha: -1.208e-02  linmin:  4.572e-02  cgtest: -7.443e-01  t[s]:     10.53
	FillingsUpdate:  mu: -0.096283698  nElectrons: 9.000000  magneticMoment: [ Abs: 0.06000  Tot: +0.06000 ]
LCAOMinimize: Iter:   5  F: -28.3988626329032314  |grad|_K:  2.892e-11  alpha:  3.884e-06  linmin: -9.025e-02  cgtest:  1.000e+00  t[s]:     11.86
LCAOMinimize: Encountered beta<0, resetting CG.
LCAOMinimize: Converged (|Delta F|<1.000000e-06 for 2 iters).


---- Citations for features of the code used in this run ----

   Software package:
      R. Sundararaman, K. Letchworth-Weaver, K.A. Schwarz, D. Gunceler, Y. Ozhabes and T.A. Arias, 'JDFTx: software for joint density-functional theory', SoftwareX 6, 278 (2017)

   gga-PBE exchange-correlation functional:
      J.P. Perdew, K. Burke and M. Ernzerhof, Phys. Rev. Lett. 77, 3865 (1996)

   Pseudopotentials:
      M Schlipf and F Gygi, Comput. Phys. Commun. 196, 36 (2015)

   Truncated Coulomb potentials:
      R. Sundararaman and T.A. Arias, Phys. Rev. B 87, 165122 (2013)

This list may not be complete. Please suggest additional citations or
report any other bugs at https://github.com/shankar1729/jdftx/issues

Initialization completed successfully at t[s]:     11.96


-------- Electronic minimization -----------
Will mix electronic density at each iteration.
	FillingsUpdate:  mu: -0.096283698  nElectrons: 9.000000  magneticMoment: [ Abs: 0.06000  Tot: +0.06000 ]
	FillingsUpdate:  mu: -0.106619418  nElectrons: 9.000000  magneticMoment: [ Abs: 0.06000  Tot: +0.06000 ]
SCF: Cycle:  0   F: -28.403488310506884   dF: -4.626e-03   |Residual|: 7.924e-03   |deigs|: 1.749e-01  t[s]:     14.44
	FillingsUpdate:  mu: -0.106447716  nElectrons: 9.000000  magneticMoment: [ Abs: 0.06000  Tot: +0.06000 ]
SCF: Cycle:  1   F: -28.403583441766397   dF: -9.513e-05   |Residual|: 6.377e-03   |deigs|: 5.406e-03  t[s]:     16.29
	FillingsUpdate:  mu: -0.104164004  nElectrons: 9.000000  magneticMoment: [ Abs: 0.06404  Tot: +0.06000 ]
SCF: Cycle:  2   F: -28.403631005225662   dF: -4.756e-05   |Residual|: 2.477e-03   |deigs|: 3.927e-03  t[s]:     18.17
	FillingsUpdate:  mu: -0.103425802  nElectrons: 9.000000  magneticMoment: [ Abs: 0.06005  Tot: +0.06000 ]
SCF: Cycle:  3   F: -28.403670453356870   dF: -3.945e-05   |Residual|: 1.786e-03   |deigs|: 4.491e-03  t[s]:     20.06
	FillingsUpdate:  mu: -0.101957300  nElectrons: 9.000000  magneticMoment: [ Abs: 0.06070  Tot: +0.06000 ]
SCF: Cycle:  4   F: -28.403689308522495   dF: -1.886e-05   |Residual|: 1.508e-03   |deigs|: 3.773e-03  t[s]:     22.02
	FillingsUpdate:  mu: -0.099894914  nElectrons: 9.000000  magneticMoment: [ Abs: 0.06221  Tot: +0.06000 ]
SCF: Cycle:  5   F: -28.403701753261760   dF: -1.244e-05   |Residual|: 1.050e-03   |deigs|: 2.585e-03  t[s]:     24.04
	FillingsUpdate:  mu: -0.098681079  nElectrons: 9.000000  magneticMoment: [ Abs: 0.06193  Tot: +0.06000 ]
SCF: Cycle:  6   F: -28.403715222049833   dF: -1.347e-05   |Residual|: 8.825e-04   |deigs|: 3.420e-03  t[s]:     26.15
	FillingsUpdate:  mu: -0.098100171  nElectrons: 9.000000  magneticMoment: [ Abs: 0.06089  Tot: +0.06000 ]
SCF: Cycle:  7   F: -28.403732695582281   dF: -1.747e-05   |Residual|: 7.049e-04   |deigs|: 1.701e-03  t[s]:     28.22
	FillingsUpdate:  mu: -0.097156045  nElectrons: 9.000000  magneticMoment: [ Abs: 0.06096  Tot: +0.06000 ]
SCF: Cycle:  8   F: -28.403739122551539   dF: -6.427e-06   |Residual|: 5.946e-04   |deigs|: 9.653e-04  t[s]:     30.40
	FillingsUpdate:  mu: -0.095903644  nElectrons: 9.000000  magneticMoment: [ Abs: 0.06113  Tot: +0.06000 ]
SCF: Cycle:  9   F: -28.403735184153881   dF: +3.938e-06   |Residual|: 5.127e-04   |deigs|: 1.330e-03  t[s]:     32.63
	FillingsUpdate:  mu: -0.094913898  nElectrons: 9.000000  magneticMoment: [ Abs: 0.06108  Tot: +0.06000 ]
SCF: Cycle: 10   F: -28.403741761735155   dF: -6.578e-06   |Residual|: 4.894e-04   |deigs|: 1.074e-03  t[s]:     34.72
	FillingsUpdate:  mu: -0.094052221  nElectrons: 9.000000  magneticMoment: [ Abs: 0.06046  Tot: +0.06000 ]
SCF: Cycle: 11   F: -28.403750961744752   dF: -9.200e-06   |Residual|: 4.002e-04   |deigs|: 8.548e-04  t[s]:     36.80
	FillingsUpdate:  mu: -0.092817565  nElectrons: 9.000000  magneticMoment: [ Abs: 0.06137  Tot: +0.06000 ]
SCF: Cycle: 12   F: -28.403757149870668   dF: -6.188e-06   |Residual|: 3.940e-04   |deigs|: 1.209e-03  t[s]:     38.85
	FillingsUpdate:  mu: -0.091827919  nElectrons: 9.000000  magneticMoment: [ Abs: 0.06116  Tot: +0.06000 ]
SCF: Cycle: 13   F: -28.403760934103424   dF: -3.784e-06   |Residual|: 3.645e-04   |deigs|: 1.049e-03  t[s]:     40.89
	FillingsUpdate:  mu: -0.090797052  nElectrons: 9.000000  magneticMoment: [ Abs: 0.06022  Tot: +0.06000 ]
SCF: Cycle: 14   F: -28.403764105514366   dF: -3.171e-06   |Residual|: 2.786e-04   |deigs|: 1.125e-03  t[s]:     42.95
	FillingsUpdate:  mu: -0.090415594  nElectrons: 9.000000  magneticMoment: [ Abs: 0.06021  Tot: +0.06000 ]
SCF: Cycle: 15   F: -28.403765491206155   dF: -1.386e-06   |Residual|: 2.039e-04   |deigs|: 4.340e-04  t[s]:     45.15
	FillingsUpdate:  mu: -0.090255874  nElectrons: 9.000000  magneticMoment: [ Abs: 0.06023  Tot: +0.06000 ]
SCF: Cycle: 16   F: -28.403766170995528   dF: -6.798e-07   |Residual|: 1.311e-04   |deigs|: 3.094e-04  t[s]:     47.25
	FillingsUpdate:  mu: -0.090066313  nElectrons: 9.000000  magneticMoment: [ Abs: 0.06007  Tot: +0.06000 ]
SCF: Cycle: 17   F: -28.403766453900612   dF: -2.829e-07   |Residual|: 7.244e-05   |deigs|: 3.399e-04  t[s]:     49.34
	FillingsUpdate:  mu: -0.090030593  nElectrons: 9.000000  magneticMoment: [ Abs: 0.06011  Tot: +0.06000 ]
SCF: Cycle: 18   F: -28.403766611463571   dF: -1.576e-07   |Residual|: 4.147e-05   |deigs|: 1.807e-04  t[s]:     51.42
	FillingsUpdate:  mu: -0.090000926  nElectrons: 9.000000  magneticMoment: [ Abs: 0.06011  Tot: +0.06000 ]
SCF: Cycle: 19   F: -28.403766697087001   dF: -8.562e-08   |Residual|: 2.665e-05   |deigs|: 1.138e-04  t[s]:     53.56
	FillingsUpdate:  mu: -0.089992509  nElectrons: 9.000000  magneticMoment: [ Abs: 0.06005  Tot: +0.06000 ]
SCF: Cycle: 20   F: -28.403766744373815   dF: -4.729e-08   |Residual|: 1.530e-05   |deigs|: 7.945e-05  t[s]:     55.62
	FillingsUpdate:  mu: -0.090005142  nElectrons: 9.000000  magneticMoment: [ Abs: 0.06003  Tot: +0.06000 ]
SCF: Cycle: 21   F: -28.403766776779040   dF: -3.241e-08   |Residual|: 5.682e-06   |deigs|: 6.303e-05  t[s]:     57.67
	FillingsUpdate:  mu: -0.090000168  nElectrons: 9.000000  magneticMoment: [ Abs: 0.06003  Tot: +0.06000 ]
SCF: Cycle: 22   F: -28.403766798602408   dF: -2.182e-08   |Residual|: 3.369e-06   |deigs|: 4.072e-05  t[s]:     59.62
	FillingsUpdate:  mu: -0.089996333  nElectrons: 9.000000  magneticMoment: [ Abs: 0.06003  Tot: +0.06000 ]
SCF: Cycle: 23   F: -28.403766813381967   dF: -1.478e-08   |Residual|: 1.830e-06   |deigs|: 3.102e-05  t[s]:     61.55
	FillingsUpdate:  mu: -0.089993055  nElectrons: 9.000000  magneticMoment: [ Abs: 0.06003  Tot: +0.06000 ]
SCF: Cycle: 24   F: -28.403766821813477   dF: -8.432e-09   |Residual|: 1.442e-06   |deigs|: 2.345e-05  t[s]:     63.52
	FillingsUpdate:  mu: -0.089993700  nElectrons: 9.000000  magneticMoment: [ Abs: 0.06002  Tot: +0.06000 ]
SCF: Cycle: 25   F: -28.403766827630832   dF: -5.817e-09   |Residual|: 1.012e-06   |deigs|: 3.120e-05  t[s]:     65.40
SCF: Converged (|Delta E|<1.000000e-08 for 2 iters).


# Ionic positions in lattice coordinates:
ion K   0.000000000000000   0.000000000000000   0.000000000000000 0

# Forces in Lattice coordinates:
force K  -0.000000000000000  -0.000000000000000   0.000000000000000 0

# Energy components:
   Eewald =      -18.0480261003326561
       EH =        4.8665739527782490
     Eloc =      -18.0589987307528332
      Enl =       -2.7735983949772351
   Epulay =        0.0000000041876954
      Exc =       -4.2621974376224676
       KE =        9.8724809428289397
-------------------------------------
     Etot =      -28.4037657638903092
       TS =        0.0000010637405220
-------------------------------------
        F =      -28.4037668276308324

IonicMinimize: Iter:   0  F: -28.403766827630832  |grad|_K:  0.000e+00  t[s]:     65.56
IonicMinimize: Converged (|grad|_K<1.000000e-04).

#--- Lowdin population analysis ---
# oxidation-state K +0.037
# magnetic-moments K +0.053

End date and time: Sat Feb  5 23:44:12 2022  (Duration: 0-0:01:05.59)
Done!
scale=3
magnetization=0.06
--------------------------------------------------------------------------
The library attempted to open the following supporting CUDA libraries,
but each of them failed.  CUDA-aware support is disabled.
libcuda.so.1: cannot open shared object file: No such file or directory
libcuda.dylib: cannot open shared object file: No such file or directory
/usr/lib64/libcuda.so.1: cannot open shared object file: No such file or directory
/usr/lib64/libcuda.dylib: cannot open shared object file: No such file or directory
If you are not interested in CUDA-aware support, then run with
--mca opal_warn_on_missing_libcuda 0 to suppress this message.  If you are interested
in CUDA-aware support, then try setting LD_LIBRARY_PATH to the location
of libcuda.so.1 to get passed this issue.
--------------------------------------------------------------------------
--------------------------------------------------------------------------
No OpenFabrics connection schemes reported that they were able to be
used on a specific port.  As such, the openib BTL (OpenFabrics
support) will be disabled for this port.

  Local host:           d-3-7-1
  Local device:         mlx5_1
  Local port:           1
  CPCs attempted:       rdmacm, udcm
--------------------------------------------------------------------------

*************** JDFTx 1.6.0 (git hash 42ebbcc2) ***************

Start date and time: Sat Feb  5 23:44:13 2022
Executable jdftx with command-line: -i Alkali.in
Running on hosts (process indices):  d-3-7-1 (0-18)
Divided in process groups (process indices):  0 (0)  1 (1)  2 (2)  3 (3)  4 (4)  5 (5)  6 (6)  7 (7)  8 (8)  9 (9)  10 (10)  11 (11)  12 (12)  13 (13)  14 (14)  15 (15)  16 (16)  17 (17)  18 (18)
Resource initialization completed at t[s]:      0.00
Run totals: 19 processes, 48 threads, 0 GPUs


Input parsed successfully to the following command list (including defaults):

basis kpoint-dependent
coords-type Lattice
core-overlap-check vector
coulomb-interaction Slab 001
davidson-band-ratio 1.1
dump End None
dump-name $INPUT.$VAR
elec-cutoff 20
elec-eigen-algo Davidson
elec-ex-corr gga-PBE
elec-initial-magnetization 0.060000 yes
elec-smearing Fermi 1e-05
electronic-minimize  \
	dirUpdateScheme      FletcherReeves \
	linminMethod         DirUpdateRecommended \
	nIterations          100 \
	history              15 \
	knormThreshold       0 \
	energyDiffThreshold  1e-08 \
	nEnergyDiff          2 \
	alphaTstart          1 \
	alphaTmin            1e-10 \
	updateTestStepSize   yes \
	alphaTreduceFactor   0.1 \
	alphaTincreaseFactor 3 \
	nAlphaAdjustMax      3 \
	wolfeEnergy          0.0001 \
	wolfeGradient        0.9 \
	fdTest               no
electronic-scf  \
	nIterations	10000 \
	energyDiffThreshold	1e-08 \
	residualThreshold	1e-07 \
	mixFraction	0.5 \
	qMetric	0.8 \
	history	10 \
	nEigSteps	2 \
	eigDiffThreshold	1e-08 \
	mixedVariable	Density \
	qKerker	0.8 \
	qKappa	-1 \
	verbose	no \
	mixFractionMag	1.5
exchange-regularization WignerSeitzTruncated
fluid None
fluid-ex-corr (null) lda-PZ
fluid-gummel-loop 10 1.000000e-05
fluid-minimize  \
	dirUpdateScheme      PolakRibiere \
	linminMethod         DirUpdateRecommended \
	nIterations          100 \
	history              15 \
	knormThreshold       0 \
	energyDiffThreshold  0 \
	nEnergyDiff          2 \
	alphaTstart          1 \
	alphaTmin            1e-10 \
	updateTestStepSize   yes \
	alphaTreduceFactor   0.1 \
	alphaTincreaseFactor 3 \
	nAlphaAdjustMax      3 \
	wolfeEnergy          0.0001 \
	wolfeGradient        0.9 \
	fdTest               no
fluid-solvent H2O 55.338 ScalarEOS \
	epsBulk 78.4 \
	pMol 0.92466 \
	epsInf 1.77 \
	Pvap 1.06736e-10 \
	sigmaBulk 4.62e-05 \
	Rvdw 2.61727 \
	Res 1.42 \
	tauNuc 343133 \
	poleEl 15 7 1
forces-output-coords Positions
ion K   0.000000000000000   0.000000000000000   0.000000000000000 0
ion-species SG15/$ID_ONCV_PBE.upf
ion-width 0
ionic-minimize  \
	dirUpdateScheme      L-BFGS \
	linminMethod         DirUpdateRecommended \
	nIterations          0 \
	history              15 \
	knormThreshold       0.0001 \
	energyDiffThreshold  1e-06 \
	nEnergyDiff          2 \
	alphaTstart          1 \
	alphaTmin            1e-10 \
	updateTestStepSize   yes \
	alphaTreduceFactor   0.1 \
	alphaTincreaseFactor 3 \
	nAlphaAdjustMax      3 \
	wolfeEnergy          0.0001 \
	wolfeGradient        0.9 \
	fdTest               no
kpoint   0.000000000000   0.000000000000   0.000000000000  1.00000000000000
kpoint-folding 12 12 1 
latt-move-scale 1 1 1
latt-scale 3 3 1 
lattice  \
	   4.727486978767153   -2.363743489383575    0.000000000000000  \
	  -0.000000000000000    4.094123819672498    0.000000000000000  \
	   0.000000000000000    0.000000000000000   40.000000000000000 
lattice-minimize  \
	dirUpdateScheme      L-BFGS \
	linminMethod         DirUpdateRecommended \
	nIterations          0 \
	history              15 \
	knormThreshold       0 \
	energyDiffThreshold  1e-06 \
	nEnergyDiff          2 \
	alphaTstart          1 \
	alphaTmin            1e-10 \
	updateTestStepSize   yes \
	alphaTreduceFactor   0.1 \
	alphaTincreaseFactor 3 \
	nAlphaAdjustMax      3 \
	wolfeEnergy          0.0001 \
	wolfeGradient        0.9 \
	fdTest               no
lcao-params -1 1e-06 1e-05
pcm-variant GLSSA13
spintype z-spin
subspace-rotation-factor 1 yes
symmetries automatic
symmetry-threshold 0.0001



---------- Setting up symmetries ----------

Found 24 point-group symmetries of the bravais lattice
Found 24 space-group symmetries with basis
Applied RMS atom displacement 0 bohrs to make symmetries exact.

---------- Initializing the Grid ----------
R = 
[      14.1825     -7.09123            0  ]
[            0      12.2824            0  ]
[            0            0           40  ]
unit cell volume = 6967.77
G =
[   0.443025   0.255781         -0  ]
[          0   0.511561         -0  ]
[         -0         -0    0.15708  ]
Minimum fftbox size, Smin = [  60  60  164  ]
Chosen fftbox size, S = [  60  60  168  ]

---------- Exchange Correlation functional ----------
Initalized PBE GGA exchange.
Initalized PBE GGA correlation.

---------- Setting up pseudopotentials ----------
Width of ionic core gaussian charges (only for fluid interactions / plotting) set to 0

Reading pseudopotential file '/home/gridsan/aligho/DFT/build-Nov24/pseudopotentials/SG15/K_ONCV_PBE.upf':
  'K' pseudopotential, 'PBE' functional
  Generated using ONCVPSP code by D. R. Hamann
  Author: Martin Schlipf and Francois Gygi  Date: 150915.
  9 valence electrons, 3 orbitals, 6 projectors, 2222 radial grid points, with lMax = 2
  Transforming local potential to a uniform radial grid of dG=0.02 with 1489 points.
  Transforming nonlocal projectors to a uniform radial grid of dG=0.02 with 432 points.
    3S    l: 0   occupation:  2.0   eigenvalue: -1.298836
    3P    l: 1   occupation:  6.0   eigenvalue: -0.691386
    4S    l: 0   occupation:  1.0   eigenvalue: -0.085223
  Transforming atomic orbitals to a uniform radial grid of dG=0.02 with 432 points.
  Core radius for overlap checks: 2.06 bohrs.
  Reading pulay file /home/gridsan/aligho/DFT/build-Nov24/pseudopotentials/SG15/K_ONCV_PBE.pulay ... using dE_dnG = -1.597219e-05 computed for Ecut = 20.

Initialized 1 species with 1 total atoms.

Folded 1 k-points by 12x12x1 to 144 k-points.

---------- Setting up k-points, bands, fillings ----------
Reduced to 19 k-points under symmetry. 
Computing the number of bands and number of electrons
Calculating initial fillings.
nElectrons:   9.000000   nBands: 6   nStates: 38

----- Setting up reduced wavefunction bases (one per k-point) -----
average nbasis = 29766.104 , ideal nbasis = 29766.845

---------- Setting up coulomb interaction ----------
Initialized slab truncation along lattice direction 001

---------- Setting up 2D ewald sum ----------
Optimum gaussian width for ewald sums = 7.873530 bohr.
Real space sums over 289 unit cells with max indices [  8  8  0  ]
Reciprocal space sums over 81 terms with max indices [  4  4  0  ]

---------- Allocating electronic variables ----------
Initializing wave functions:  linear combination of atomic orbitals
Note: number of bands (6) exceeds available atomic orbitals (5)
K pseudo-atom occupations:   s ( 2 1 )  p ( 6 )
[d-3-7-1:34658] 18 more processes have sent help message help-mpi-common-cuda.txt / dlopen failed
[d-3-7-1:34658] Set MCA parameter "orte_base_help_aggregate" to 0 to see all help / error messages
[d-3-7-1:34658] 18 more processes have sent help message help-mpi-btl-openib-cpc-base.txt / no cpcs for port
	FillingsUpdate:  mu: -0.086369583  nElectrons: 9.000000  magneticMoment: [ Abs: 0.06000  Tot: +0.06000 ]
LCAOMinimize: Iter:   0  F: -28.3829173876300338  |grad|_K:  1.867e-05  alpha:  1.000e+00
	FillingsUpdate:  mu: -0.086365876  nElectrons: 9.000000  magneticMoment: [ Abs: 0.06000  Tot: +0.06000 ]
LCAOMinimize: Iter:   1  F: -28.3829176230423421  |grad|_K:  1.381e-07  alpha:  9.876e-01  linmin: -1.543e-02  cgtest:  4.930e-01  t[s]:      8.95
LCAOMinimize: Encountered beta<0, resetting CG.
	FillingsUpdate:  mu: -0.086365873  nElectrons: 9.000000  magneticMoment: [ Abs: 0.06000  Tot: +0.06000 ]
LCAOMinimize: Iter:   2  F: -28.3829176230553024  |grad|_K:  2.967e-09  alpha:  1.022e+00  linmin:  3.981e-02  cgtest: -9.980e-01  t[s]:     11.35
LCAOMinimize: Converged (|Delta F|<1.000000e-06 for 2 iters).


---- Citations for features of the code used in this run ----

   Software package:
      R. Sundararaman, K. Letchworth-Weaver, K.A. Schwarz, D. Gunceler, Y. Ozhabes and T.A. Arias, 'JDFTx: software for joint density-functional theory', SoftwareX 6, 278 (2017)

   gga-PBE exchange-correlation functional:
      J.P. Perdew, K. Burke and M. Ernzerhof, Phys. Rev. Lett. 77, 3865 (1996)

   Pseudopotentials:
      M Schlipf and F Gygi, Comput. Phys. Commun. 196, 36 (2015)

   Truncated Coulomb potentials:
      R. Sundararaman and T.A. Arias, Phys. Rev. B 87, 165122 (2013)

This list may not be complete. Please suggest additional citations or
report any other bugs at https://github.com/shankar1729/jdftx/issues

Initialization completed successfully at t[s]:     11.52


-------- Electronic minimization -----------
Will mix electronic density at each iteration.
	FillingsUpdate:  mu: -0.086365873  nElectrons: 9.000000  magneticMoment: [ Abs: 0.06000  Tot: +0.06000 ]
	FillingsUpdate:  mu: -0.088300510  nElectrons: 9.000000  magneticMoment: [ Abs: 0.06000  Tot: +0.06000 ]
SCF: Cycle:  0   F: -28.384422666988641   dF: -1.505e-03   |Residual|: 3.313e-03   |deigs|: 1.747e-01  t[s]:     16.50
	FillingsUpdate:  mu: -0.088526601  nElectrons: 9.000000  magneticMoment: [ Abs: 0.06000  Tot: +0.06000 ]
SCF: Cycle:  1   F: -28.384443723806477   dF: -2.106e-05   |Residual|: 2.876e-03   |deigs|: 4.583e-03  t[s]:     20.28
	FillingsUpdate:  mu: -0.089342124  nElectrons: 9.000000  magneticMoment: [ Abs: 0.06146  Tot: +0.06000 ]
SCF: Cycle:  2   F: -28.384477049185829   dF: -3.333e-05   |Residual|: 1.163e-03   |deigs|: 3.785e-03  t[s]:     24.17
	FillingsUpdate:  mu: -0.089357074  nElectrons: 9.000000  magneticMoment: [ Abs: 0.06010  Tot: +0.06000 ]
SCF: Cycle:  3   F: -28.384484822315557   dF: -7.773e-06   |Residual|: 7.192e-04   |deigs|: 1.738e-03  t[s]:     28.14
	FillingsUpdate:  mu: -0.089321682  nElectrons: 9.000000  magneticMoment: [ Abs: 0.06009  Tot: +0.06000 ]
SCF: Cycle:  4   F: -28.384489500100553   dF: -4.678e-06   |Residual|: 4.962e-04   |deigs|: 2.077e-03  t[s]:     32.17
	FillingsUpdate:  mu: -0.089258694  nElectrons: 9.000000  magneticMoment: [ Abs: 0.06005  Tot: +0.06000 ]
SCF: Cycle:  5   F: -28.384492570550652   dF: -3.070e-06   |Residual|: 3.502e-04   |deigs|: 1.562e-03  t[s]:     36.19
	FillingsUpdate:  mu: -0.089089396  nElectrons: 9.000000  magneticMoment: [ Abs: 0.06005  Tot: +0.06000 ]
SCF: Cycle:  6   F: -28.384493946856328   dF: -1.376e-06   |Residual|: 2.805e-04   |deigs|: 1.501e-03  t[s]:     40.27
	FillingsUpdate:  mu: -0.088867754  nElectrons: 9.000000  magneticMoment: [ Abs: 0.06022  Tot: +0.06000 ]
SCF: Cycle:  7   F: -28.384494498573581   dF: -5.517e-07   |Residual|: 2.153e-04   |deigs|: 1.027e-03  t[s]:     44.45
	FillingsUpdate:  mu: -0.088716144  nElectrons: 9.000000  magneticMoment: [ Abs: 0.06032  Tot: +0.06000 ]
SCF: Cycle:  8   F: -28.384494601600061   dF: -1.030e-07   |Residual|: 1.838e-04   |deigs|: 4.369e-04  t[s]:     48.72
	FillingsUpdate:  mu: -0.088531916  nElectrons: 9.000000  magneticMoment: [ Abs: 0.06031  Tot: +0.06000 ]
SCF: Cycle:  9   F: -28.384494858035520   dF: -2.564e-07   |Residual|: 1.620e-04   |deigs|: 2.475e-04  t[s]:     52.99
	FillingsUpdate:  mu: -0.088339763  nElectrons: 9.000000  magneticMoment: [ Abs: 0.06027  Tot: +0.06000 ]
SCF: Cycle: 10   F: -28.384495012826438   dF: -1.548e-07   |Residual|: 1.327e-04   |deigs|: 2.278e-04  t[s]:     57.33
	FillingsUpdate:  mu: -0.088135509  nElectrons: 9.000000  magneticMoment: [ Abs: 0.06035  Tot: +0.06000 ]
SCF: Cycle: 11   F: -28.384495063306609   dF: -5.048e-08   |Residual|: 1.146e-04   |deigs|: 1.901e-04  t[s]:     61.70
	FillingsUpdate:  mu: -0.087965214  nElectrons: 9.000000  magneticMoment: [ Abs: 0.06027  Tot: +0.06000 ]
SCF: Cycle: 12   F: -28.384495022527066   dF: +4.078e-08   |Residual|: 1.020e-04   |deigs|: 1.980e-04  t[s]:     66.11
	FillingsUpdate:  mu: -0.087792987  nElectrons: 9.000000  magneticMoment: [ Abs: 0.06018  Tot: +0.06000 ]
SCF: Cycle: 13   F: -28.384494874750839   dF: +1.478e-07   |Residual|: 1.008e-04   |deigs|: 2.394e-04  t[s]:     70.46
	FillingsUpdate:  mu: -0.087608782  nElectrons: 9.000000  magneticMoment: [ Abs: 0.06025  Tot: +0.06000 ]
SCF: Cycle: 14   F: -28.384495135678048   dF: -2.609e-07   |Residual|: 9.092e-05   |deigs|: 2.657e-04  t[s]:     74.79
	FillingsUpdate:  mu: -0.087491575  nElectrons: 9.000000  magneticMoment: [ Abs: 0.06045  Tot: +0.06000 ]
SCF: Cycle: 15   F: -28.384495562171271   dF: -4.265e-07   |Residual|: 8.005e-05   |deigs|: 1.739e-04  t[s]:     79.14
	FillingsUpdate:  mu: -0.087421020  nElectrons: 9.000000  magneticMoment: [ Abs: 0.06022  Tot: +0.06000 ]
SCF: Cycle: 16   F: -28.384495825055684   dF: -2.629e-07   |Residual|: 6.140e-05   |deigs|: 1.940e-04  t[s]:     83.48
	FillingsUpdate:  mu: -0.087341582  nElectrons: 9.000000  magneticMoment: [ Abs: 0.06010  Tot: +0.06000 ]
SCF: Cycle: 17   F: -28.384495949231745   dF: -1.242e-07   |Residual|: 3.695e-05   |deigs|: 1.430e-04  t[s]:     87.82
	FillingsUpdate:  mu: -0.087319079  nElectrons: 9.000000  magneticMoment: [ Abs: 0.06013  Tot: +0.06000 ]
SCF: Cycle: 18   F: -28.384496016662951   dF: -6.743e-08   |Residual|: 2.239e-05   |deigs|: 5.834e-05  t[s]:     92.06
	FillingsUpdate:  mu: -0.087314616  nElectrons: 9.000000  magneticMoment: [ Abs: 0.06011  Tot: +0.06000 ]
SCF: Cycle: 19   F: -28.384496039800400   dF: -2.314e-08   |Residual|: 1.277e-05   |deigs|: 4.028e-05  t[s]:     96.32
	FillingsUpdate:  mu: -0.087310508  nElectrons: 9.000000  magneticMoment: [ Abs: 0.06012  Tot: +0.06000 ]
SCF: Cycle: 20   F: -28.384496055121222   dF: -1.532e-08   |Residual|: 6.686e-06   |deigs|: 4.683e-05  t[s]:    100.63
	FillingsUpdate:  mu: -0.087309344  nElectrons: 9.000000  magneticMoment: [ Abs: 0.06011  Tot: +0.06000 ]
SCF: Cycle: 21   F: -28.384496061947633   dF: -6.826e-09   |Residual|: 4.497e-06   |deigs|: 6.227e-05  t[s]:    104.71
	FillingsUpdate:  mu: -0.087309876  nElectrons: 9.000000  magneticMoment: [ Abs: 0.06010  Tot: +0.06000 ]
SCF: Cycle: 22   F: -28.384496065367706   dF: -3.420e-09   |Residual|: 2.737e-06   |deigs|: 7.543e-05  t[s]:    108.84
SCF: Converged (|Delta E|<1.000000e-08 for 2 iters).


# Ionic positions in lattice coordinates:
ion K   0.000000000000000   0.000000000000000   0.000000000000000 0

# Forces in Lattice coordinates:
force K   0.000000000000000   0.000000000000000   0.000000000000000 0

# Energy components:
   Eewald =      -12.0320174002217755
       EH =       10.7057572308790245
     Eloc =      -29.8998865334241302
      Enl =       -2.7720805318840203
   Epulay =       -0.0000000016982517
      Exc =       -4.2362425138852524
       KE =        9.8499747486072273
-------------------------------------
     Etot =      -28.3844950016271831
       TS =        0.0000010637405220
-------------------------------------
        F =      -28.3844960653677063

IonicMinimize: Iter:   0  F: -28.384496065367706  |grad|_K:  0.000e+00  t[s]:    109.10
IonicMinimize: Converged (|grad|_K<1.000000e-04).

#--- Lowdin population analysis ---
# oxidation-state K +0.026
# magnetic-moments K +0.057

End date and time: Sat Feb  5 23:46:02 2022  (Duration: 0-0:01:49.14)
Done!
scale=4
magnetization=0.06
--------------------------------------------------------------------------
The library attempted to open the following supporting CUDA libraries,
but each of them failed.  CUDA-aware support is disabled.
libcuda.so.1: cannot open shared object file: No such file or directory
libcuda.dylib: cannot open shared object file: No such file or directory
/usr/lib64/libcuda.so.1: cannot open shared object file: No such file or directory
/usr/lib64/libcuda.dylib: cannot open shared object file: No such file or directory
If you are not interested in CUDA-aware support, then run with
--mca opal_warn_on_missing_libcuda 0 to suppress this message.  If you are interested
in CUDA-aware support, then try setting LD_LIBRARY_PATH to the location
of libcuda.so.1 to get passed this issue.
--------------------------------------------------------------------------
--------------------------------------------------------------------------
No OpenFabrics connection schemes reported that they were able to be
used on a specific port.  As such, the openib BTL (OpenFabrics
support) will be disabled for this port.

  Local host:           d-3-7-1
  Local device:         mlx5_1
  Local port:           1
  CPCs attempted:       rdmacm, udcm
--------------------------------------------------------------------------

*************** JDFTx 1.6.0 (git hash 42ebbcc2) ***************

Start date and time: Sat Feb  5 23:46:03 2022
Executable jdftx with command-line: -i Alkali.in
Running on hosts (process indices):  d-3-7-1 (0-18)
Divided in process groups (process indices):  0 (0)  1 (1)  2 (2)  3 (3)  4 (4)  5 (5)  6 (6)  7 (7)  8 (8)  9 (9)  10 (10)  11 (11)  12 (12)  13 (13)  14 (14)  15 (15)  16 (16)  17 (17)  18 (18)
Resource initialization completed at t[s]:      0.00
Run totals: 19 processes, 48 threads, 0 GPUs


Input parsed successfully to the following command list (including defaults):

basis kpoint-dependent
coords-type Lattice
core-overlap-check vector
coulomb-interaction Slab 001
davidson-band-ratio 1.1
dump End None
dump-name $INPUT.$VAR
elec-cutoff 20
elec-eigen-algo Davidson
elec-ex-corr gga-PBE
elec-initial-magnetization 0.060000 yes
elec-smearing Fermi 1e-05
electronic-minimize  \
	dirUpdateScheme      FletcherReeves \
	linminMethod         DirUpdateRecommended \
	nIterations          100 \
	history              15 \
	knormThreshold       0 \
	energyDiffThreshold  1e-08 \
	nEnergyDiff          2 \
	alphaTstart          1 \
	alphaTmin            1e-10 \
	updateTestStepSize   yes \
	alphaTreduceFactor   0.1 \
	alphaTincreaseFactor 3 \
	nAlphaAdjustMax      3 \
	wolfeEnergy          0.0001 \
	wolfeGradient        0.9 \
	fdTest               no
electronic-scf  \
	nIterations	10000 \
	energyDiffThreshold	1e-08 \
	residualThreshold	1e-07 \
	mixFraction	0.5 \
	qMetric	0.8 \
	history	10 \
	nEigSteps	2 \
	eigDiffThreshold	1e-08 \
	mixedVariable	Density \
	qKerker	0.8 \
	qKappa	-1 \
	verbose	no \
	mixFractionMag	1.5
exchange-regularization WignerSeitzTruncated
fluid None
fluid-ex-corr (null) lda-PZ
fluid-gummel-loop 10 1.000000e-05
fluid-minimize  \
	dirUpdateScheme      PolakRibiere \
	linminMethod         DirUpdateRecommended \
	nIterations          100 \
	history              15 \
	knormThreshold       0 \
	energyDiffThreshold  0 \
	nEnergyDiff          2 \
	alphaTstart          1 \
	alphaTmin            1e-10 \
	updateTestStepSize   yes \
	alphaTreduceFactor   0.1 \
	alphaTincreaseFactor 3 \
	nAlphaAdjustMax      3 \
	wolfeEnergy          0.0001 \
	wolfeGradient        0.9 \
	fdTest               no
fluid-solvent H2O 55.338 ScalarEOS \
	epsBulk 78.4 \
	pMol 0.92466 \
	epsInf 1.77 \
	Pvap 1.06736e-10 \
	sigmaBulk 4.62e-05 \
	Rvdw 2.61727 \
	Res 1.42 \
	tauNuc 343133 \
	poleEl 15 7 1
forces-output-coords Positions
ion K   0.000000000000000   0.000000000000000   0.000000000000000 0
ion-species SG15/$ID_ONCV_PBE.upf
ion-width 0
ionic-minimize  \
	dirUpdateScheme      L-BFGS \
	linminMethod         DirUpdateRecommended \
	nIterations          0 \
	history              15 \
	knormThreshold       0.0001 \
	energyDiffThreshold  1e-06 \
	nEnergyDiff          2 \
	alphaTstart          1 \
	alphaTmin            1e-10 \
	updateTestStepSize   yes \
	alphaTreduceFactor   0.1 \
	alphaTincreaseFactor 3 \
	nAlphaAdjustMax      3 \
	wolfeEnergy          0.0001 \
	wolfeGradient        0.9 \
	fdTest               no
kpoint   0.000000000000   0.000000000000   0.000000000000  1.00000000000000
kpoint-folding 12 12 1 
latt-move-scale 1 1 1
latt-scale 4 4 1 
lattice  \
	   4.727486978767153   -2.363743489383575    0.000000000000000  \
	  -0.000000000000000    4.094123819672498    0.000000000000000  \
	   0.000000000000000    0.000000000000000   40.000000000000000 
lattice-minimize  \
	dirUpdateScheme      L-BFGS \
	linminMethod         DirUpdateRecommended \
	nIterations          0 \
	history              15 \
	knormThreshold       0 \
	energyDiffThreshold  1e-06 \
	nEnergyDiff          2 \
	alphaTstart          1 \
	alphaTmin            1e-10 \
	updateTestStepSize   yes \
	alphaTreduceFactor   0.1 \
	alphaTincreaseFactor 3 \
	nAlphaAdjustMax      3 \
	wolfeEnergy          0.0001 \
	wolfeGradient        0.9 \
	fdTest               no
lcao-params -1 1e-06 1e-05
pcm-variant GLSSA13
spintype z-spin
subspace-rotation-factor 1 yes
symmetries automatic
symmetry-threshold 0.0001



---------- Setting up symmetries ----------

Found 24 point-group symmetries of the bravais lattice
Found 24 space-group symmetries with basis
Applied RMS atom displacement 0 bohrs to make symmetries exact.

---------- Initializing the Grid ----------
R = 
[      18.9099     -9.45497            0  ]
[            0      16.3765            0  ]
[            0            0           40  ]
unit cell volume = 12387.1
G =
[   0.332269   0.191835         -0  ]
[          0   0.383671         -0  ]
[         -0         -0    0.15708  ]
Minimum fftbox size, Smin = [  80  80  164  ]
Chosen fftbox size, S = [  80  80  168  ]

---------- Exchange Correlation functional ----------
Initalized PBE GGA exchange.
Initalized PBE GGA correlation.

---------- Setting up pseudopotentials ----------
Width of ionic core gaussian charges (only for fluid interactions / plotting) set to 0

Reading pseudopotential file '/home/gridsan/aligho/DFT/build-Nov24/pseudopotentials/SG15/K_ONCV_PBE.upf':
  'K' pseudopotential, 'PBE' functional
  Generated using ONCVPSP code by D. R. Hamann
  Author: Martin Schlipf and Francois Gygi  Date: 150915.
  9 valence electrons, 3 orbitals, 6 projectors, 2222 radial grid points, with lMax = 2
  Transforming local potential to a uniform radial grid of dG=0.02 with 1489 points.
  Transforming nonlocal projectors to a uniform radial grid of dG=0.02 with 432 points.
    3S    l: 0   occupation:  2.0   eigenvalue: -1.298836
    3P    l: 1   occupation:  6.0   eigenvalue: -0.691386
    4S    l: 0   occupation:  1.0   eigenvalue: -0.085223
  Transforming atomic orbitals to a uniform radial grid of dG=0.02 with 432 points.
  Core radius for overlap checks: 2.06 bohrs.
  Reading pulay file /home/gridsan/aligho/DFT/build-Nov24/pseudopotentials/SG15/K_ONCV_PBE.pulay ... using dE_dnG = -1.597219e-05 computed for Ecut = 20.

Initialized 1 species with 1 total atoms.

Folded 1 k-points by 12x12x1 to 144 k-points.

---------- Setting up k-points, bands, fillings ----------
Reduced to 19 k-points under symmetry. 
Computing the number of bands and number of electrons
Calculating initial fillings.
nElectrons:   9.000000   nBands: 6   nStates: 38

----- Setting up reduced wavefunction bases (one per k-point) -----
average nbasis = 52924.021 , ideal nbasis = 52918.836

---------- Setting up coulomb interaction ----------
Initialized slab truncation along lattice direction 001

---------- Setting up 2D ewald sum ----------
Optimum gaussian width for ewald sums = 10.498040 bohr.
Real space sums over 289 unit cells with max indices [  8  8  0  ]
Reciprocal space sums over 81 terms with max indices [  4  4  0  ]

---------- Allocating electronic variables ----------
Initializing wave functions:  linear combination of atomic orbitals
Note: number of bands (6) exceeds available atomic orbitals (5)
K pseudo-atom occupations:   s ( 2 1 )  p ( 6 )
[d-3-7-1:73996] 18 more processes have sent help message help-mpi-common-cuda.txt / dlopen failed
[d-3-7-1:73996] Set MCA parameter "orte_base_help_aggregate" to 0 to see all help / error messages
[d-3-7-1:73996] 18 more processes have sent help message help-mpi-btl-openib-cpc-base.txt / no cpcs for port
	FillingsUpdate:  mu: -0.085762713  nElectrons: 9.000000  magneticMoment: [ Abs: 0.06000  Tot: +0.06000 ]
LCAOMinimize: Iter:   0  F: -28.3773478547510862  |grad|_K:  3.905e-06  alpha:  1.000e+00
	FillingsUpdate:  mu: -0.085761921  nElectrons: 9.000000  magneticMoment: [ Abs: 0.06000  Tot: +0.06000 ]
LCAOMinimize: Iter:   1  F: -28.3773478650602726  |grad|_K:  1.646e-08  alpha:  9.886e-01  linmin: -7.126e-03  cgtest:  3.054e-01  t[s]:     15.16
LCAOMinimize: Encountered beta<0, resetting CG.
LCAOMinimize: 	Wrong curvature in test step, increasing alphaT to 2.965676e+00.
	FillingsUpdate:  mu: -0.085761920  nElectrons: 9.000000  magneticMoment: [ Abs: 0.06000  Tot: +0.06000 ]
LCAOMinimize: Iter:   2  F: -28.3773478650606528  |grad|_K:  1.931e-10  alpha: -1.274e+01  linmin: -1.447e-02  cgtest:  9.980e-01  t[s]:     19.19
LCAOMinimize: Encountered beta<0, resetting CG.
LCAOMinimize: Converged (|Delta F|<1.000000e-06 for 2 iters).


---- Citations for features of the code used in this run ----

   Software package:
      R. Sundararaman, K. Letchworth-Weaver, K.A. Schwarz, D. Gunceler, Y. Ozhabes and T.A. Arias, 'JDFTx: software for joint density-functional theory', SoftwareX 6, 278 (2017)

   gga-PBE exchange-correlation functional:
      J.P. Perdew, K. Burke and M. Ernzerhof, Phys. Rev. Lett. 77, 3865 (1996)

   Pseudopotentials:
      M Schlipf and F Gygi, Comput. Phys. Commun. 196, 36 (2015)

   Truncated Coulomb potentials:
      R. Sundararaman and T.A. Arias, Phys. Rev. B 87, 165122 (2013)

This list may not be complete. Please suggest additional citations or
report any other bugs at https://github.com/shankar1729/jdftx/issues

Initialization completed successfully at t[s]:     19.45


-------- Electronic minimization -----------
Will mix electronic density at each iteration.
	FillingsUpdate:  mu: -0.085761920  nElectrons: 9.000000  magneticMoment: [ Abs: 0.06000  Tot: +0.06000 ]
	FillingsUpdate:  mu: -0.085832252  nElectrons: 9.000000  magneticMoment: [ Abs: 0.06000  Tot: +0.06000 ]
SCF: Cycle:  0   F: -28.377430033554656   dF: -8.217e-05   |Residual|: 5.321e-04   |deigs|: 1.763e-01  t[s]:     27.66
	FillingsUpdate:  mu: -0.085871468  nElectrons: 9.000000  magneticMoment: [ Abs: 0.06007  Tot: +0.06000 ]
SCF: Cycle:  1   F: -28.377430802077040   dF: -7.685e-07   |Residual|: 4.120e-04   |deigs|: 4.381e-03  t[s]:     34.13
	FillingsUpdate:  mu: -0.085957123  nElectrons: 9.000000  magneticMoment: [ Abs: 0.06016  Tot: +0.06000 ]
SCF: Cycle:  2   F: -28.377431166541545   dF: -3.645e-07   |Residual|: 2.946e-04   |deigs|: 1.581e-03  t[s]:     40.68
	FillingsUpdate:  mu: -0.086049135  nElectrons: 9.000000  magneticMoment: [ Abs: 0.06018  Tot: +0.06000 ]
SCF: Cycle:  3   F: -28.377431528894750   dF: -3.624e-07   |Residual|: 2.000e-04   |deigs|: 6.531e-04  t[s]:     47.42
	FillingsUpdate:  mu: -0.086141563  nElectrons: 9.000000  magneticMoment: [ Abs: 0.06017  Tot: +0.06000 ]
SCF: Cycle:  4   F: -28.377431840707629   dF: -3.118e-07   |Residual|: 1.284e-04   |deigs|: 7.004e-04  t[s]:     54.19
	FillingsUpdate:  mu: -0.086159491  nElectrons: 9.000000  magneticMoment: [ Abs: 0.06022  Tot: +0.06000 ]
SCF: Cycle:  5   F: -28.377432015193758   dF: -1.745e-07   |Residual|: 9.569e-05   |deigs|: 3.623e-04  t[s]:     61.11
	FillingsUpdate:  mu: -0.086157016  nElectrons: 9.000000  magneticMoment: [ Abs: 0.06017  Tot: +0.06000 ]
SCF: Cycle:  6   F: -28.377432174478109   dF: -1.593e-07   |Residual|: 5.673e-05   |deigs|: 5.176e-04  t[s]:     68.08
	FillingsUpdate:  mu: -0.086148755  nElectrons: 9.000000  magneticMoment: [ Abs: 0.06016  Tot: +0.06000 ]
SCF: Cycle:  7   F: -28.377432229029477   dF: -5.455e-08   |Residual|: 4.255e-05   |deigs|: 4.530e-04  t[s]:     75.28
	FillingsUpdate:  mu: -0.086130138  nElectrons: 9.000000  magneticMoment: [ Abs: 0.06015  Tot: +0.06000 ]
SCF: Cycle:  8   F: -28.377432267079982   dF: -3.805e-08   |Residual|: 2.580e-05   |deigs|: 2.263e-04  t[s]:     82.63
	FillingsUpdate:  mu: -0.086122302  nElectrons: 9.000000  magneticMoment: [ Abs: 0.06013  Tot: +0.06000 ]
SCF: Cycle:  9   F: -28.377432281621875   dF: -1.454e-08   |Residual|: 2.217e-05   |deigs|: 8.914e-05  t[s]:     90.05
	FillingsUpdate:  mu: -0.086110943  nElectrons: 9.000000  magneticMoment: [ Abs: 0.06017  Tot: +0.06000 ]
SCF: Cycle: 10   F: -28.377432287739527   dF: -6.118e-09   |Residual|: 1.747e-05   |deigs|: 4.662e-05  t[s]:     97.51
	FillingsUpdate:  mu: -0.086094225  nElectrons: 9.000000  magneticMoment: [ Abs: 0.06017  Tot: +0.06000 ]
SCF: Cycle: 11   F: -28.377432279905783   dF: +7.834e-09   |Residual|: 1.692e-05   |deigs|: 5.950e-05  t[s]:    105.06
	FillingsUpdate:  mu: -0.086082545  nElectrons: 9.000000  magneticMoment: [ Abs: 0.06015  Tot: +0.06000 ]
SCF: Cycle: 12   F: -28.377432273565514   dF: +6.340e-09   |Residual|: 1.533e-05   |deigs|: 7.465e-05  t[s]:    112.52
	FillingsUpdate:  mu: -0.086065951  nElectrons: 9.000000  magneticMoment: [ Abs: 0.06015  Tot: +0.06000 ]
SCF: Cycle: 13   F: -28.377432274501661   dF: -9.361e-10   |Residual|: 1.340e-05   |deigs|: 7.459e-05  t[s]:    119.98
	FillingsUpdate:  mu: -0.086055165  nElectrons: 9.000000  magneticMoment: [ Abs: 0.06014  Tot: +0.06000 ]
SCF: Cycle: 14   F: -28.377432268735554   dF: +5.766e-09   |Residual|: 1.278e-05   |deigs|: 5.931e-05  t[s]:    127.40
	FillingsUpdate:  mu: -0.086036033  nElectrons: 9.000000  magneticMoment: [ Abs: 0.06015  Tot: +0.06000 ]
SCF: Cycle: 15   F: -28.377432245497115   dF: +2.324e-08   |Residual|: 1.132e-05   |deigs|: 4.250e-05  t[s]:    134.93
	FillingsUpdate:  mu: -0.086021557  nElectrons: 9.000000  magneticMoment: [ Abs: 0.06016  Tot: +0.06000 ]
SCF: Cycle: 16   F: -28.377432274506969   dF: -2.901e-08   |Residual|: 1.018e-05   |deigs|: 2.841e-05  t[s]:    141.70
	FillingsUpdate:  mu: -0.086010929  nElectrons: 9.000000  magneticMoment: [ Abs: 0.06013  Tot: +0.06000 ]
SCF: Cycle: 17   F: -28.377432265765155   dF: +8.742e-09   |Residual|: 8.964e-06   |deigs|: 2.911e-05  t[s]:    148.68
	FillingsUpdate:  mu: -0.086003207  nElectrons: 9.000000  magneticMoment: [ Abs: 0.06013  Tot: +0.06000 ]
SCF: Cycle: 18   F: -28.377432294263112   dF: -2.850e-08   |Residual|: 7.041e-06   |deigs|: 4.641e-05  t[s]:    155.95
	FillingsUpdate:  mu: -0.085998979  nElectrons: 9.000000  magneticMoment: [ Abs: 0.06014  Tot: +0.06000 ]
SCF: Cycle: 19   F: -28.377432294676261   dF: -4.131e-10   |Residual|: 5.758e-06   |deigs|: 6.828e-05  t[s]:    162.87
	FillingsUpdate:  mu: -0.085995962  nElectrons: 9.000000  magneticMoment: [ Abs: 0.06013  Tot: +0.06000 ]
SCF: Cycle: 20   F: -28.377432314690715   dF: -2.001e-08   |Residual|: 4.153e-06   |deigs|: 8.053e-05  t[s]:    170.39
	FillingsUpdate:  mu: -0.085993965  nElectrons: 9.000000  magneticMoment: [ Abs: 0.06013  Tot: +0.06000 ]
SCF: Cycle: 21   F: -28.377432319532691   dF: -4.842e-09   |Residual|: 3.137e-06   |deigs|: 6.760e-05  t[s]:    177.28
	FillingsUpdate:  mu: -0.085992060  nElectrons: 9.000000  magneticMoment: [ Abs: 0.06013  Tot: +0.06000 ]
SCF: Cycle: 22   F: -28.377432321459381   dF: -1.927e-09   |Residual|: 2.215e-06   |deigs|: 4.795e-05  t[s]:    184.26
SCF: Converged (|Delta E|<1.000000e-08 for 2 iters).


# Ionic positions in lattice coordinates:
ion K   0.000000000000000   0.000000000000000   0.000000000000000 0

# Forces in Lattice coordinates:
force K   0.000000000000000   0.000000000000000   0.000000000000000 0

# Energy components:
   Eewald =       -9.0240130501663280
       EH =       13.7546331901195007
     Eloc =      -35.9634326921498513
      Enl =       -2.7673866272164385
   Epulay =        0.0000000066859396
      Exc =       -4.2385447059771071
       KE =        9.8613126209882136
-------------------------------------
     Etot =      -28.3774312577160686
       TS =        0.0000010637433111
-------------------------------------
        F =      -28.3774323214593807

IonicMinimize: Iter:   0  F: -28.377432321459381  |grad|_K:  0.000e+00  t[s]:    184.69
IonicMinimize: Converged (|grad|_K<1.000000e-04).

#--- Lowdin population analysis ---
# oxidation-state K +0.001
# magnetic-moments K +0.060

End date and time: Sat Feb  5 23:49:08 2022  (Duration: 0-0:03:04.76)
Done!
