The alkali metal is K
scale=2
magnetization=-0.1
--------------------------------------------------------------------------
The library attempted to open the following supporting CUDA libraries,
but each of them failed.  CUDA-aware support is disabled.
libcuda.so.1: cannot open shared object file: No such file or directory
libcuda.dylib: cannot open shared object file: No such file or directory
/usr/lib64/libcuda.so.1: cannot open shared object file: No such file or directory
/usr/lib64/libcuda.dylib: cannot open shared object file: No such file or directory
If you are not interested in CUDA-aware support, then run with
--mca opal_warn_on_missing_libcuda 0 to suppress this message.  If you are interested
in CUDA-aware support, then try setting LD_LIBRARY_PATH to the location
of libcuda.so.1 to get passed this issue.
--------------------------------------------------------------------------
--------------------------------------------------------------------------
No OpenFabrics connection schemes reported that they were able to be
used on a specific port.  As such, the openib BTL (OpenFabrics
support) will be disabled for this port.

  Local host:           d-4-7-2
  Local device:         mlx5_1
  Local port:           1
  CPCs attempted:       rdmacm, udcm
--------------------------------------------------------------------------

*************** JDFTx 1.6.0 (git hash 42ebbcc2) ***************

Start date and time: Sat Feb  5 23:37:22 2022
Executable jdftx with command-line: -i Alkali.in
Running on hosts (process indices):  d-4-7-2 (0-18)
Divided in process groups (process indices):  0 (0)  1 (1)  2 (2)  3 (3)  4 (4)  5 (5)  6 (6)  7 (7)  8 (8)  9 (9)  10 (10)  11 (11)  12 (12)  13 (13)  14 (14)  15 (15)  16 (16)  17 (17)  18 (18)
Resource initialization completed at t[s]:      0.00
Run totals: 19 processes, 48 threads, 0 GPUs


Input parsed successfully to the following command list (including defaults):

basis kpoint-dependent
coords-type Lattice
core-overlap-check vector
coulomb-interaction Slab 001
davidson-band-ratio 1.1
dump End None
dump-name $INPUT.$VAR
elec-cutoff 20
elec-eigen-algo Davidson
elec-ex-corr gga-PBE
elec-initial-magnetization -0.100000 yes
elec-smearing Fermi 1e-05
electronic-minimize  \
	dirUpdateScheme      FletcherReeves \
	linminMethod         DirUpdateRecommended \
	nIterations          100 \
	history              15 \
	knormThreshold       0 \
	energyDiffThreshold  1e-08 \
	nEnergyDiff          2 \
	alphaTstart          1 \
	alphaTmin            1e-10 \
	updateTestStepSize   yes \
	alphaTreduceFactor   0.1 \
	alphaTincreaseFactor 3 \
	nAlphaAdjustMax      3 \
	wolfeEnergy          0.0001 \
	wolfeGradient        0.9 \
	fdTest               no
electronic-scf  \
	nIterations	10000 \
	energyDiffThreshold	1e-08 \
	residualThreshold	1e-07 \
	mixFraction	0.5 \
	qMetric	0.8 \
	history	10 \
	nEigSteps	2 \
	eigDiffThreshold	1e-08 \
	mixedVariable	Density \
	qKerker	0.8 \
	qKappa	-1 \
	verbose	no \
	mixFractionMag	1.5
exchange-regularization WignerSeitzTruncated
fluid None
fluid-ex-corr (null) lda-PZ
fluid-gummel-loop 10 1.000000e-05
fluid-minimize  \
	dirUpdateScheme      PolakRibiere \
	linminMethod         DirUpdateRecommended \
	nIterations          100 \
	history              15 \
	knormThreshold       0 \
	energyDiffThreshold  0 \
	nEnergyDiff          2 \
	alphaTstart          1 \
	alphaTmin            1e-10 \
	updateTestStepSize   yes \
	alphaTreduceFactor   0.1 \
	alphaTincreaseFactor 3 \
	nAlphaAdjustMax      3 \
	wolfeEnergy          0.0001 \
	wolfeGradient        0.9 \
	fdTest               no
fluid-solvent H2O 55.338 ScalarEOS \
	epsBulk 78.4 \
	pMol 0.92466 \
	epsInf 1.77 \
	Pvap 1.06736e-10 \
	sigmaBulk 4.62e-05 \
	Rvdw 2.61727 \
	Res 1.42 \
	tauNuc 343133 \
	poleEl 15 7 1
forces-output-coords Positions
ion K   0.000000000000000   0.000000000000000   0.000000000000000 0
ion-species SG15/$ID_ONCV_PBE.upf
ion-width 0
ionic-minimize  \
	dirUpdateScheme      L-BFGS \
	linminMethod         DirUpdateRecommended \
	nIterations          0 \
	history              15 \
	knormThreshold       0.0001 \
	energyDiffThreshold  1e-06 \
	nEnergyDiff          2 \
	alphaTstart          1 \
	alphaTmin            1e-10 \
	updateTestStepSize   yes \
	alphaTreduceFactor   0.1 \
	alphaTincreaseFactor 3 \
	nAlphaAdjustMax      3 \
	wolfeEnergy          0.0001 \
	wolfeGradient        0.9 \
	fdTest               no
kpoint   0.000000000000   0.000000000000   0.000000000000  1.00000000000000
kpoint-folding 12 12 1 
latt-move-scale 1 1 1
latt-scale 2 2 1 
lattice  \
	   4.727486978767153   -2.363743489383575    0.000000000000000  \
	  -0.000000000000000    4.094123819672498    0.000000000000000  \
	   0.000000000000000    0.000000000000000   40.000000000000000 
lattice-minimize  \
	dirUpdateScheme      L-BFGS \
	linminMethod         DirUpdateRecommended \
	nIterations          0 \
	history              15 \
	knormThreshold       0 \
	energyDiffThreshold  1e-06 \
	nEnergyDiff          2 \
	alphaTstart          1 \
	alphaTmin            1e-10 \
	updateTestStepSize   yes \
	alphaTreduceFactor   0.1 \
	alphaTincreaseFactor 3 \
	nAlphaAdjustMax      3 \
	wolfeEnergy          0.0001 \
	wolfeGradient        0.9 \
	fdTest               no
lcao-params -1 1e-06 1e-05
pcm-variant GLSSA13
spintype z-spin
subspace-rotation-factor 1 yes
symmetries automatic
symmetry-threshold 0.0001



---------- Setting up symmetries ----------

Found 24 point-group symmetries of the bravais lattice
Found 24 space-group symmetries with basis
Applied RMS atom displacement 0 bohrs to make symmetries exact.

---------- Initializing the Grid ----------
R = 
[      9.45497     -4.72749            0  ]
[            0      8.18825            0  ]
[            0            0           40  ]
unit cell volume = 3096.79
G =
[   0.664538   0.383671         -0  ]
[          0   0.767342         -0  ]
[         -0         -0    0.15708  ]
Minimum fftbox size, Smin = [  40  40  164  ]
Chosen fftbox size, S = [  40  40  168  ]

---------- Exchange Correlation functional ----------
Initalized PBE GGA exchange.
Initalized PBE GGA correlation.

---------- Setting up pseudopotentials ----------
Width of ionic core gaussian charges (only for fluid interactions / plotting) set to 0

Reading pseudopotential file '/home/gridsan/aligho/DFT/build-Nov24/pseudopotentials/SG15/K_ONCV_PBE.upf':
  'K' pseudopotential, 'PBE' functional
  Generated using ONCVPSP code by D. R. Hamann
  Author: Martin Schlipf and Francois Gygi  Date: 150915.
  9 valence electrons, 3 orbitals, 6 projectors, 2222 radial grid points, with lMax = 2
  Transforming local potential to a uniform radial grid of dG=0.02 with 1489 points.
  Transforming nonlocal projectors to a uniform radial grid of dG=0.02 with 432 points.
    3S    l: 0   occupation:  2.0   eigenvalue: -1.298836
    3P    l: 1   occupation:  6.0   eigenvalue: -0.691386
    4S    l: 0   occupation:  1.0   eigenvalue: -0.085223
  Transforming atomic orbitals to a uniform radial grid of dG=0.02 with 432 points.
  Core radius for overlap checks: 2.06 bohrs.
  Reading pulay file /home/gridsan/aligho/DFT/build-Nov24/pseudopotentials/SG15/K_ONCV_PBE.pulay ... using dE_dnG = -1.597219e-05 computed for Ecut = 20.

Initialized 1 species with 1 total atoms.

Folded 1 k-points by 12x12x1 to 144 k-points.

---------- Setting up k-points, bands, fillings ----------
Reduced to 19 k-points under symmetry. 
Computing the number of bands and number of electrons
Calculating initial fillings.
nElectrons:   9.000000   nBands: 6   nStates: 38

----- Setting up reduced wavefunction bases (one per k-point) -----
average nbasis = 13230.521 , ideal nbasis = 13229.709

---------- Setting up coulomb interaction ----------
Initialized slab truncation along lattice direction 001

---------- Setting up 2D ewald sum ----------
Optimum gaussian width for ewald sums = 5.249020 bohr.
Real space sums over 289 unit cells with max indices [  8  8  0  ]
Reciprocal space sums over 81 terms with max indices [  4  4  0  ]

---------- Allocating electronic variables ----------
Initializing wave functions:  linear combination of atomic orbitals
Note: number of bands (6) exceeds available atomic orbitals (5)
K pseudo-atom occupations:   s ( 2 1 )  p ( 6 )
	FillingsUpdate:  mu: -0.096286336  nElectrons: 9.000000  magneticMoment: [ Abs: 0.10000  Tot: -0.10000 ]
LCAOMinimize: Iter:   0  F: -28.3987766056093633  |grad|_K:  4.316e-05  alpha:  1.000e+00
	FillingsUpdate:  mu: -0.096274357  nElectrons: 9.000000  magneticMoment: [ Abs: 0.10000  Tot: -0.10000 ]
LCAOMinimize: Iter:   1  F: -28.3987778514455336  |grad|_K:  4.362e-07  alpha:  9.781e-01  linmin: -3.626e-02  cgtest:  5.938e-01  t[s]:      4.55
LCAOMinimize: Encountered beta<0, resetting CG.
[d-4-7-2:86344] 18 more processes have sent help message help-mpi-common-cuda.txt / dlopen failed
[d-4-7-2:86344] Set MCA parameter "orte_base_help_aggregate" to 0 to see all help / error messages
[d-4-7-2:86344] 18 more processes have sent help message help-mpi-btl-openib-cpc-base.txt / no cpcs for port
	FillingsUpdate:  mu: -0.096274379  nElectrons: 9.000000  magneticMoment: [ Abs: 0.10000  Tot: -0.10000 ]
LCAOMinimize: Iter:   2  F: -28.3987778515755700  |grad|_K:  1.625e-09  alpha:  1.000e+00  linmin: -5.588e-03  cgtest:  4.541e-02  t[s]:      5.77
LCAOMinimize: Encountered beta<0, resetting CG.
LCAOMinimize: 	Wrong curvature in test step, increasing alphaT to 3.000727e+00.
	FillingsUpdate:  mu: -0.096274380  nElectrons: 9.000000  magneticMoment: [ Abs: 0.10000  Tot: -0.10000 ]
LCAOMinimize: Iter:   3  F: -28.3987778515757689  |grad|_K:  3.210e-11  alpha: -9.247e-03  linmin:  6.353e-02  cgtest: -9.624e-01  t[s]:      7.01
LCAOMinimize: Converged (|Delta F|<1.000000e-06 for 2 iters).


---- Citations for features of the code used in this run ----

   Software package:
      R. Sundararaman, K. Letchworth-Weaver, K.A. Schwarz, D. Gunceler, Y. Ozhabes and T.A. Arias, 'JDFTx: software for joint density-functional theory', SoftwareX 6, 278 (2017)

   gga-PBE exchange-correlation functional:
      J.P. Perdew, K. Burke and M. Ernzerhof, Phys. Rev. Lett. 77, 3865 (1996)

   Pseudopotentials:
      M Schlipf and F Gygi, Comput. Phys. Commun. 196, 36 (2015)

   Truncated Coulomb potentials:
      R. Sundararaman and T.A. Arias, Phys. Rev. B 87, 165122 (2013)

This list may not be complete. Please suggest additional citations or
report any other bugs at https://github.com/shankar1729/jdftx/issues

Initialization completed successfully at t[s]:      7.10


-------- Electronic minimization -----------
Will mix electronic density at each iteration.
	FillingsUpdate:  mu: -0.096274380  nElectrons: 9.000000  magneticMoment: [ Abs: 0.10000  Tot: -0.10000 ]
	FillingsUpdate:  mu: -0.106601299  nElectrons: 9.000000  magneticMoment: [ Abs: 0.10000  Tot: -0.10000 ]
SCF: Cycle:  0   F: -28.403456008295528   dF: -4.678e-03   |Residual|: 8.004e-03   |deigs|: 1.749e-01  t[s]:      9.53
	FillingsUpdate:  mu: -0.106406054  nElectrons: 9.000000  magneticMoment: [ Abs: 0.10000  Tot: -0.10000 ]
SCF: Cycle:  1   F: -28.403554108101385   dF: -9.810e-05   |Residual|: 6.404e-03   |deigs|: 4.898e-03  t[s]:     11.36
	FillingsUpdate:  mu: -0.104302776  nElectrons: 9.000000  magneticMoment: [ Abs: 0.10465  Tot: -0.10000 ]
SCF: Cycle:  2   F: -28.403601111121255   dF: -4.700e-05   |Residual|: 2.537e-03   |deigs|: 4.222e-03  t[s]:     13.21
	FillingsUpdate:  mu: -0.103518826  nElectrons: 9.000000  magneticMoment: [ Abs: 0.10004  Tot: -0.10000 ]
SCF: Cycle:  3   F: -28.403641044405809   dF: -3.993e-05   |Residual|: 1.860e-03   |deigs|: 4.151e-03  t[s]:     15.07
	FillingsUpdate:  mu: -0.102179529  nElectrons: 9.000000  magneticMoment: [ Abs: 0.10040  Tot: -0.10000 ]
SCF: Cycle:  4   F: -28.403661202108172   dF: -2.016e-05   |Residual|: 1.553e-03   |deigs|: 4.088e-03  t[s]:     16.99
	FillingsUpdate:  mu: -0.100137933  nElectrons: 9.000000  magneticMoment: [ Abs: 0.10240  Tot: -0.10000 ]
SCF: Cycle:  5   F: -28.403671961280608   dF: -1.076e-05   |Residual|: 1.122e-03   |deigs|: 3.832e-03  t[s]:     18.93
	FillingsUpdate:  mu: -0.098667244  nElectrons: 9.000000  magneticMoment: [ Abs: 0.10278  Tot: -0.10000 ]
SCF: Cycle:  6   F: -28.403685755644091   dF: -1.379e-05   |Residual|: 8.938e-04   |deigs|: 2.201e-03  t[s]:     20.87
	FillingsUpdate:  mu: -0.098157994  nElectrons: 9.000000  magneticMoment: [ Abs: 0.10125  Tot: -0.10000 ]
SCF: Cycle:  7   F: -28.403701317441222   dF: -1.556e-05   |Residual|: 7.390e-04   |deigs|: 1.793e-03  t[s]:     22.86
	FillingsUpdate:  mu: -0.097272647  nElectrons: 9.000000  magneticMoment: [ Abs: 0.10101  Tot: -0.10000 ]
SCF: Cycle:  8   F: -28.403712162828501   dF: -1.085e-05   |Residual|: 6.004e-04   |deigs|: 8.515e-04  t[s]:     24.84
	FillingsUpdate:  mu: -0.096110905  nElectrons: 9.000000  magneticMoment: [ Abs: 0.10146  Tot: -0.10000 ]
SCF: Cycle:  9   F: -28.403707316167822   dF: +4.847e-06   |Residual|: 5.133e-04   |deigs|: 1.214e-03  t[s]:     26.85
	FillingsUpdate:  mu: -0.095025086  nElectrons: 9.000000  magneticMoment: [ Abs: 0.10145  Tot: -0.10000 ]
SCF: Cycle: 10   F: -28.403709931532095   dF: -2.615e-06   |Residual|: 4.869e-04   |deigs|: 1.234e-03  t[s]:     28.91
	FillingsUpdate:  mu: -0.094108855  nElectrons: 9.000000  magneticMoment: [ Abs: 0.10071  Tot: -0.10000 ]
SCF: Cycle: 11   F: -28.403719440531706   dF: -9.509e-06   |Residual|: 4.240e-04   |deigs|: 1.075e-03  t[s]:     30.96
	FillingsUpdate:  mu: -0.092992872  nElectrons: 9.000000  magneticMoment: [ Abs: 0.10158  Tot: -0.10000 ]
SCF: Cycle: 12   F: -28.403726301876485   dF: -6.861e-06   |Residual|: 3.967e-04   |deigs|: 1.077e-03  t[s]:     32.97
	FillingsUpdate:  mu: -0.091865622  nElectrons: 9.000000  magneticMoment: [ Abs: 0.10149  Tot: -0.10000 ]
SCF: Cycle: 13   F: -28.403730240830935   dF: -3.939e-06   |Residual|: 3.671e-04   |deigs|: 1.210e-03  t[s]:     34.95
	FillingsUpdate:  mu: -0.090971969  nElectrons: 9.000000  magneticMoment: [ Abs: 0.10048  Tot: -0.10000 ]
SCF: Cycle: 14   F: -28.403733333191056   dF: -3.092e-06   |Residual|: 3.029e-04   |deigs|: 9.538e-04  t[s]:     36.98
	FillingsUpdate:  mu: -0.090501276  nElectrons: 9.000000  magneticMoment: [ Abs: 0.10020  Tot: -0.10000 ]
SCF: Cycle: 15   F: -28.403734916420682   dF: -1.583e-06   |Residual|: 2.243e-04   |deigs|: 5.113e-04  t[s]:     39.02
	FillingsUpdate:  mu: -0.090217179  nElectrons: 9.000000  magneticMoment: [ Abs: 0.10040  Tot: -0.10000 ]
SCF: Cycle: 16   F: -28.403735981374194   dF: -1.065e-06   |Residual|: 1.240e-04   |deigs|: 3.339e-04  t[s]:     41.13
	FillingsUpdate:  mu: -0.090018122  nElectrons: 9.000000  magneticMoment: [ Abs: 0.10012  Tot: -0.10000 ]
SCF: Cycle: 17   F: -28.403736260281910   dF: -2.789e-07   |Residual|: 7.593e-05   |deigs|: 3.354e-04  t[s]:     43.08
	FillingsUpdate:  mu: -0.089981063  nElectrons: 9.000000  magneticMoment: [ Abs: 0.10009  Tot: -0.10000 ]
SCF: Cycle: 18   F: -28.403736416763227   dF: -1.565e-07   |Residual|: 4.759e-05   |deigs|: 1.905e-04  t[s]:     45.21
	FillingsUpdate:  mu: -0.089951943  nElectrons: 9.000000  magneticMoment: [ Abs: 0.10008  Tot: -0.10000 ]
SCF: Cycle: 19   F: -28.403736499591218   dF: -8.283e-08   |Residual|: 2.876e-05   |deigs|: 1.079e-04  t[s]:     47.20
	FillingsUpdate:  mu: -0.089955838  nElectrons: 9.000000  magneticMoment: [ Abs: 0.10005  Tot: -0.10000 ]
SCF: Cycle: 20   F: -28.403736543229517   dF: -4.364e-08   |Residual|: 1.492e-05   |deigs|: 7.314e-05  t[s]:     49.18
	FillingsUpdate:  mu: -0.089951564  nElectrons: 9.000000  magneticMoment: [ Abs: 0.10004  Tot: -0.10000 ]
SCF: Cycle: 21   F: -28.403736572362913   dF: -2.913e-08   |Residual|: 6.735e-06   |deigs|: 5.480e-05  t[s]:     51.15
	FillingsUpdate:  mu: -0.089950264  nElectrons: 9.000000  magneticMoment: [ Abs: 0.10004  Tot: -0.10000 ]
SCF: Cycle: 22   F: -28.403736592211306   dF: -1.985e-08   |Residual|: 2.787e-06   |deigs|: 3.983e-05  t[s]:     53.04
	FillingsUpdate:  mu: -0.089945956  nElectrons: 9.000000  magneticMoment: [ Abs: 0.10004  Tot: -0.10000 ]
SCF: Cycle: 23   F: -28.403736605467596   dF: -1.326e-08   |Residual|: 1.966e-06   |deigs|: 3.365e-05  t[s]:     54.84
	FillingsUpdate:  mu: -0.089944201  nElectrons: 9.000000  magneticMoment: [ Abs: 0.10003  Tot: -0.10000 ]
SCF: Cycle: 24   F: -28.403736614505565   dF: -9.038e-09   |Residual|: 1.370e-06   |deigs|: 2.431e-05  t[s]:     56.82
	FillingsUpdate:  mu: -0.089943074  nElectrons: 9.000000  magneticMoment: [ Abs: 0.10003  Tot: -0.10000 ]
SCF: Cycle: 25   F: -28.403736620214300   dF: -5.709e-09   |Residual|: 1.087e-06   |deigs|: 1.623e-05  t[s]:     58.70
SCF: Converged (|Delta E|<1.000000e-08 for 2 iters).


# Ionic positions in lattice coordinates:
ion K   0.000000000000000   0.000000000000000   0.000000000000000 0

# Forces in Lattice coordinates:
force K  -0.000000000000000  -0.000000000000000   0.000000000000000 0

# Energy components:
   Eewald =      -18.0480261003326561
       EH =        4.8668948971151575
     Eloc =      -18.0593184150448991
      Enl =       -2.7736281282449253
   Epulay =        0.0000000041876954
      Exc =       -4.2622672424868036
       KE =        9.8726094620278175
-------------------------------------
     Etot =      -28.4037355227786108
       TS =        0.0000010974356905
-------------------------------------
        F =      -28.4037366202142998

IonicMinimize: Iter:   0  F: -28.403736620214300  |grad|_K:  0.000e+00  t[s]:     58.82
IonicMinimize: Converged (|grad|_K<1.000000e-04).

#--- Lowdin population analysis ---
# oxidation-state K +0.038
# magnetic-moments K -0.089

End date and time: Sat Feb  5 23:38:21 2022  (Duration: 0-0:00:58.84)
Done!
scale=3
magnetization=-0.1
--------------------------------------------------------------------------
The library attempted to open the following supporting CUDA libraries,
but each of them failed.  CUDA-aware support is disabled.
libcuda.so.1: cannot open shared object file: No such file or directory
libcuda.dylib: cannot open shared object file: No such file or directory
/usr/lib64/libcuda.so.1: cannot open shared object file: No such file or directory
/usr/lib64/libcuda.dylib: cannot open shared object file: No such file or directory
If you are not interested in CUDA-aware support, then run with
--mca opal_warn_on_missing_libcuda 0 to suppress this message.  If you are interested
in CUDA-aware support, then try setting LD_LIBRARY_PATH to the location
of libcuda.so.1 to get passed this issue.
--------------------------------------------------------------------------
--------------------------------------------------------------------------
No OpenFabrics connection schemes reported that they were able to be
used on a specific port.  As such, the openib BTL (OpenFabrics
support) will be disabled for this port.

  Local host:           d-4-7-2
  Local device:         mlx5_1
  Local port:           1
  CPCs attempted:       rdmacm, udcm
--------------------------------------------------------------------------

*************** JDFTx 1.6.0 (git hash 42ebbcc2) ***************

Start date and time: Sat Feb  5 23:38:22 2022
Executable jdftx with command-line: -i Alkali.in
Running on hosts (process indices):  d-4-7-2 (0-18)
Divided in process groups (process indices):  0 (0)  1 (1)  2 (2)  3 (3)  4 (4)  5 (5)  6 (6)  7 (7)  8 (8)  9 (9)  10 (10)  11 (11)  12 (12)  13 (13)  14 (14)  15 (15)  16 (16)  17 (17)  18 (18)
Resource initialization completed at t[s]:      0.00
Run totals: 19 processes, 48 threads, 0 GPUs


Input parsed successfully to the following command list (including defaults):

basis kpoint-dependent
coords-type Lattice
core-overlap-check vector
coulomb-interaction Slab 001
davidson-band-ratio 1.1
dump End None
dump-name $INPUT.$VAR
elec-cutoff 20
elec-eigen-algo Davidson
elec-ex-corr gga-PBE
elec-initial-magnetization -0.100000 yes
elec-smearing Fermi 1e-05
electronic-minimize  \
	dirUpdateScheme      FletcherReeves \
	linminMethod         DirUpdateRecommended \
	nIterations          100 \
	history              15 \
	knormThreshold       0 \
	energyDiffThreshold  1e-08 \
	nEnergyDiff          2 \
	alphaTstart          1 \
	alphaTmin            1e-10 \
	updateTestStepSize   yes \
	alphaTreduceFactor   0.1 \
	alphaTincreaseFactor 3 \
	nAlphaAdjustMax      3 \
	wolfeEnergy          0.0001 \
	wolfeGradient        0.9 \
	fdTest               no
electronic-scf  \
	nIterations	10000 \
	energyDiffThreshold	1e-08 \
	residualThreshold	1e-07 \
	mixFraction	0.5 \
	qMetric	0.8 \
	history	10 \
	nEigSteps	2 \
	eigDiffThreshold	1e-08 \
	mixedVariable	Density \
	qKerker	0.8 \
	qKappa	-1 \
	verbose	no \
	mixFractionMag	1.5
exchange-regularization WignerSeitzTruncated
fluid None
fluid-ex-corr (null) lda-PZ
fluid-gummel-loop 10 1.000000e-05
fluid-minimize  \
	dirUpdateScheme      PolakRibiere \
	linminMethod         DirUpdateRecommended \
	nIterations          100 \
	history              15 \
	knormThreshold       0 \
	energyDiffThreshold  0 \
	nEnergyDiff          2 \
	alphaTstart          1 \
	alphaTmin            1e-10 \
	updateTestStepSize   yes \
	alphaTreduceFactor   0.1 \
	alphaTincreaseFactor 3 \
	nAlphaAdjustMax      3 \
	wolfeEnergy          0.0001 \
	wolfeGradient        0.9 \
	fdTest               no
fluid-solvent H2O 55.338 ScalarEOS \
	epsBulk 78.4 \
	pMol 0.92466 \
	epsInf 1.77 \
	Pvap 1.06736e-10 \
	sigmaBulk 4.62e-05 \
	Rvdw 2.61727 \
	Res 1.42 \
	tauNuc 343133 \
	poleEl 15 7 1
forces-output-coords Positions
ion K   0.000000000000000   0.000000000000000   0.000000000000000 0
ion-species SG15/$ID_ONCV_PBE.upf
ion-width 0
ionic-minimize  \
	dirUpdateScheme      L-BFGS \
	linminMethod         DirUpdateRecommended \
	nIterations          0 \
	history              15 \
	knormThreshold       0.0001 \
	energyDiffThreshold  1e-06 \
	nEnergyDiff          2 \
	alphaTstart          1 \
	alphaTmin            1e-10 \
	updateTestStepSize   yes \
	alphaTreduceFactor   0.1 \
	alphaTincreaseFactor 3 \
	nAlphaAdjustMax      3 \
	wolfeEnergy          0.0001 \
	wolfeGradient        0.9 \
	fdTest               no
kpoint   0.000000000000   0.000000000000   0.000000000000  1.00000000000000
kpoint-folding 12 12 1 
latt-move-scale 1 1 1
latt-scale 3 3 1 
lattice  \
	   4.727486978767153   -2.363743489383575    0.000000000000000  \
	  -0.000000000000000    4.094123819672498    0.000000000000000  \
	   0.000000000000000    0.000000000000000   40.000000000000000 
lattice-minimize  \
	dirUpdateScheme      L-BFGS \
	linminMethod         DirUpdateRecommended \
	nIterations          0 \
	history              15 \
	knormThreshold       0 \
	energyDiffThreshold  1e-06 \
	nEnergyDiff          2 \
	alphaTstart          1 \
	alphaTmin            1e-10 \
	updateTestStepSize   yes \
	alphaTreduceFactor   0.1 \
	alphaTincreaseFactor 3 \
	nAlphaAdjustMax      3 \
	wolfeEnergy          0.0001 \
	wolfeGradient        0.9 \
	fdTest               no
lcao-params -1 1e-06 1e-05
pcm-variant GLSSA13
spintype z-spin
subspace-rotation-factor 1 yes
symmetries automatic
symmetry-threshold 0.0001



---------- Setting up symmetries ----------

Found 24 point-group symmetries of the bravais lattice
Found 24 space-group symmetries with basis
Applied RMS atom displacement 0 bohrs to make symmetries exact.

---------- Initializing the Grid ----------
R = 
[      14.1825     -7.09123            0  ]
[            0      12.2824            0  ]
[            0            0           40  ]
unit cell volume = 6967.77
G =
[   0.443025   0.255781         -0  ]
[          0   0.511561         -0  ]
[         -0         -0    0.15708  ]
Minimum fftbox size, Smin = [  60  60  164  ]
Chosen fftbox size, S = [  60  60  168  ]

---------- Exchange Correlation functional ----------
Initalized PBE GGA exchange.
Initalized PBE GGA correlation.

---------- Setting up pseudopotentials ----------
Width of ionic core gaussian charges (only for fluid interactions / plotting) set to 0

Reading pseudopotential file '/home/gridsan/aligho/DFT/build-Nov24/pseudopotentials/SG15/K_ONCV_PBE.upf':
  'K' pseudopotential, 'PBE' functional
  Generated using ONCVPSP code by D. R. Hamann
  Author: Martin Schlipf and Francois Gygi  Date: 150915.
  9 valence electrons, 3 orbitals, 6 projectors, 2222 radial grid points, with lMax = 2
  Transforming local potential to a uniform radial grid of dG=0.02 with 1489 points.
  Transforming nonlocal projectors to a uniform radial grid of dG=0.02 with 432 points.
    3S    l: 0   occupation:  2.0   eigenvalue: -1.298836
    3P    l: 1   occupation:  6.0   eigenvalue: -0.691386
    4S    l: 0   occupation:  1.0   eigenvalue: -0.085223
  Transforming atomic orbitals to a uniform radial grid of dG=0.02 with 432 points.
  Core radius for overlap checks: 2.06 bohrs.
  Reading pulay file /home/gridsan/aligho/DFT/build-Nov24/pseudopotentials/SG15/K_ONCV_PBE.pulay ... using dE_dnG = -1.597219e-05 computed for Ecut = 20.

Initialized 1 species with 1 total atoms.

Folded 1 k-points by 12x12x1 to 144 k-points.

---------- Setting up k-points, bands, fillings ----------
Reduced to 19 k-points under symmetry. 
Computing the number of bands and number of electrons
Calculating initial fillings.
nElectrons:   9.000000   nBands: 6   nStates: 38

----- Setting up reduced wavefunction bases (one per k-point) -----
average nbasis = 29766.104 , ideal nbasis = 29766.845

---------- Setting up coulomb interaction ----------
Initialized slab truncation along lattice direction 001

---------- Setting up 2D ewald sum ----------
Optimum gaussian width for ewald sums = 7.873530 bohr.
Real space sums over 289 unit cells with max indices [  8  8  0  ]
Reciprocal space sums over 81 terms with max indices [  4  4  0  ]

---------- Allocating electronic variables ----------
Initializing wave functions:  linear combination of atomic orbitals
Note: number of bands (6) exceeds available atomic orbitals (5)
K pseudo-atom occupations:   s ( 2 1 )  p ( 6 )
[d-4-7-2:53751] 18 more processes have sent help message help-mpi-common-cuda.txt / dlopen failed
[d-4-7-2:53751] Set MCA parameter "orte_base_help_aggregate" to 0 to see all help / error messages
[d-4-7-2:53751] 18 more processes have sent help message help-mpi-btl-openib-cpc-base.txt / no cpcs for port
	FillingsUpdate:  mu: -0.086364017  nElectrons: 9.000000  magneticMoment: [ Abs: 0.10000  Tot: -0.10000 ]
LCAOMinimize: Iter:   0  F: -28.3829246334782646  |grad|_K:  1.875e-05  alpha:  1.000e+00
	FillingsUpdate:  mu: -0.086360361  nElectrons: 9.000000  magneticMoment: [ Abs: 0.10000  Tot: -0.10000 ]
LCAOMinimize: Iter:   1  F: -28.3829248711346196  |grad|_K:  1.395e-07  alpha:  9.879e-01  linmin: -1.524e-02  cgtest:  4.781e-01  t[s]:      8.84
LCAOMinimize: Encountered beta<0, resetting CG.
	FillingsUpdate:  mu: -0.086360360  nElectrons: 9.000000  magneticMoment: [ Abs: 0.10000  Tot: -0.10000 ]
LCAOMinimize: Iter:   2  F: -28.3829248711476190  |grad|_K:  4.399e-10  alpha:  1.003e+00  linmin:  4.096e-02  cgtest: -8.325e-01  t[s]:     11.21
LCAOMinimize: Converged (|Delta F|<1.000000e-06 for 2 iters).


---- Citations for features of the code used in this run ----

   Software package:
      R. Sundararaman, K. Letchworth-Weaver, K.A. Schwarz, D. Gunceler, Y. Ozhabes and T.A. Arias, 'JDFTx: software for joint density-functional theory', SoftwareX 6, 278 (2017)

   gga-PBE exchange-correlation functional:
      J.P. Perdew, K. Burke and M. Ernzerhof, Phys. Rev. Lett. 77, 3865 (1996)

   Pseudopotentials:
      M Schlipf and F Gygi, Comput. Phys. Commun. 196, 36 (2015)

   Truncated Coulomb potentials:
      R. Sundararaman and T.A. Arias, Phys. Rev. B 87, 165122 (2013)

This list may not be complete. Please suggest additional citations or
report any other bugs at https://github.com/shankar1729/jdftx/issues

Initialization completed successfully at t[s]:     11.37


-------- Electronic minimization -----------
Will mix electronic density at each iteration.
	FillingsUpdate:  mu: -0.086360360  nElectrons: 9.000000  magneticMoment: [ Abs: 0.10000  Tot: -0.10000 ]
	FillingsUpdate:  mu: -0.088294267  nElectrons: 9.000000  magneticMoment: [ Abs: 0.10000  Tot: -0.10000 ]
SCF: Cycle:  0   F: -28.384421980974121   dF: -1.497e-03   |Residual|: 3.322e-03   |deigs|: 1.746e-01  t[s]:     16.18
	FillingsUpdate:  mu: -0.088516745  nElectrons: 9.000000  magneticMoment: [ Abs: 0.10000  Tot: -0.10000 ]
SCF: Cycle:  1   F: -28.384443709315004   dF: -2.173e-05   |Residual|: 2.871e-03   |deigs|: 4.656e-03  t[s]:     19.94
	FillingsUpdate:  mu: -0.089250986  nElectrons: 9.000000  magneticMoment: [ Abs: 0.10174  Tot: -0.10000 ]
SCF: Cycle:  2   F: -28.384475997723094   dF: -3.229e-05   |Residual|: 1.246e-03   |deigs|: 3.305e-03  t[s]:     23.75
	FillingsUpdate:  mu: -0.089358339  nElectrons: 9.000000  magneticMoment: [ Abs: 0.10025  Tot: -0.10000 ]
SCF: Cycle:  3   F: -28.384484444939726   dF: -8.447e-06   |Residual|: 7.685e-04   |deigs|: 2.183e-03  t[s]:     27.63
	FillingsUpdate:  mu: -0.089302548  nElectrons: 9.000000  magneticMoment: [ Abs: 0.10012  Tot: -0.10000 ]
SCF: Cycle:  4   F: -28.384489787715939   dF: -5.343e-06   |Residual|: 5.021e-04   |deigs|: 1.895e-03  t[s]:     31.56
	FillingsUpdate:  mu: -0.089252010  nElectrons: 9.000000  magneticMoment: [ Abs: 0.10014  Tot: -0.10000 ]
SCF: Cycle:  5   F: -28.384492769776617   dF: -2.982e-06   |Residual|: 3.600e-04   |deigs|: 2.013e-03  t[s]:     35.52
	FillingsUpdate:  mu: -0.089091569  nElectrons: 9.000000  magneticMoment: [ Abs: 0.10007  Tot: -0.10000 ]
SCF: Cycle:  6   F: -28.384494277453179   dF: -1.508e-06   |Residual|: 2.755e-04   |deigs|: 1.715e-03  t[s]:     39.59
	FillingsUpdate:  mu: -0.088875634  nElectrons: 9.000000  magneticMoment: [ Abs: 0.10038  Tot: -0.10000 ]
SCF: Cycle:  7   F: -28.384494867752515   dF: -5.903e-07   |Residual|: 2.216e-04   |deigs|: 1.142e-03  t[s]:     43.71
	FillingsUpdate:  mu: -0.088712598  nElectrons: 9.000000  magneticMoment: [ Abs: 0.10053  Tot: -0.10000 ]
SCF: Cycle:  8   F: -28.384494946431182   dF: -7.868e-08   |Residual|: 1.796e-04   |deigs|: 4.392e-04  t[s]:     47.85
	FillingsUpdate:  mu: -0.088531746  nElectrons: 9.000000  magneticMoment: [ Abs: 0.10049  Tot: -0.10000 ]
SCF: Cycle:  9   F: -28.384495026398383   dF: -7.997e-08   |Residual|: 1.649e-04   |deigs|: 1.901e-04  t[s]:     52.06
	FillingsUpdate:  mu: -0.088303324  nElectrons: 9.000000  magneticMoment: [ Abs: 0.10048  Tot: -0.10000 ]
SCF: Cycle: 10   F: -28.384495238880536   dF: -2.125e-07   |Residual|: 1.420e-04   |deigs|: 3.140e-04  t[s]:     56.38
	FillingsUpdate:  mu: -0.088133245  nElectrons: 9.000000  magneticMoment: [ Abs: 0.10052  Tot: -0.10000 ]
SCF: Cycle: 11   F: -28.384495375843702   dF: -1.370e-07   |Residual|: 1.192e-04   |deigs|: 1.456e-04  t[s]:     60.67
	FillingsUpdate:  mu: -0.087968434  nElectrons: 9.000000  magneticMoment: [ Abs: 0.10038  Tot: -0.10000 ]
SCF: Cycle: 12   F: -28.384495447943028   dF: -7.210e-08   |Residual|: 1.015e-04   |deigs|: 1.812e-04  t[s]:     64.96
	FillingsUpdate:  mu: -0.087811331  nElectrons: 9.000000  magneticMoment: [ Abs: 0.10025  Tot: -0.10000 ]
SCF: Cycle: 13   F: -28.384495254198395   dF: +1.937e-07   |Residual|: 1.009e-04   |deigs|: 2.102e-04  t[s]:     69.23
	FillingsUpdate:  mu: -0.087621028  nElectrons: 9.000000  magneticMoment: [ Abs: 0.10033  Tot: -0.10000 ]
SCF: Cycle: 14   F: -28.384495358455890   dF: -1.043e-07   |Residual|: 9.478e-05   |deigs|: 2.425e-04  t[s]:     73.53
	FillingsUpdate:  mu: -0.087477525  nElectrons: 9.000000  magneticMoment: [ Abs: 0.10067  Tot: -0.10000 ]
SCF: Cycle: 15   F: -28.384495850981672   dF: -4.925e-07   |Residual|: 8.331e-05   |deigs|: 1.912e-04  t[s]:     77.83
	FillingsUpdate:  mu: -0.087428479  nElectrons: 9.000000  magneticMoment: [ Abs: 0.10037  Tot: -0.10000 ]
SCF: Cycle: 16   F: -28.384496189091504   dF: -3.381e-07   |Residual|: 6.259e-05   |deigs|: 1.036e-04  t[s]:     82.12
	FillingsUpdate:  mu: -0.087336280  nElectrons: 9.000000  magneticMoment: [ Abs: 0.10020  Tot: -0.10000 ]
SCF: Cycle: 17   F: -28.384496319348557   dF: -1.303e-07   |Residual|: 4.055e-05   |deigs|: 1.433e-04  t[s]:     86.39
	FillingsUpdate:  mu: -0.087305105  nElectrons: 9.000000  magneticMoment: [ Abs: 0.10022  Tot: -0.10000 ]
SCF: Cycle: 18   F: -28.384496383644446   dF: -6.430e-08   |Residual|: 2.499e-05   |deigs|: 1.555e-04  t[s]:     90.66
	FillingsUpdate:  mu: -0.087299460  nElectrons: 9.000000  magneticMoment: [ Abs: 0.10020  Tot: -0.10000 ]
SCF: Cycle: 19   F: -28.384496411841241   dF: -2.820e-08   |Residual|: 1.398e-05   |deigs|: 9.512e-05  t[s]:     94.97
	FillingsUpdate:  mu: -0.087297615  nElectrons: 9.000000  magneticMoment: [ Abs: 0.10020  Tot: -0.10000 ]
SCF: Cycle: 20   F: -28.384496428896270   dF: -1.706e-08   |Residual|: 7.405e-06   |deigs|: 5.832e-05  t[s]:     99.31
	FillingsUpdate:  mu: -0.087296675  nElectrons: 9.000000  magneticMoment: [ Abs: 0.10018  Tot: -0.10000 ]
SCF: Cycle: 21   F: -28.384496436245762   dF: -7.349e-09   |Residual|: 5.671e-06   |deigs|: 6.318e-05  t[s]:    103.30
	FillingsUpdate:  mu: -0.087296969  nElectrons: 9.000000  magneticMoment: [ Abs: 0.10017  Tot: -0.10000 ]
SCF: Cycle: 22   F: -28.384496440588528   dF: -4.343e-09   |Residual|: 2.790e-06   |deigs|: 6.541e-05  t[s]:    107.52
SCF: Converged (|Delta E|<1.000000e-08 for 2 iters).


# Ionic positions in lattice coordinates:
ion K   0.000000000000000   0.000000000000000   0.000000000000000 0

# Forces in Lattice coordinates:
force K  -0.000000000000000   0.000000000000000   0.000000000000000 0

# Energy components:
   Eewald =      -12.0320174002217755
       EH =       10.7061298216432998
     Eloc =      -29.9002971048328412
      Enl =       -2.7720651935706186
   Epulay =       -0.0000000016982517
      Exc =       -4.2362959193826750
       KE =        9.8500504549100292
-------------------------------------
     Etot =      -28.3844953431528388
       TS =        0.0000010974356905
-------------------------------------
        F =      -28.3844964405885278

IonicMinimize: Iter:   0  F: -28.384496440588528  |grad|_K:  0.000e+00  t[s]:    107.78
IonicMinimize: Converged (|grad|_K<1.000000e-04).

#--- Lowdin population analysis ---
# oxidation-state K +0.026
# magnetic-moments K -0.095

End date and time: Sat Feb  5 23:40:10 2022  (Duration: 0-0:01:47.83)
Done!
scale=4
magnetization=-0.1
--------------------------------------------------------------------------
The library attempted to open the following supporting CUDA libraries,
but each of them failed.  CUDA-aware support is disabled.
libcuda.so.1: cannot open shared object file: No such file or directory
libcuda.dylib: cannot open shared object file: No such file or directory
/usr/lib64/libcuda.so.1: cannot open shared object file: No such file or directory
/usr/lib64/libcuda.dylib: cannot open shared object file: No such file or directory
If you are not interested in CUDA-aware support, then run with
--mca opal_warn_on_missing_libcuda 0 to suppress this message.  If you are interested
in CUDA-aware support, then try setting LD_LIBRARY_PATH to the location
of libcuda.so.1 to get passed this issue.
--------------------------------------------------------------------------
--------------------------------------------------------------------------
No OpenFabrics connection schemes reported that they were able to be
used on a specific port.  As such, the openib BTL (OpenFabrics
support) will be disabled for this port.

  Local host:           d-4-7-2
  Local device:         mlx5_1
  Local port:           1
  CPCs attempted:       rdmacm, udcm
--------------------------------------------------------------------------

*************** JDFTx 1.6.0 (git hash 42ebbcc2) ***************

Start date and time: Sat Feb  5 23:40:11 2022
Executable jdftx with command-line: -i Alkali.in
Running on hosts (process indices):  d-4-7-2 (0-18)
Divided in process groups (process indices):  0 (0)  1 (1)  2 (2)  3 (3)  4 (4)  5 (5)  6 (6)  7 (7)  8 (8)  9 (9)  10 (10)  11 (11)  12 (12)  13 (13)  14 (14)  15 (15)  16 (16)  17 (17)  18 (18)
Resource initialization completed at t[s]:      0.00
Run totals: 19 processes, 48 threads, 0 GPUs


Input parsed successfully to the following command list (including defaults):

basis kpoint-dependent
coords-type Lattice
core-overlap-check vector
coulomb-interaction Slab 001
davidson-band-ratio 1.1
dump End None
dump-name $INPUT.$VAR
elec-cutoff 20
elec-eigen-algo Davidson
elec-ex-corr gga-PBE
elec-initial-magnetization -0.100000 yes
elec-smearing Fermi 1e-05
electronic-minimize  \
	dirUpdateScheme      FletcherReeves \
	linminMethod         DirUpdateRecommended \
	nIterations          100 \
	history              15 \
	knormThreshold       0 \
	energyDiffThreshold  1e-08 \
	nEnergyDiff          2 \
	alphaTstart          1 \
	alphaTmin            1e-10 \
	updateTestStepSize   yes \
	alphaTreduceFactor   0.1 \
	alphaTincreaseFactor 3 \
	nAlphaAdjustMax      3 \
	wolfeEnergy          0.0001 \
	wolfeGradient        0.9 \
	fdTest               no
electronic-scf  \
	nIterations	10000 \
	energyDiffThreshold	1e-08 \
	residualThreshold	1e-07 \
	mixFraction	0.5 \
	qMetric	0.8 \
	history	10 \
	nEigSteps	2 \
	eigDiffThreshold	1e-08 \
	mixedVariable	Density \
	qKerker	0.8 \
	qKappa	-1 \
	verbose	no \
	mixFractionMag	1.5
exchange-regularization WignerSeitzTruncated
fluid None
fluid-ex-corr (null) lda-PZ
fluid-gummel-loop 10 1.000000e-05
fluid-minimize  \
	dirUpdateScheme      PolakRibiere \
	linminMethod         DirUpdateRecommended \
	nIterations          100 \
	history              15 \
	knormThreshold       0 \
	energyDiffThreshold  0 \
	nEnergyDiff          2 \
	alphaTstart          1 \
	alphaTmin            1e-10 \
	updateTestStepSize   yes \
	alphaTreduceFactor   0.1 \
	alphaTincreaseFactor 3 \
	nAlphaAdjustMax      3 \
	wolfeEnergy          0.0001 \
	wolfeGradient        0.9 \
	fdTest               no
fluid-solvent H2O 55.338 ScalarEOS \
	epsBulk 78.4 \
	pMol 0.92466 \
	epsInf 1.77 \
	Pvap 1.06736e-10 \
	sigmaBulk 4.62e-05 \
	Rvdw 2.61727 \
	Res 1.42 \
	tauNuc 343133 \
	poleEl 15 7 1
forces-output-coords Positions
ion K   0.000000000000000   0.000000000000000   0.000000000000000 0
ion-species SG15/$ID_ONCV_PBE.upf
ion-width 0
ionic-minimize  \
	dirUpdateScheme      L-BFGS \
	linminMethod         DirUpdateRecommended \
	nIterations          0 \
	history              15 \
	knormThreshold       0.0001 \
	energyDiffThreshold  1e-06 \
	nEnergyDiff          2 \
	alphaTstart          1 \
	alphaTmin            1e-10 \
	updateTestStepSize   yes \
	alphaTreduceFactor   0.1 \
	alphaTincreaseFactor 3 \
	nAlphaAdjustMax      3 \
	wolfeEnergy          0.0001 \
	wolfeGradient        0.9 \
	fdTest               no
kpoint   0.000000000000   0.000000000000   0.000000000000  1.00000000000000
kpoint-folding 12 12 1 
latt-move-scale 1 1 1
latt-scale 4 4 1 
lattice  \
	   4.727486978767153   -2.363743489383575    0.000000000000000  \
	  -0.000000000000000    4.094123819672498    0.000000000000000  \
	   0.000000000000000    0.000000000000000   40.000000000000000 
lattice-minimize  \
	dirUpdateScheme      L-BFGS \
	linminMethod         DirUpdateRecommended \
	nIterations          0 \
	history              15 \
	knormThreshold       0 \
	energyDiffThreshold  1e-06 \
	nEnergyDiff          2 \
	alphaTstart          1 \
	alphaTmin            1e-10 \
	updateTestStepSize   yes \
	alphaTreduceFactor   0.1 \
	alphaTincreaseFactor 3 \
	nAlphaAdjustMax      3 \
	wolfeEnergy          0.0001 \
	wolfeGradient        0.9 \
	fdTest               no
lcao-params -1 1e-06 1e-05
pcm-variant GLSSA13
spintype z-spin
subspace-rotation-factor 1 yes
symmetries automatic
symmetry-threshold 0.0001



---------- Setting up symmetries ----------

Found 24 point-group symmetries of the bravais lattice
Found 24 space-group symmetries with basis
Applied RMS atom displacement 0 bohrs to make symmetries exact.

---------- Initializing the Grid ----------
R = 
[      18.9099     -9.45497            0  ]
[            0      16.3765            0  ]
[            0            0           40  ]
unit cell volume = 12387.1
G =
[   0.332269   0.191835         -0  ]
[          0   0.383671         -0  ]
[         -0         -0    0.15708  ]
Minimum fftbox size, Smin = [  80  80  164  ]
Chosen fftbox size, S = [  80  80  168  ]

---------- Exchange Correlation functional ----------
Initalized PBE GGA exchange.
Initalized PBE GGA correlation.

---------- Setting up pseudopotentials ----------
Width of ionic core gaussian charges (only for fluid interactions / plotting) set to 0

Reading pseudopotential file '/home/gridsan/aligho/DFT/build-Nov24/pseudopotentials/SG15/K_ONCV_PBE.upf':
  'K' pseudopotential, 'PBE' functional
  Generated using ONCVPSP code by D. R. Hamann
  Author: Martin Schlipf and Francois Gygi  Date: 150915.
  9 valence electrons, 3 orbitals, 6 projectors, 2222 radial grid points, with lMax = 2
  Transforming local potential to a uniform radial grid of dG=0.02 with 1489 points.
  Transforming nonlocal projectors to a uniform radial grid of dG=0.02 with 432 points.
    3S    l: 0   occupation:  2.0   eigenvalue: -1.298836
    3P    l: 1   occupation:  6.0   eigenvalue: -0.691386
    4S    l: 0   occupation:  1.0   eigenvalue: -0.085223
  Transforming atomic orbitals to a uniform radial grid of dG=0.02 with 432 points.
  Core radius for overlap checks: 2.06 bohrs.
  Reading pulay file /home/gridsan/aligho/DFT/build-Nov24/pseudopotentials/SG15/K_ONCV_PBE.pulay ... using dE_dnG = -1.597219e-05 computed for Ecut = 20.

Initialized 1 species with 1 total atoms.

Folded 1 k-points by 12x12x1 to 144 k-points.

---------- Setting up k-points, bands, fillings ----------
Reduced to 19 k-points under symmetry. 
Computing the number of bands and number of electrons
Calculating initial fillings.
nElectrons:   9.000000   nBands: 6   nStates: 38

----- Setting up reduced wavefunction bases (one per k-point) -----
average nbasis = 52924.021 , ideal nbasis = 52918.836

---------- Setting up coulomb interaction ----------
Initialized slab truncation along lattice direction 001

---------- Setting up 2D ewald sum ----------
Optimum gaussian width for ewald sums = 10.498040 bohr.
Real space sums over 289 unit cells with max indices [  8  8  0  ]
Reciprocal space sums over 81 terms with max indices [  4  4  0  ]

---------- Allocating electronic variables ----------
Initializing wave functions:  linear combination of atomic orbitals
Note: number of bands (6) exceeds available atomic orbitals (5)
K pseudo-atom occupations:   s ( 2 1 )  p ( 6 )
[d-4-7-2:92148] 18 more processes have sent help message help-mpi-common-cuda.txt / dlopen failed
[d-4-7-2:92148] Set MCA parameter "orte_base_help_aggregate" to 0 to see all help / error messages
[d-4-7-2:92148] 18 more processes have sent help message help-mpi-btl-openib-cpc-base.txt / no cpcs for port
	FillingsUpdate:  mu: -0.085755558  nElectrons: 9.000000  magneticMoment: [ Abs: 0.10000  Tot: -0.10000 ]
LCAOMinimize: Iter:   0  F: -28.3773778647000086  |grad|_K:  3.889e-06  alpha:  1.000e+00
	FillingsUpdate:  mu: -0.085754747  nElectrons: 9.000000  magneticMoment: [ Abs: 0.10000  Tot: -0.10000 ]
LCAOMinimize: Iter:   1  F: -28.3773778749240648  |grad|_K:  1.616e-08  alpha:  9.885e-01  linmin: -6.940e-03  cgtest:  3.033e-01  t[s]:     15.16
LCAOMinimize: Encountered beta<0, resetting CG.
LCAOMinimize: 	Step increased F by 1.598721e-13, reducing alpha to 6.220976e-02.
	FillingsUpdate:  mu: -0.085754747  nElectrons: 9.000000  magneticMoment: [ Abs: 0.10000  Tot: -0.10000 ]
LCAOMinimize: Iter:   2  F: -28.3773778749242531  |grad|_K:  1.516e-08  alpha:  6.221e-02  linmin: -1.408e-02  cgtest:  1.000e+00  t[s]:     21.52
LCAOMinimize: Encountered beta<0, resetting CG.
LCAOMinimize: Converged (|Delta F|<1.000000e-06 for 2 iters).


---- Citations for features of the code used in this run ----

   Software package:
      R. Sundararaman, K. Letchworth-Weaver, K.A. Schwarz, D. Gunceler, Y. Ozhabes and T.A. Arias, 'JDFTx: software for joint density-functional theory', SoftwareX 6, 278 (2017)

   gga-PBE exchange-correlation functional:
      J.P. Perdew, K. Burke and M. Ernzerhof, Phys. Rev. Lett. 77, 3865 (1996)

   Pseudopotentials:
      M Schlipf and F Gygi, Comput. Phys. Commun. 196, 36 (2015)

   Truncated Coulomb potentials:
      R. Sundararaman and T.A. Arias, Phys. Rev. B 87, 165122 (2013)

This list may not be complete. Please suggest additional citations or
report any other bugs at https://github.com/shankar1729/jdftx/issues

Initialization completed successfully at t[s]:     21.78


-------- Electronic minimization -----------
Will mix electronic density at each iteration.
	FillingsUpdate:  mu: -0.085754747  nElectrons: 9.000000  magneticMoment: [ Abs: 0.10000  Tot: -0.10000 ]
	FillingsUpdate:  mu: -0.085825414  nElectrons: 9.000000  magneticMoment: [ Abs: 0.10000  Tot: -0.10000 ]
SCF: Cycle:  0   F: -28.377459767517806   dF: -8.189e-05   |Residual|: 5.550e-04   |deigs|: 1.761e-01  t[s]:     29.95
	FillingsUpdate:  mu: -0.085862946  nElectrons: 9.000000  magneticMoment: [ Abs: 0.10013  Tot: -0.10000 ]
SCF: Cycle:  1   F: -28.377460656319297   dF: -8.888e-07   |Residual|: 4.091e-04   |deigs|: 4.487e-03  t[s]:     36.41
	FillingsUpdate:  mu: -0.085927308  nElectrons: 9.000000  magneticMoment: [ Abs: 0.10020  Tot: -0.10000 ]
SCF: Cycle:  2   F: -28.377460994789491   dF: -3.385e-07   |Residual|: 3.097e-04   |deigs|: 1.754e-03  t[s]:     42.95
	FillingsUpdate:  mu: -0.086025103  nElectrons: 9.000000  magneticMoment: [ Abs: 0.10030  Tot: -0.10000 ]
SCF: Cycle:  3   F: -28.377461333762980   dF: -3.390e-07   |Residual|: 2.071e-04   |deigs|: 7.045e-04  t[s]:     49.56
	FillingsUpdate:  mu: -0.086115590  nElectrons: 9.000000  magneticMoment: [ Abs: 0.10028  Tot: -0.10000 ]
SCF: Cycle:  4   F: -28.377461651891100   dF: -3.181e-07   |Residual|: 1.291e-04   |deigs|: 6.244e-04  t[s]:     56.37
	FillingsUpdate:  mu: -0.086143954  nElectrons: 9.000000  magneticMoment: [ Abs: 0.10035  Tot: -0.10000 ]
SCF: Cycle:  5   F: -28.377461832172596   dF: -1.803e-07   |Residual|: 9.807e-05   |deigs|: 5.388e-04  t[s]:     63.28
	FillingsUpdate:  mu: -0.086144512  nElectrons: 9.000000  magneticMoment: [ Abs: 0.10029  Tot: -0.10000 ]
SCF: Cycle:  6   F: -28.377461991623811   dF: -1.595e-07   |Residual|: 5.719e-05   |deigs|: 5.362e-04  t[s]:     70.28
	FillingsUpdate:  mu: -0.086135548  nElectrons: 9.000000  magneticMoment: [ Abs: 0.10026  Tot: -0.10000 ]
SCF: Cycle:  7   F: -28.377462059883211   dF: -6.826e-08   |Residual|: 4.376e-05   |deigs|: 4.555e-04  t[s]:     77.42
	FillingsUpdate:  mu: -0.086118290  nElectrons: 9.000000  magneticMoment: [ Abs: 0.10025  Tot: -0.10000 ]
SCF: Cycle:  8   F: -28.377462097705077   dF: -3.782e-08   |Residual|: 2.731e-05   |deigs|: 1.943e-04  t[s]:     84.64
	FillingsUpdate:  mu: -0.086107841  nElectrons: 9.000000  magneticMoment: [ Abs: 0.10022  Tot: -0.10000 ]
SCF: Cycle:  9   F: -28.377462115345846   dF: -1.764e-08   |Residual|: 2.240e-05   |deigs|: 7.985e-05  t[s]:     92.02
	FillingsUpdate:  mu: -0.086098383  nElectrons: 9.000000  magneticMoment: [ Abs: 0.10025  Tot: -0.10000 ]
SCF: Cycle: 10   F: -28.377462112870109   dF: +2.476e-09   |Residual|: 1.912e-05   |deigs|: 3.791e-05  t[s]:     99.52
	FillingsUpdate:  mu: -0.086082169  nElectrons: 9.000000  magneticMoment: [ Abs: 0.10028  Tot: -0.10000 ]
SCF: Cycle: 11   F: -28.377462094277600   dF: +1.859e-08   |Residual|: 1.738e-05   |deigs|: 4.277e-05  t[s]:    107.02
	FillingsUpdate:  mu: -0.086068754  nElectrons: 9.000000  magneticMoment: [ Abs: 0.10024  Tot: -0.10000 ]
SCF: Cycle: 12   F: -28.377462096427742   dF: -2.150e-09   |Residual|: 1.537e-05   |deigs|: 6.906e-05  t[s]:    114.56
	FillingsUpdate:  mu: -0.086054585  nElectrons: 9.000000  magneticMoment: [ Abs: 0.10024  Tot: -0.10000 ]
SCF: Cycle: 13   F: -28.377462097325228   dF: -8.975e-10   |Residual|: 1.340e-05   |deigs|: 1.013e-04  t[s]:    122.02
SCF: Converged (|Delta E|<1.000000e-08 for 2 iters).


# Ionic positions in lattice coordinates:
ion K   0.000000000000000   0.000000000000000   0.000000000000000 0

# Forces in Lattice coordinates:
force K   0.000000000000000   0.000000000000000   0.000000000000000 0

# Energy components:
   Eewald =       -9.0240130501663280
       EH =       13.7550993735766820
     Eloc =      -35.9639316069026194
      Enl =       -2.7673778214930596
   Epulay =        0.0000000066859396
      Exc =       -4.2386167812128956
       KE =        9.8613788796238016
-------------------------------------
     Etot =      -28.3774609998884841
       TS =        0.0000010974367444
-------------------------------------
        F =      -28.3774620973252283

IonicMinimize: Iter:   0  F: -28.377462097325228  |grad|_K:  0.000e+00  t[s]:    122.43
IonicMinimize: Converged (|grad|_K<1.000000e-04).

#--- Lowdin population analysis ---
# oxidation-state K +0.001
# magnetic-moments K -0.100

End date and time: Sat Feb  5 23:42:13 2022  (Duration: 0-0:02:02.50)
Done!
