The alkali metal is K
scale=2
magnetization=0.14
--------------------------------------------------------------------------
The library attempted to open the following supporting CUDA libraries,
but each of them failed.  CUDA-aware support is disabled.
libcuda.so.1: cannot open shared object file: No such file or directory
libcuda.dylib: cannot open shared object file: No such file or directory
/usr/lib64/libcuda.so.1: cannot open shared object file: No such file or directory
/usr/lib64/libcuda.dylib: cannot open shared object file: No such file or directory
If you are not interested in CUDA-aware support, then run with
--mca opal_warn_on_missing_libcuda 0 to suppress this message.  If you are interested
in CUDA-aware support, then try setting LD_LIBRARY_PATH to the location
of libcuda.so.1 to get passed this issue.
--------------------------------------------------------------------------
--------------------------------------------------------------------------
No OpenFabrics connection schemes reported that they were able to be
used on a specific port.  As such, the openib BTL (OpenFabrics
support) will be disabled for this port.

  Local host:           d-6-3-2
  Local device:         mlx5_1
  Local port:           1
  CPCs attempted:       rdmacm, udcm
--------------------------------------------------------------------------

*************** JDFTx 1.6.0 (git hash 42ebbcc2) ***************

Start date and time: Sat Feb  5 23:43:06 2022
Executable jdftx with command-line: -i Alkali.in
Running on hosts (process indices):  d-6-3-2 (0-18)
Divided in process groups (process indices):  0 (0)  1 (1)  2 (2)  3 (3)  4 (4)  5 (5)  6 (6)  7 (7)  8 (8)  9 (9)  10 (10)  11 (11)  12 (12)  13 (13)  14 (14)  15 (15)  16 (16)  17 (17)  18 (18)
Resource initialization completed at t[s]:      0.00
Run totals: 19 processes, 48 threads, 0 GPUs


Input parsed successfully to the following command list (including defaults):

basis kpoint-dependent
coords-type Lattice
core-overlap-check vector
coulomb-interaction Slab 001
davidson-band-ratio 1.1
dump End None
dump-name $INPUT.$VAR
elec-cutoff 20
elec-eigen-algo Davidson
elec-ex-corr gga-PBE
elec-initial-magnetization 0.140000 yes
elec-smearing Fermi 1e-05
electronic-minimize  \
	dirUpdateScheme      FletcherReeves \
	linminMethod         DirUpdateRecommended \
	nIterations          100 \
	history              15 \
	knormThreshold       0 \
	energyDiffThreshold  1e-08 \
	nEnergyDiff          2 \
	alphaTstart          1 \
	alphaTmin            1e-10 \
	updateTestStepSize   yes \
	alphaTreduceFactor   0.1 \
	alphaTincreaseFactor 3 \
	nAlphaAdjustMax      3 \
	wolfeEnergy          0.0001 \
	wolfeGradient        0.9 \
	fdTest               no
electronic-scf  \
	nIterations	10000 \
	energyDiffThreshold	1e-08 \
	residualThreshold	1e-07 \
	mixFraction	0.5 \
	qMetric	0.8 \
	history	10 \
	nEigSteps	2 \
	eigDiffThreshold	1e-08 \
	mixedVariable	Density \
	qKerker	0.8 \
	qKappa	-1 \
	verbose	no \
	mixFractionMag	1.5
exchange-regularization WignerSeitzTruncated
fluid None
fluid-ex-corr (null) lda-PZ
fluid-gummel-loop 10 1.000000e-05
fluid-minimize  \
	dirUpdateScheme      PolakRibiere \
	linminMethod         DirUpdateRecommended \
	nIterations          100 \
	history              15 \
	knormThreshold       0 \
	energyDiffThreshold  0 \
	nEnergyDiff          2 \
	alphaTstart          1 \
	alphaTmin            1e-10 \
	updateTestStepSize   yes \
	alphaTreduceFactor   0.1 \
	alphaTincreaseFactor 3 \
	nAlphaAdjustMax      3 \
	wolfeEnergy          0.0001 \
	wolfeGradient        0.9 \
	fdTest               no
fluid-solvent H2O 55.338 ScalarEOS \
	epsBulk 78.4 \
	pMol 0.92466 \
	epsInf 1.77 \
	Pvap 1.06736e-10 \
	sigmaBulk 4.62e-05 \
	Rvdw 2.61727 \
	Res 1.42 \
	tauNuc 343133 \
	poleEl 15 7 1
forces-output-coords Positions
ion K   0.000000000000000   0.000000000000000   0.000000000000000 0
ion-species SG15/$ID_ONCV_PBE.upf
ion-width 0
ionic-minimize  \
	dirUpdateScheme      L-BFGS \
	linminMethod         DirUpdateRecommended \
	nIterations          0 \
	history              15 \
	knormThreshold       0.0001 \
	energyDiffThreshold  1e-06 \
	nEnergyDiff          2 \
	alphaTstart          1 \
	alphaTmin            1e-10 \
	updateTestStepSize   yes \
	alphaTreduceFactor   0.1 \
	alphaTincreaseFactor 3 \
	nAlphaAdjustMax      3 \
	wolfeEnergy          0.0001 \
	wolfeGradient        0.9 \
	fdTest               no
kpoint   0.000000000000   0.000000000000   0.000000000000  1.00000000000000
kpoint-folding 12 12 1 
latt-move-scale 1 1 1
latt-scale 2 2 1 
lattice  \
	   4.727486978767153   -2.363743489383575    0.000000000000000  \
	  -0.000000000000000    4.094123819672498    0.000000000000000  \
	   0.000000000000000    0.000000000000000   40.000000000000000 
lattice-minimize  \
	dirUpdateScheme      L-BFGS \
	linminMethod         DirUpdateRecommended \
	nIterations          0 \
	history              15 \
	knormThreshold       0 \
	energyDiffThreshold  1e-06 \
	nEnergyDiff          2 \
	alphaTstart          1 \
	alphaTmin            1e-10 \
	updateTestStepSize   yes \
	alphaTreduceFactor   0.1 \
	alphaTincreaseFactor 3 \
	nAlphaAdjustMax      3 \
	wolfeEnergy          0.0001 \
	wolfeGradient        0.9 \
	fdTest               no
lcao-params -1 1e-06 1e-05
pcm-variant GLSSA13
spintype z-spin
subspace-rotation-factor 1 yes
symmetries automatic
symmetry-threshold 0.0001



---------- Setting up symmetries ----------

Found 24 point-group symmetries of the bravais lattice
Found 24 space-group symmetries with basis
Applied RMS atom displacement 0 bohrs to make symmetries exact.

---------- Initializing the Grid ----------
R = 
[      9.45497     -4.72749            0  ]
[            0      8.18825            0  ]
[            0            0           40  ]
unit cell volume = 3096.79
G =
[   0.664538   0.383671         -0  ]
[          0   0.767342         -0  ]
[         -0         -0    0.15708  ]
Minimum fftbox size, Smin = [  40  40  164  ]
Chosen fftbox size, S = [  40  40  168  ]

---------- Exchange Correlation functional ----------
Initalized PBE GGA exchange.
Initalized PBE GGA correlation.

---------- Setting up pseudopotentials ----------
Width of ionic core gaussian charges (only for fluid interactions / plotting) set to 0

Reading pseudopotential file '/home/gridsan/aligho/DFT/build-Nov24/pseudopotentials/SG15/K_ONCV_PBE.upf':
  'K' pseudopotential, 'PBE' functional
  Generated using ONCVPSP code by D. R. Hamann
  Author: Martin Schlipf and Francois Gygi  Date: 150915.
  9 valence electrons, 3 orbitals, 6 projectors, 2222 radial grid points, with lMax = 2
  Transforming local potential to a uniform radial grid of dG=0.02 with 1489 points.
  Transforming nonlocal projectors to a uniform radial grid of dG=0.02 with 432 points.
    3S    l: 0   occupation:  2.0   eigenvalue: -1.298836
    3P    l: 1   occupation:  6.0   eigenvalue: -0.691386
    4S    l: 0   occupation:  1.0   eigenvalue: -0.085223
  Transforming atomic orbitals to a uniform radial grid of dG=0.02 with 432 points.
  Core radius for overlap checks: 2.06 bohrs.
  Reading pulay file /home/gridsan/aligho/DFT/build-Nov24/pseudopotentials/SG15/K_ONCV_PBE.pulay ... using dE_dnG = -1.597219e-05 computed for Ecut = 20.

Initialized 1 species with 1 total atoms.

Folded 1 k-points by 12x12x1 to 144 k-points.

---------- Setting up k-points, bands, fillings ----------
Reduced to 19 k-points under symmetry. 
Computing the number of bands and number of electrons
Calculating initial fillings.
nElectrons:   9.000000   nBands: 6   nStates: 38

----- Setting up reduced wavefunction bases (one per k-point) -----
average nbasis = 13230.521 , ideal nbasis = 13229.709

---------- Setting up coulomb interaction ----------
Initialized slab truncation along lattice direction 001

---------- Setting up 2D ewald sum ----------
Optimum gaussian width for ewald sums = 5.249020 bohr.
Real space sums over 289 unit cells with max indices [  8  8  0  ]
Reciprocal space sums over 81 terms with max indices [  4  4  0  ]

---------- Allocating electronic variables ----------
Initializing wave functions:  linear combination of atomic orbitals
Note: number of bands (6) exceeds available atomic orbitals (5)
K pseudo-atom occupations:   s ( 2 1 )  p ( 6 )
	FillingsUpdate:  mu: -0.096271736  nElectrons: 9.000000  magneticMoment: [ Abs: 0.14000  Tot: +0.14000 ]
LCAOMinimize: Iter:   0  F: -28.3987136661781854  |grad|_K:  4.379e-05  alpha:  1.000e+00
	FillingsUpdate:  mu: -0.096261650  nElectrons: 9.000000  magneticMoment: [ Abs: 0.14000  Tot: +0.14000 ]
LCAOMinimize: Iter:   1  F: -28.3987149501350551  |grad|_K:  4.698e-07  alpha:  9.792e-01  linmin: -3.176e-02  cgtest:  5.504e-01  t[s]:      4.63
LCAOMinimize: Encountered beta<0, resetting CG.
[d-6-3-2:83069] 18 more processes have sent help message help-mpi-common-cuda.txt / dlopen failed
[d-6-3-2:83069] Set MCA parameter "orte_base_help_aggregate" to 0 to see all help / error messages
[d-6-3-2:83069] 18 more processes have sent help message help-mpi-btl-openib-cpc-base.txt / no cpcs for port
	FillingsUpdate:  mu: -0.096261732  nElectrons: 9.000000  magneticMoment: [ Abs: 0.14000  Tot: +0.14000 ]
LCAOMinimize: Iter:   2  F: -28.3987149502855871  |grad|_K:  1.460e-09  alpha:  9.985e-01  linmin: -9.772e-02  cgtest:  8.622e-01  t[s]:      5.80
LCAOMinimize: Encountered beta<0, resetting CG.
LCAOMinimize: 	Step increased F by 6.394885e-14, reducing alpha to 5.112691e-04.
LCAOMinimize: 	Step increased F by 8.881784e-14, reducing alpha to 5.112691e-05.
LCAOMinimize: 	Step increased F by 3.552714e-15, reducing alpha to 5.112691e-06.
LCAOMinimize: 	Step failed to reduce F after 3 attempts. Quitting step.
LCAOMinimize: 	Undoing step.
LCAOMinimize: 	Step failed along negative gradient direction.
LCAOMinimize: Probably at roundoff error limit. (Stopping)


---- Citations for features of the code used in this run ----

   Software package:
      R. Sundararaman, K. Letchworth-Weaver, K.A. Schwarz, D. Gunceler, Y. Ozhabes and T.A. Arias, 'JDFTx: software for joint density-functional theory', SoftwareX 6, 278 (2017)

   gga-PBE exchange-correlation functional:
      J.P. Perdew, K. Burke and M. Ernzerhof, Phys. Rev. Lett. 77, 3865 (1996)

   Pseudopotentials:
      M Schlipf and F Gygi, Comput. Phys. Commun. 196, 36 (2015)

   Truncated Coulomb potentials:
      R. Sundararaman and T.A. Arias, Phys. Rev. B 87, 165122 (2013)

This list may not be complete. Please suggest additional citations or
report any other bugs at https://github.com/shankar1729/jdftx/issues

Initialization completed successfully at t[s]:      9.11


-------- Electronic minimization -----------
Will mix electronic density at each iteration.
	FillingsUpdate:  mu: -0.096261732  nElectrons: 9.000000  magneticMoment: [ Abs: 0.14000  Tot: +0.14000 ]
	FillingsUpdate:  mu: -0.106594524  nElectrons: 9.000000  magneticMoment: [ Abs: 0.14000  Tot: +0.14000 ]
SCF: Cycle:  0   F: -28.403438959803285   dF: -4.724e-03   |Residual|: 8.123e-03   |deigs|: 1.749e-01  t[s]:     11.50
	FillingsUpdate:  mu: -0.106392786  nElectrons: 9.000000  magneticMoment: [ Abs: 0.14000  Tot: +0.14000 ]
SCF: Cycle:  1   F: -28.403545103054388   dF: -1.061e-04   |Residual|: 6.474e-03   |deigs|: 5.697e-03  t[s]:     13.41
	FillingsUpdate:  mu: -0.104426919  nElectrons: 9.000000  magneticMoment: [ Abs: 0.14543  Tot: +0.14000 ]
SCF: Cycle:  2   F: -28.403591925021072   dF: -4.682e-05   |Residual|: 2.698e-03   |deigs|: 3.908e-03  t[s]:     15.22
	FillingsUpdate:  mu: -0.103608527  nElectrons: 9.000000  magneticMoment: [ Abs: 0.14002  Tot: +0.14000 ]
SCF: Cycle:  3   F: -28.403634865097665   dF: -4.294e-05   |Residual|: 1.904e-03   |deigs|: 4.481e-03  t[s]:     17.13
	FillingsUpdate:  mu: -0.102324706  nElectrons: 9.000000  magneticMoment: [ Abs: 0.14021  Tot: +0.14000 ]
SCF: Cycle:  4   F: -28.403655469268013   dF: -2.060e-05   |Residual|: 1.590e-03   |deigs|: 3.189e-03  t[s]:     18.98
	FillingsUpdate:  mu: -0.100411650  nElectrons: 9.000000  magneticMoment: [ Abs: 0.14292  Tot: +0.14000 ]
SCF: Cycle:  5   F: -28.403667799824650   dF: -1.233e-05   |Residual|: 1.196e-03   |deigs|: 2.669e-03  t[s]:     20.86
	FillingsUpdate:  mu: -0.098829495  nElectrons: 9.000000  magneticMoment: [ Abs: 0.14408  Tot: +0.14000 ]
SCF: Cycle:  6   F: -28.403677238779704   dF: -9.439e-06   |Residual|: 8.997e-04   |deigs|: 3.938e-03  t[s]:     22.90
	FillingsUpdate:  mu: -0.098076499  nElectrons: 9.000000  magneticMoment: [ Abs: 0.14223  Tot: +0.14000 ]
SCF: Cycle:  7   F: -28.403695157913173   dF: -1.792e-05   |Residual|: 7.690e-04   |deigs|: 1.147e-03  t[s]:     24.80
	FillingsUpdate:  mu: -0.097427509  nElectrons: 9.000000  magneticMoment: [ Abs: 0.14117  Tot: +0.14000 ]
SCF: Cycle:  8   F: -28.403707341944809   dF: -1.218e-05   |Residual|: 6.090e-04   |deigs|: 8.004e-04  t[s]:     26.82
	FillingsUpdate:  mu: -0.096296943  nElectrons: 9.000000  magneticMoment: [ Abs: 0.14200  Tot: +0.14000 ]
SCF: Cycle:  9   F: -28.403705901190889   dF: +1.441e-06   |Residual|: 5.054e-04   |deigs|: 1.187e-03  t[s]:     28.83
	FillingsUpdate:  mu: -0.095228699  nElectrons: 9.000000  magneticMoment: [ Abs: 0.14216  Tot: +0.14000 ]
SCF: Cycle: 10   F: -28.403704380902649   dF: +1.520e-06   |Residual|: 4.846e-04   |deigs|: 1.376e-03  t[s]:     30.87
	FillingsUpdate:  mu: -0.094027885  nElectrons: 9.000000  magneticMoment: [ Abs: 0.14109  Tot: +0.14000 ]
SCF: Cycle: 11   F: -28.403712580312988   dF: -8.199e-06   |Residual|: 4.349e-04   |deigs|: 1.192e-03  t[s]:     32.98
	FillingsUpdate:  mu: -0.093107553  nElectrons: 9.000000  magneticMoment: [ Abs: 0.14239  Tot: +0.14000 ]
SCF: Cycle: 12   F: -28.403720771897330   dF: -8.192e-06   |Residual|: 3.889e-04   |deigs|: 8.389e-04  t[s]:     34.96
	FillingsUpdate:  mu: -0.092014685  nElectrons: 9.000000  magneticMoment: [ Abs: 0.14270  Tot: +0.14000 ]
SCF: Cycle: 13   F: -28.403725029026184   dF: -4.257e-06   |Residual|: 3.716e-04   |deigs|: 1.180e-03  t[s]:     36.91
	FillingsUpdate:  mu: -0.090866268  nElectrons: 9.000000  magneticMoment: [ Abs: 0.14079  Tot: +0.14000 ]
SCF: Cycle: 14   F: -28.403728546106016   dF: -3.517e-06   |Residual|: 3.004e-04   |deigs|: 1.248e-03  t[s]:     38.89
	FillingsUpdate:  mu: -0.090471310  nElectrons: 9.000000  magneticMoment: [ Abs: 0.14001  Tot: +0.14000 ]
SCF: Cycle: 15   F: -28.403730208743642   dF: -1.663e-06   |Residual|: 2.504e-04   |deigs|: 4.221e-04  t[s]:     40.85
	FillingsUpdate:  mu: -0.090186697  nElectrons: 9.000000  magneticMoment: [ Abs: 0.14062  Tot: +0.14000 ]
SCF: Cycle: 16   F: -28.403731413687513   dF: -1.205e-06   |Residual|: 1.340e-04   |deigs|: 2.730e-04  t[s]:     42.95
	FillingsUpdate:  mu: -0.089875236  nElectrons: 9.000000  magneticMoment: [ Abs: 0.14030  Tot: +0.14000 ]
SCF: Cycle: 17   F: -28.403731739618593   dF: -3.259e-07   |Residual|: 7.978e-05   |deigs|: 3.516e-04  t[s]:     44.93
	FillingsUpdate:  mu: -0.089908405  nElectrons: 9.000000  magneticMoment: [ Abs: 0.14004  Tot: +0.14000 ]
SCF: Cycle: 18   F: -28.403731940031857   dF: -2.004e-07   |Residual|: 4.580e-05   |deigs|: 4.948e-05  t[s]:     46.94
	FillingsUpdate:  mu: -0.089907298  nElectrons: 9.000000  magneticMoment: [ Abs: 0.14012  Tot: +0.14000 ]
SCF: Cycle: 19   F: -28.403732043451885   dF: -1.034e-07   |Residual|: 3.047e-05   |deigs|: 1.851e-05  t[s]:     48.88
	FillingsUpdate:  mu: -0.089882893  nElectrons: 9.000000  magneticMoment: [ Abs: 0.14007  Tot: +0.14000 ]
SCF: Cycle: 20   F: -28.403732097477764   dF: -5.403e-08   |Residual|: 1.879e-05   |deigs|: 2.868e-05  t[s]:     50.79
	FillingsUpdate:  mu: -0.089872193  nElectrons: 9.000000  magneticMoment: [ Abs: 0.14004  Tot: +0.14000 ]
SCF: Cycle: 21   F: -28.403732134143624   dF: -3.667e-08   |Residual|: 8.693e-06   |deigs|: 1.853e-05  t[s]:     52.74
	FillingsUpdate:  mu: -0.089874211  nElectrons: 9.000000  magneticMoment: [ Abs: 0.14005  Tot: +0.14000 ]
SCF: Cycle: 22   F: -28.403732154798529   dF: -2.065e-08   |Residual|: 3.447e-06   |deigs|: 1.035e-05  t[s]:     54.68
	FillingsUpdate:  mu: -0.089873299  nElectrons: 9.000000  magneticMoment: [ Abs: 0.14005  Tot: +0.14000 ]
SCF: Cycle: 23   F: -28.403732169639955   dF: -1.484e-08   |Residual|: 2.229e-06   |deigs|: 1.167e-05  t[s]:     56.65
	FillingsUpdate:  mu: -0.089872237  nElectrons: 9.000000  magneticMoment: [ Abs: 0.14004  Tot: +0.14000 ]
SCF: Cycle: 24   F: -28.403732178771140   dF: -9.131e-09   |Residual|: 1.716e-06   |deigs|: 1.387e-05  t[s]:     58.42
	FillingsUpdate:  mu: -0.089869580  nElectrons: 9.000000  magneticMoment: [ Abs: 0.14003  Tot: +0.14000 ]
SCF: Cycle: 25   F: -28.403732182817389   dF: -4.046e-09   |Residual|: 1.280e-06   |deigs|: 1.095e-05  t[s]:     60.39
SCF: Converged (|Delta E|<1.000000e-08 for 2 iters).


# Ionic positions in lattice coordinates:
ion K   0.000000000000000   0.000000000000000   0.000000000000000 0

# Forces in Lattice coordinates:
force K  -0.000000000000000   0.000000000000000   0.000000000000000 0

# Energy components:
   Eewald =      -18.0480261003326561
       EH =        4.8673719437882248
     Eloc =      -18.0597901168766199
      Enl =       -2.7736635651832087
   Epulay =        0.0000000041876954
      Exc =       -4.2623694147712694
       KE =        9.8727457542400998
-------------------------------------
     Etot =      -28.4037314949477349
       TS =        0.0000006878696540
-------------------------------------
        F =      -28.4037321828173894

IonicMinimize: Iter:   0  F: -28.403732182817389  |grad|_K:  0.000e+00  t[s]:     60.50
IonicMinimize: Converged (|grad|_K<1.000000e-04).

#--- Lowdin population analysis ---
# oxidation-state K +0.039
# magnetic-moments K +0.124

End date and time: Sat Feb  5 23:44:07 2022  (Duration: 0-0:01:00.52)
Done!
scale=3
magnetization=0.14
--------------------------------------------------------------------------
The library attempted to open the following supporting CUDA libraries,
but each of them failed.  CUDA-aware support is disabled.
libcuda.so.1: cannot open shared object file: No such file or directory
libcuda.dylib: cannot open shared object file: No such file or directory
/usr/lib64/libcuda.so.1: cannot open shared object file: No such file or directory
/usr/lib64/libcuda.dylib: cannot open shared object file: No such file or directory
If you are not interested in CUDA-aware support, then run with
--mca opal_warn_on_missing_libcuda 0 to suppress this message.  If you are interested
in CUDA-aware support, then try setting LD_LIBRARY_PATH to the location
of libcuda.so.1 to get passed this issue.
--------------------------------------------------------------------------
--------------------------------------------------------------------------
No OpenFabrics connection schemes reported that they were able to be
used on a specific port.  As such, the openib BTL (OpenFabrics
support) will be disabled for this port.

  Local host:           d-6-3-2
  Local device:         mlx5_1
  Local port:           1
  CPCs attempted:       rdmacm, udcm
--------------------------------------------------------------------------

*************** JDFTx 1.6.0 (git hash 42ebbcc2) ***************

Start date and time: Sat Feb  5 23:44:08 2022
Executable jdftx with command-line: -i Alkali.in
Running on hosts (process indices):  d-6-3-2 (0-18)
Divided in process groups (process indices):  0 (0)  1 (1)  2 (2)  3 (3)  4 (4)  5 (5)  6 (6)  7 (7)  8 (8)  9 (9)  10 (10)  11 (11)  12 (12)  13 (13)  14 (14)  15 (15)  16 (16)  17 (17)  18 (18)
Resource initialization completed at t[s]:      0.00
Run totals: 19 processes, 48 threads, 0 GPUs


Input parsed successfully to the following command list (including defaults):

basis kpoint-dependent
coords-type Lattice
core-overlap-check vector
coulomb-interaction Slab 001
davidson-band-ratio 1.1
dump End None
dump-name $INPUT.$VAR
elec-cutoff 20
elec-eigen-algo Davidson
elec-ex-corr gga-PBE
elec-initial-magnetization 0.140000 yes
elec-smearing Fermi 1e-05
electronic-minimize  \
	dirUpdateScheme      FletcherReeves \
	linminMethod         DirUpdateRecommended \
	nIterations          100 \
	history              15 \
	knormThreshold       0 \
	energyDiffThreshold  1e-08 \
	nEnergyDiff          2 \
	alphaTstart          1 \
	alphaTmin            1e-10 \
	updateTestStepSize   yes \
	alphaTreduceFactor   0.1 \
	alphaTincreaseFactor 3 \
	nAlphaAdjustMax      3 \
	wolfeEnergy          0.0001 \
	wolfeGradient        0.9 \
	fdTest               no
electronic-scf  \
	nIterations	10000 \
	energyDiffThreshold	1e-08 \
	residualThreshold	1e-07 \
	mixFraction	0.5 \
	qMetric	0.8 \
	history	10 \
	nEigSteps	2 \
	eigDiffThreshold	1e-08 \
	mixedVariable	Density \
	qKerker	0.8 \
	qKappa	-1 \
	verbose	no \
	mixFractionMag	1.5
exchange-regularization WignerSeitzTruncated
fluid None
fluid-ex-corr (null) lda-PZ
fluid-gummel-loop 10 1.000000e-05
fluid-minimize  \
	dirUpdateScheme      PolakRibiere \
	linminMethod         DirUpdateRecommended \
	nIterations          100 \
	history              15 \
	knormThreshold       0 \
	energyDiffThreshold  0 \
	nEnergyDiff          2 \
	alphaTstart          1 \
	alphaTmin            1e-10 \
	updateTestStepSize   yes \
	alphaTreduceFactor   0.1 \
	alphaTincreaseFactor 3 \
	nAlphaAdjustMax      3 \
	wolfeEnergy          0.0001 \
	wolfeGradient        0.9 \
	fdTest               no
fluid-solvent H2O 55.338 ScalarEOS \
	epsBulk 78.4 \
	pMol 0.92466 \
	epsInf 1.77 \
	Pvap 1.06736e-10 \
	sigmaBulk 4.62e-05 \
	Rvdw 2.61727 \
	Res 1.42 \
	tauNuc 343133 \
	poleEl 15 7 1
forces-output-coords Positions
ion K   0.000000000000000   0.000000000000000   0.000000000000000 0
ion-species SG15/$ID_ONCV_PBE.upf
ion-width 0
ionic-minimize  \
	dirUpdateScheme      L-BFGS \
	linminMethod         DirUpdateRecommended \
	nIterations          0 \
	history              15 \
	knormThreshold       0.0001 \
	energyDiffThreshold  1e-06 \
	nEnergyDiff          2 \
	alphaTstart          1 \
	alphaTmin            1e-10 \
	updateTestStepSize   yes \
	alphaTreduceFactor   0.1 \
	alphaTincreaseFactor 3 \
	nAlphaAdjustMax      3 \
	wolfeEnergy          0.0001 \
	wolfeGradient        0.9 \
	fdTest               no
kpoint   0.000000000000   0.000000000000   0.000000000000  1.00000000000000
kpoint-folding 12 12 1 
latt-move-scale 1 1 1
latt-scale 3 3 1 
lattice  \
	   4.727486978767153   -2.363743489383575    0.000000000000000  \
	  -0.000000000000000    4.094123819672498    0.000000000000000  \
	   0.000000000000000    0.000000000000000   40.000000000000000 
lattice-minimize  \
	dirUpdateScheme      L-BFGS \
	linminMethod         DirUpdateRecommended \
	nIterations          0 \
	history              15 \
	knormThreshold       0 \
	energyDiffThreshold  1e-06 \
	nEnergyDiff          2 \
	alphaTstart          1 \
	alphaTmin            1e-10 \
	updateTestStepSize   yes \
	alphaTreduceFactor   0.1 \
	alphaTincreaseFactor 3 \
	nAlphaAdjustMax      3 \
	wolfeEnergy          0.0001 \
	wolfeGradient        0.9 \
	fdTest               no
lcao-params -1 1e-06 1e-05
pcm-variant GLSSA13
spintype z-spin
subspace-rotation-factor 1 yes
symmetries automatic
symmetry-threshold 0.0001



---------- Setting up symmetries ----------

Found 24 point-group symmetries of the bravais lattice
Found 24 space-group symmetries with basis
Applied RMS atom displacement 0 bohrs to make symmetries exact.

---------- Initializing the Grid ----------
R = 
[      14.1825     -7.09123            0  ]
[            0      12.2824            0  ]
[            0            0           40  ]
unit cell volume = 6967.77
G =
[   0.443025   0.255781         -0  ]
[          0   0.511561         -0  ]
[         -0         -0    0.15708  ]
Minimum fftbox size, Smin = [  60  60  164  ]
Chosen fftbox size, S = [  60  60  168  ]

---------- Exchange Correlation functional ----------
Initalized PBE GGA exchange.
Initalized PBE GGA correlation.

---------- Setting up pseudopotentials ----------
Width of ionic core gaussian charges (only for fluid interactions / plotting) set to 0

Reading pseudopotential file '/home/gridsan/aligho/DFT/build-Nov24/pseudopotentials/SG15/K_ONCV_PBE.upf':
  'K' pseudopotential, 'PBE' functional
  Generated using ONCVPSP code by D. R. Hamann
  Author: Martin Schlipf and Francois Gygi  Date: 150915.
  9 valence electrons, 3 orbitals, 6 projectors, 2222 radial grid points, with lMax = 2
  Transforming local potential to a uniform radial grid of dG=0.02 with 1489 points.
  Transforming nonlocal projectors to a uniform radial grid of dG=0.02 with 432 points.
    3S    l: 0   occupation:  2.0   eigenvalue: -1.298836
    3P    l: 1   occupation:  6.0   eigenvalue: -0.691386
    4S    l: 0   occupation:  1.0   eigenvalue: -0.085223
  Transforming atomic orbitals to a uniform radial grid of dG=0.02 with 432 points.
  Core radius for overlap checks: 2.06 bohrs.
  Reading pulay file /home/gridsan/aligho/DFT/build-Nov24/pseudopotentials/SG15/K_ONCV_PBE.pulay ... using dE_dnG = -1.597219e-05 computed for Ecut = 20.

Initialized 1 species with 1 total atoms.

Folded 1 k-points by 12x12x1 to 144 k-points.

---------- Setting up k-points, bands, fillings ----------
Reduced to 19 k-points under symmetry. 
Computing the number of bands and number of electrons
Calculating initial fillings.
nElectrons:   9.000000   nBands: 6   nStates: 38

----- Setting up reduced wavefunction bases (one per k-point) -----
average nbasis = 29766.104 , ideal nbasis = 29766.845

---------- Setting up coulomb interaction ----------
Initialized slab truncation along lattice direction 001

---------- Setting up 2D ewald sum ----------
Optimum gaussian width for ewald sums = 7.873530 bohr.
Real space sums over 289 unit cells with max indices [  8  8  0  ]
Reciprocal space sums over 81 terms with max indices [  4  4  0  ]

---------- Allocating electronic variables ----------
Initializing wave functions:  linear combination of atomic orbitals
Note: number of bands (6) exceeds available atomic orbitals (5)
K pseudo-atom occupations:   s ( 2 1 )  p ( 6 )
[d-6-3-2:57020] 18 more processes have sent help message help-mpi-common-cuda.txt / dlopen failed
[d-6-3-2:57020] Set MCA parameter "orte_base_help_aggregate" to 0 to see all help / error messages
[d-6-3-2:57020] 18 more processes have sent help message help-mpi-btl-openib-cpc-base.txt / no cpcs for port
	FillingsUpdate:  mu: -0.086364644  nElectrons: 9.000000  magneticMoment: [ Abs: 0.14000  Tot: +0.14000 ]
LCAOMinimize: Iter:   0  F: -28.3829454380167974  |grad|_K:  1.859e-05  alpha:  1.000e+00
	FillingsUpdate:  mu: -0.086360836  nElectrons: 9.000000  magneticMoment: [ Abs: 0.14000  Tot: +0.14000 ]
LCAOMinimize: Iter:   1  F: -28.3829456715077377  |grad|_K:  1.372e-07  alpha:  9.878e-01  linmin: -1.514e-02  cgtest:  4.877e-01  t[s]:      8.62
LCAOMinimize: Encountered beta<0, resetting CG.
	FillingsUpdate:  mu: -0.086360832  nElectrons: 9.000000  magneticMoment: [ Abs: 0.14000  Tot: +0.14000 ]
LCAOMinimize: Iter:   2  F: -28.3829456715205666  |grad|_K:  4.279e-10  alpha:  9.979e-01  linmin: -3.606e-02  cgtest:  8.846e-01  t[s]:     10.99
LCAOMinimize: Encountered beta<0, resetting CG.
LCAOMinimize: Converged (|Delta F|<1.000000e-06 for 2 iters).


---- Citations for features of the code used in this run ----

   Software package:
      R. Sundararaman, K. Letchworth-Weaver, K.A. Schwarz, D. Gunceler, Y. Ozhabes and T.A. Arias, 'JDFTx: software for joint density-functional theory', SoftwareX 6, 278 (2017)

   gga-PBE exchange-correlation functional:
      J.P. Perdew, K. Burke and M. Ernzerhof, Phys. Rev. Lett. 77, 3865 (1996)

   Pseudopotentials:
      M Schlipf and F Gygi, Comput. Phys. Commun. 196, 36 (2015)

   Truncated Coulomb potentials:
      R. Sundararaman and T.A. Arias, Phys. Rev. B 87, 165122 (2013)

This list may not be complete. Please suggest additional citations or
report any other bugs at https://github.com/shankar1729/jdftx/issues

Initialization completed successfully at t[s]:     11.15


-------- Electronic minimization -----------
Will mix electronic density at each iteration.
	FillingsUpdate:  mu: -0.086360832  nElectrons: 9.000000  magneticMoment: [ Abs: 0.14000  Tot: +0.14000 ]
	FillingsUpdate:  mu: -0.088285733  nElectrons: 9.000000  magneticMoment: [ Abs: 0.14000  Tot: +0.14000 ]
SCF: Cycle:  0   F: -28.384434305819187   dF: -1.489e-03   |Residual|: 3.341e-03   |deigs|: 1.746e-01  t[s]:     15.90
	FillingsUpdate:  mu: -0.088507249  nElectrons: 9.000000  magneticMoment: [ Abs: 0.14000  Tot: +0.14000 ]
SCF: Cycle:  1   F: -28.384456870630881   dF: -2.256e-05   |Residual|: 2.867e-03   |deigs|: 4.737e-03  t[s]:     19.56
	FillingsUpdate:  mu: -0.089145144  nElectrons: 9.000000  magneticMoment: [ Abs: 0.14182  Tot: +0.14000 ]
SCF: Cycle:  2   F: -28.384487662769157   dF: -3.079e-05   |Residual|: 1.395e-03   |deigs|: 3.145e-03  t[s]:     23.29
	FillingsUpdate:  mu: -0.089341478  nElectrons: 9.000000  magneticMoment: [ Abs: 0.14042  Tot: +0.14000 ]
SCF: Cycle:  3   F: -28.384497575319077   dF: -9.913e-06   |Residual|: 8.208e-04   |deigs|: 1.992e-03  t[s]:     27.16
	FillingsUpdate:  mu: -0.089284753  nElectrons: 9.000000  magneticMoment: [ Abs: 0.14015  Tot: +0.14000 ]
SCF: Cycle:  4   F: -28.384502980174336   dF: -5.405e-06   |Residual|: 5.077e-04   |deigs|: 2.177e-03  t[s]:     31.06
	FillingsUpdate:  mu: -0.089233522  nElectrons: 9.000000  magneticMoment: [ Abs: 0.14023  Tot: +0.14000 ]
SCF: Cycle:  5   F: -28.384506049066733   dF: -3.069e-06   |Residual|: 3.663e-04   |deigs|: 2.177e-03  t[s]:     35.05
	FillingsUpdate:  mu: -0.089089651  nElectrons: 9.000000  magneticMoment: [ Abs: 0.14014  Tot: +0.14000 ]
SCF: Cycle:  6   F: -28.384507557483158   dF: -1.508e-06   |Residual|: 2.764e-04   |deigs|: 1.534e-03  t[s]:     39.02
	FillingsUpdate:  mu: -0.088891392  nElectrons: 9.000000  magneticMoment: [ Abs: 0.14042  Tot: +0.14000 ]
SCF: Cycle:  7   F: -28.384508212710816   dF: -6.552e-07   |Residual|: 2.191e-04   |deigs|: 1.174e-03  t[s]:     43.15
	FillingsUpdate:  mu: -0.088711075  nElectrons: 9.000000  magneticMoment: [ Abs: 0.14071  Tot: +0.14000 ]
SCF: Cycle:  8   F: -28.384508403154051   dF: -1.904e-07   |Residual|: 1.785e-04   |deigs|: 4.343e-04  t[s]:     47.30
	FillingsUpdate:  mu: -0.088535563  nElectrons: 9.000000  magneticMoment: [ Abs: 0.14068  Tot: +0.14000 ]
SCF: Cycle:  9   F: -28.384508437866668   dF: -3.471e-08   |Residual|: 1.677e-04   |deigs|: 1.671e-04  t[s]:     51.51
	FillingsUpdate:  mu: -0.088296832  nElectrons: 9.000000  magneticMoment: [ Abs: 0.14065  Tot: +0.14000 ]
SCF: Cycle: 10   F: -28.384508673057606   dF: -2.352e-07   |Residual|: 1.451e-04   |deigs|: 3.381e-04  t[s]:     55.78
	FillingsUpdate:  mu: -0.088163962  nElectrons: 9.000000  magneticMoment: [ Abs: 0.14065  Tot: +0.14000 ]
SCF: Cycle: 11   F: -28.384508901951282   dF: -2.289e-07   |Residual|: 1.178e-04   |deigs|: 1.992e-04  t[s]:     60.06
	FillingsUpdate:  mu: -0.088012114  nElectrons: 9.000000  magneticMoment: [ Abs: 0.14059  Tot: +0.14000 ]
SCF: Cycle: 12   F: -28.384509058172959   dF: -1.562e-07   |Residual|: 9.971e-05   |deigs|: 1.598e-04  t[s]:     64.25
	FillingsUpdate:  mu: -0.087818219  nElectrons: 9.000000  magneticMoment: [ Abs: 0.14042  Tot: +0.14000 ]
SCF: Cycle: 13   F: -28.384508958123615   dF: +1.000e-07   |Residual|: 9.961e-05   |deigs|: 2.286e-04  t[s]:     68.53
	FillingsUpdate:  mu: -0.087625390  nElectrons: 9.000000  magneticMoment: [ Abs: 0.14024  Tot: +0.14000 ]
SCF: Cycle: 14   F: -28.384508851069175   dF: +1.071e-07   |Residual|: 9.587e-05   |deigs|: 3.123e-04  t[s]:     72.82
	FillingsUpdate:  mu: -0.087464471  nElectrons: 9.000000  magneticMoment: [ Abs: 0.14079  Tot: +0.14000 ]
SCF: Cycle: 15   F: -28.384509354251104   dF: -5.032e-07   |Residual|: 8.304e-05   |deigs|: 3.739e-04  t[s]:     77.10
	FillingsUpdate:  mu: -0.087426947  nElectrons: 9.000000  magneticMoment: [ Abs: 0.14054  Tot: +0.14000 ]
SCF: Cycle: 16   F: -28.384509750729062   dF: -3.965e-07   |Residual|: 6.409e-05   |deigs|: 8.157e-05  t[s]:     81.28
	FillingsUpdate:  mu: -0.087321882  nElectrons: 9.000000  magneticMoment: [ Abs: 0.14023  Tot: +0.14000 ]
SCF: Cycle: 17   F: -28.384509880951438   dF: -1.302e-07   |Residual|: 4.296e-05   |deigs|: 1.374e-04  t[s]:     85.50
	FillingsUpdate:  mu: -0.087284774  nElectrons: 9.000000  magneticMoment: [ Abs: 0.14027  Tot: +0.14000 ]
SCF: Cycle: 18   F: -28.384509980064561   dF: -9.911e-08   |Residual|: 2.596e-05   |deigs|: 8.326e-05  t[s]:     89.71
	FillingsUpdate:  mu: -0.087282617  nElectrons: 9.000000  magneticMoment: [ Abs: 0.14024  Tot: +0.14000 ]
SCF: Cycle: 19   F: -28.384510008673441   dF: -2.861e-08   |Residual|: 1.624e-05   |deigs|: 4.989e-05  t[s]:     93.70
	FillingsUpdate:  mu: -0.087282338  nElectrons: 9.000000  magneticMoment: [ Abs: 0.14024  Tot: +0.14000 ]
SCF: Cycle: 20   F: -28.384510031069368   dF: -2.240e-08   |Residual|: 8.209e-06   |deigs|: 2.671e-05  t[s]:     97.94
	FillingsUpdate:  mu: -0.087280776  nElectrons: 9.000000  magneticMoment: [ Abs: 0.14023  Tot: +0.14000 ]
SCF: Cycle: 21   F: -28.384510039561047   dF: -8.492e-09   |Residual|: 6.181e-06   |deigs|: 1.695e-05  t[s]:    101.83
	FillingsUpdate:  mu: -0.087281380  nElectrons: 9.000000  magneticMoment: [ Abs: 0.14023  Tot: +0.14000 ]
SCF: Cycle: 22   F: -28.384510044637253   dF: -5.076e-09   |Residual|: 3.349e-06   |deigs|: 1.444e-05  t[s]:    105.98
SCF: Converged (|Delta E|<1.000000e-08 for 2 iters).


# Ionic positions in lattice coordinates:
ion K   0.000000000000000   0.000000000000000   0.000000000000000 0

# Forces in Lattice coordinates:
force K  -0.000000000000000   0.000000000000000   0.000000000000000 0

# Energy components:
   Eewald =      -12.0320174002217755
       EH =       10.7065721807498910
     Eloc =      -29.9007806574869974
      Enl =       -2.7720499718169607
   Epulay =       -0.0000000016982517
      Exc =       -4.2363669747526806
       KE =        9.8501334684591733
-------------------------------------
     Etot =      -28.3845093567675981
       TS =        0.0000006878696540
-------------------------------------
        F =      -28.3845100446372527

IonicMinimize: Iter:   0  F: -28.384510044637253  |grad|_K:  0.000e+00  t[s]:    106.24
IonicMinimize: Converged (|grad|_K<1.000000e-04).

#--- Lowdin population analysis ---
# oxidation-state K +0.026
# magnetic-moments K +0.133

End date and time: Sat Feb  5 23:45:54 2022  (Duration: 0-0:01:46.29)
Done!
scale=4
magnetization=0.14
--------------------------------------------------------------------------
The library attempted to open the following supporting CUDA libraries,
but each of them failed.  CUDA-aware support is disabled.
libcuda.so.1: cannot open shared object file: No such file or directory
libcuda.dylib: cannot open shared object file: No such file or directory
/usr/lib64/libcuda.so.1: cannot open shared object file: No such file or directory
/usr/lib64/libcuda.dylib: cannot open shared object file: No such file or directory
If you are not interested in CUDA-aware support, then run with
--mca opal_warn_on_missing_libcuda 0 to suppress this message.  If you are interested
in CUDA-aware support, then try setting LD_LIBRARY_PATH to the location
of libcuda.so.1 to get passed this issue.
--------------------------------------------------------------------------
--------------------------------------------------------------------------
No OpenFabrics connection schemes reported that they were able to be
used on a specific port.  As such, the openib BTL (OpenFabrics
support) will be disabled for this port.

  Local host:           d-6-3-2
  Local device:         mlx5_1
  Local port:           1
  CPCs attempted:       rdmacm, udcm
--------------------------------------------------------------------------

*************** JDFTx 1.6.0 (git hash 42ebbcc2) ***************

Start date and time: Sat Feb  5 23:45:55 2022
Executable jdftx with command-line: -i Alkali.in
Running on hosts (process indices):  d-6-3-2 (0-18)
Divided in process groups (process indices):  0 (0)  1 (1)  2 (2)  3 (3)  4 (4)  5 (5)  6 (6)  7 (7)  8 (8)  9 (9)  10 (10)  11 (11)  12 (12)  13 (13)  14 (14)  15 (15)  16 (16)  17 (17)  18 (18)
Resource initialization completed at t[s]:      0.00
Run totals: 19 processes, 48 threads, 0 GPUs


Input parsed successfully to the following command list (including defaults):

basis kpoint-dependent
coords-type Lattice
core-overlap-check vector
coulomb-interaction Slab 001
davidson-band-ratio 1.1
dump End None
dump-name $INPUT.$VAR
elec-cutoff 20
elec-eigen-algo Davidson
elec-ex-corr gga-PBE
elec-initial-magnetization 0.140000 yes
elec-smearing Fermi 1e-05
electronic-minimize  \
	dirUpdateScheme      FletcherReeves \
	linminMethod         DirUpdateRecommended \
	nIterations          100 \
	history              15 \
	knormThreshold       0 \
	energyDiffThreshold  1e-08 \
	nEnergyDiff          2 \
	alphaTstart          1 \
	alphaTmin            1e-10 \
	updateTestStepSize   yes \
	alphaTreduceFactor   0.1 \
	alphaTincreaseFactor 3 \
	nAlphaAdjustMax      3 \
	wolfeEnergy          0.0001 \
	wolfeGradient        0.9 \
	fdTest               no
electronic-scf  \
	nIterations	10000 \
	energyDiffThreshold	1e-08 \
	residualThreshold	1e-07 \
	mixFraction	0.5 \
	qMetric	0.8 \
	history	10 \
	nEigSteps	2 \
	eigDiffThreshold	1e-08 \
	mixedVariable	Density \
	qKerker	0.8 \
	qKappa	-1 \
	verbose	no \
	mixFractionMag	1.5
exchange-regularization WignerSeitzTruncated
fluid None
fluid-ex-corr (null) lda-PZ
fluid-gummel-loop 10 1.000000e-05
fluid-minimize  \
	dirUpdateScheme      PolakRibiere \
	linminMethod         DirUpdateRecommended \
	nIterations          100 \
	history              15 \
	knormThreshold       0 \
	energyDiffThreshold  0 \
	nEnergyDiff          2 \
	alphaTstart          1 \
	alphaTmin            1e-10 \
	updateTestStepSize   yes \
	alphaTreduceFactor   0.1 \
	alphaTincreaseFactor 3 \
	nAlphaAdjustMax      3 \
	wolfeEnergy          0.0001 \
	wolfeGradient        0.9 \
	fdTest               no
fluid-solvent H2O 55.338 ScalarEOS \
	epsBulk 78.4 \
	pMol 0.92466 \
	epsInf 1.77 \
	Pvap 1.06736e-10 \
	sigmaBulk 4.62e-05 \
	Rvdw 2.61727 \
	Res 1.42 \
	tauNuc 343133 \
	poleEl 15 7 1
forces-output-coords Positions
ion K   0.000000000000000   0.000000000000000   0.000000000000000 0
ion-species SG15/$ID_ONCV_PBE.upf
ion-width 0
ionic-minimize  \
	dirUpdateScheme      L-BFGS \
	linminMethod         DirUpdateRecommended \
	nIterations          0 \
	history              15 \
	knormThreshold       0.0001 \
	energyDiffThreshold  1e-06 \
	nEnergyDiff          2 \
	alphaTstart          1 \
	alphaTmin            1e-10 \
	updateTestStepSize   yes \
	alphaTreduceFactor   0.1 \
	alphaTincreaseFactor 3 \
	nAlphaAdjustMax      3 \
	wolfeEnergy          0.0001 \
	wolfeGradient        0.9 \
	fdTest               no
kpoint   0.000000000000   0.000000000000   0.000000000000  1.00000000000000
kpoint-folding 12 12 1 
latt-move-scale 1 1 1
latt-scale 4 4 1 
lattice  \
	   4.727486978767153   -2.363743489383575    0.000000000000000  \
	  -0.000000000000000    4.094123819672498    0.000000000000000  \
	   0.000000000000000    0.000000000000000   40.000000000000000 
lattice-minimize  \
	dirUpdateScheme      L-BFGS \
	linminMethod         DirUpdateRecommended \
	nIterations          0 \
	history              15 \
	knormThreshold       0 \
	energyDiffThreshold  1e-06 \
	nEnergyDiff          2 \
	alphaTstart          1 \
	alphaTmin            1e-10 \
	updateTestStepSize   yes \
	alphaTreduceFactor   0.1 \
	alphaTincreaseFactor 3 \
	nAlphaAdjustMax      3 \
	wolfeEnergy          0.0001 \
	wolfeGradient        0.9 \
	fdTest               no
lcao-params -1 1e-06 1e-05
pcm-variant GLSSA13
spintype z-spin
subspace-rotation-factor 1 yes
symmetries automatic
symmetry-threshold 0.0001



---------- Setting up symmetries ----------

Found 24 point-group symmetries of the bravais lattice
Found 24 space-group symmetries with basis
Applied RMS atom displacement 0 bohrs to make symmetries exact.

---------- Initializing the Grid ----------
R = 
[      18.9099     -9.45497            0  ]
[            0      16.3765            0  ]
[            0            0           40  ]
unit cell volume = 12387.1
G =
[   0.332269   0.191835         -0  ]
[          0   0.383671         -0  ]
[         -0         -0    0.15708  ]
Minimum fftbox size, Smin = [  80  80  164  ]
Chosen fftbox size, S = [  80  80  168  ]

---------- Exchange Correlation functional ----------
Initalized PBE GGA exchange.
Initalized PBE GGA correlation.

---------- Setting up pseudopotentials ----------
Width of ionic core gaussian charges (only for fluid interactions / plotting) set to 0

Reading pseudopotential file '/home/gridsan/aligho/DFT/build-Nov24/pseudopotentials/SG15/K_ONCV_PBE.upf':
  'K' pseudopotential, 'PBE' functional
  Generated using ONCVPSP code by D. R. Hamann
  Author: Martin Schlipf and Francois Gygi  Date: 150915.
  9 valence electrons, 3 orbitals, 6 projectors, 2222 radial grid points, with lMax = 2
  Transforming local potential to a uniform radial grid of dG=0.02 with 1489 points.
  Transforming nonlocal projectors to a uniform radial grid of dG=0.02 with 432 points.
    3S    l: 0   occupation:  2.0   eigenvalue: -1.298836
    3P    l: 1   occupation:  6.0   eigenvalue: -0.691386
    4S    l: 0   occupation:  1.0   eigenvalue: -0.085223
  Transforming atomic orbitals to a uniform radial grid of dG=0.02 with 432 points.
  Core radius for overlap checks: 2.06 bohrs.
  Reading pulay file /home/gridsan/aligho/DFT/build-Nov24/pseudopotentials/SG15/K_ONCV_PBE.pulay ... using dE_dnG = -1.597219e-05 computed for Ecut = 20.

Initialized 1 species with 1 total atoms.

Folded 1 k-points by 12x12x1 to 144 k-points.

---------- Setting up k-points, bands, fillings ----------
Reduced to 19 k-points under symmetry. 
Computing the number of bands and number of electrons
Calculating initial fillings.
nElectrons:   9.000000   nBands: 6   nStates: 38

----- Setting up reduced wavefunction bases (one per k-point) -----
average nbasis = 52924.021 , ideal nbasis = 52918.836

---------- Setting up coulomb interaction ----------
Initialized slab truncation along lattice direction 001

---------- Setting up 2D ewald sum ----------
Optimum gaussian width for ewald sums = 10.498040 bohr.
Real space sums over 289 unit cells with max indices [  8  8  0  ]
Reciprocal space sums over 81 terms with max indices [  4  4  0  ]

---------- Allocating electronic variables ----------
Initializing wave functions:  linear combination of atomic orbitals
Note: number of bands (6) exceeds available atomic orbitals (5)
K pseudo-atom occupations:   s ( 2 1 )  p ( 6 )
[d-6-3-2:94925] 18 more processes have sent help message help-mpi-common-cuda.txt / dlopen failed
[d-6-3-2:94925] Set MCA parameter "orte_base_help_aggregate" to 0 to see all help / error messages
[d-6-3-2:94925] 18 more processes have sent help message help-mpi-btl-openib-cpc-base.txt / no cpcs for port
	FillingsUpdate:  mu: -0.085749460  nElectrons: 9.000000  magneticMoment: [ Abs: 0.14000  Tot: +0.14000 ]
LCAOMinimize: Iter:   0  F: -28.3774239579079044  |grad|_K:  3.891e-06  alpha:  1.000e+00
	FillingsUpdate:  mu: -0.085748687  nElectrons: 9.000000  magneticMoment: [ Abs: 0.14000  Tot: +0.14000 ]
LCAOMinimize: Iter:   1  F: -28.3774239681471734  |grad|_K:  1.656e-08  alpha:  9.888e-01  linmin: -6.465e-03  cgtest:  2.777e-01  t[s]:     14.85
LCAOMinimize: Encountered beta<0, resetting CG.
	FillingsUpdate:  mu: -0.085748687  nElectrons: 9.000000  magneticMoment: [ Abs: 0.14000  Tot: +0.14000 ]
LCAOMinimize: Iter:   2  F: -28.3774239681473404  |grad|_K:  7.368e-09  alpha:  5.553e-01  linmin: -1.512e-02  cgtest:  1.000e+00  t[s]:     18.75
LCAOMinimize: Encountered beta<0, resetting CG.
LCAOMinimize: Converged (|Delta F|<1.000000e-06 for 2 iters).


---- Citations for features of the code used in this run ----

   Software package:
      R. Sundararaman, K. Letchworth-Weaver, K.A. Schwarz, D. Gunceler, Y. Ozhabes and T.A. Arias, 'JDFTx: software for joint density-functional theory', SoftwareX 6, 278 (2017)

   gga-PBE exchange-correlation functional:
      J.P. Perdew, K. Burke and M. Ernzerhof, Phys. Rev. Lett. 77, 3865 (1996)

   Pseudopotentials:
      M Schlipf and F Gygi, Comput. Phys. Commun. 196, 36 (2015)

   Truncated Coulomb potentials:
      R. Sundararaman and T.A. Arias, Phys. Rev. B 87, 165122 (2013)

This list may not be complete. Please suggest additional citations or
report any other bugs at https://github.com/shankar1729/jdftx/issues

Initialization completed successfully at t[s]:     19.02


-------- Electronic minimization -----------
Will mix electronic density at each iteration.
	FillingsUpdate:  mu: -0.085748687  nElectrons: 9.000000  magneticMoment: [ Abs: 0.14000  Tot: +0.14000 ]
	FillingsUpdate:  mu: -0.085820052  nElectrons: 9.000000  magneticMoment: [ Abs: 0.14000  Tot: +0.14000 ]
SCF: Cycle:  0   F: -28.377505675374554   dF: -8.171e-05   |Residual|: 5.890e-04   |deigs|: 1.760e-01  t[s]:     27.07
	FillingsUpdate:  mu: -0.085856544  nElectrons: 9.000000  magneticMoment: [ Abs: 0.14019  Tot: +0.14000 ]
SCF: Cycle:  1   F: -28.377506662577115   dF: -9.872e-07   |Residual|: 4.045e-04   |deigs|: 4.560e-03  t[s]:     33.43
	FillingsUpdate:  mu: -0.085907976  nElectrons: 9.000000  magneticMoment: [ Abs: 0.14026  Tot: +0.14000 ]
SCF: Cycle:  2   F: -28.377506979594781   dF: -3.170e-07   |Residual|: 3.162e-04   |deigs|: 1.682e-03  t[s]:     39.90
	FillingsUpdate:  mu: -0.085999117  nElectrons: 9.000000  magneticMoment: [ Abs: 0.14039  Tot: +0.14000 ]
SCF: Cycle:  3   F: -28.377507294809707   dF: -3.152e-07   |Residual|: 2.126e-04   |deigs|: 4.499e-04  t[s]:     46.42
	FillingsUpdate:  mu: -0.086089430  nElectrons: 9.000000  magneticMoment: [ Abs: 0.14038  Tot: +0.14000 ]
SCF: Cycle:  4   F: -28.377507622262520   dF: -3.275e-07   |Residual|: 1.316e-04   |deigs|: 7.705e-04  t[s]:     53.13
	FillingsUpdate:  mu: -0.086125680  nElectrons: 9.000000  magneticMoment: [ Abs: 0.14046  Tot: +0.14000 ]
SCF: Cycle:  5   F: -28.377507811968279   dF: -1.897e-07   |Residual|: 9.805e-05   |deigs|: 4.620e-04  t[s]:     59.91
	FillingsUpdate:  mu: -0.086127645  nElectrons: 9.000000  magneticMoment: [ Abs: 0.14040  Tot: +0.14000 ]
SCF: Cycle:  6   F: -28.377507965711295   dF: -1.537e-07   |Residual|: 5.847e-05   |deigs|: 4.095e-04  t[s]:     66.83
	FillingsUpdate:  mu: -0.086120037  nElectrons: 9.000000  magneticMoment: [ Abs: 0.14037  Tot: +0.14000 ]
SCF: Cycle:  7   F: -28.377508039716918   dF: -7.401e-08   |Residual|: 4.411e-05   |deigs|: 5.423e-04  t[s]:     73.91
	FillingsUpdate:  mu: -0.086102922  nElectrons: 9.000000  magneticMoment: [ Abs: 0.14035  Tot: +0.14000 ]
SCF: Cycle:  8   F: -28.377508078683352   dF: -3.897e-08   |Residual|: 2.865e-05   |deigs|: 2.921e-04  t[s]:     80.98
	FillingsUpdate:  mu: -0.086090945  nElectrons: 9.000000  magneticMoment: [ Abs: 0.14031  Tot: +0.14000 ]
SCF: Cycle:  9   F: -28.377508097382830   dF: -1.870e-08   |Residual|: 2.246e-05   |deigs|: 1.491e-04  t[s]:     88.22
	FillingsUpdate:  mu: -0.086081824  nElectrons: 9.000000  magneticMoment: [ Abs: 0.14032  Tot: +0.14000 ]
SCF: Cycle: 10   F: -28.377508096004107   dF: +1.379e-09   |Residual|: 1.958e-05   |deigs|: 7.859e-05  t[s]:     95.59
	FillingsUpdate:  mu: -0.086066102  nElectrons: 9.000000  magneticMoment: [ Abs: 0.14037  Tot: +0.14000 ]
SCF: Cycle: 11   F: -28.377508064241884   dF: +3.176e-08   |Residual|: 1.773e-05   |deigs|: 6.821e-05  t[s]:    102.96
	FillingsUpdate:  mu: -0.086052406  nElectrons: 9.000000  magneticMoment: [ Abs: 0.14035  Tot: +0.14000 ]
SCF: Cycle: 12   F: -28.377508073088784   dF: -8.847e-09   |Residual|: 1.597e-05   |deigs|: 7.720e-05  t[s]:    110.28
	FillingsUpdate:  mu: -0.086037613  nElectrons: 9.000000  magneticMoment: [ Abs: 0.14032  Tot: +0.14000 ]
SCF: Cycle: 13   F: -28.377508080074449   dF: -6.986e-09   |Residual|: 1.387e-05   |deigs|: 7.078e-05  t[s]:    117.57
SCF: Converged (|Delta E|<1.000000e-08 for 2 iters).


# Ionic positions in lattice coordinates:
ion K   0.000000000000000   0.000000000000000   0.000000000000000 0

# Forces in Lattice coordinates:
force K  -0.000000000000000   0.000000000000000   0.000000000000000 0

# Energy components:
   Eewald =       -9.0240130501663280
       EH =       13.7554693760329201
     Eloc =      -35.9643275240698728
      Enl =       -2.7673724234122985
   Epulay =        0.0000000066859396
      Exc =       -4.2386999667713559
       KE =        9.8614361894965370
-------------------------------------
     Etot =      -28.3775073922044641
       TS =        0.0000006878699843
-------------------------------------
        F =      -28.3775080800744490

IonicMinimize: Iter:   0  F: -28.377508080074449  |grad|_K:  0.000e+00  t[s]:    117.98
IonicMinimize: Converged (|grad|_K<1.000000e-04).

#--- Lowdin population analysis ---
# oxidation-state K +0.001
# magnetic-moments K +0.140

End date and time: Sat Feb  5 23:47:53 2022  (Duration: 0-0:01:58.04)
Done!
