The alkali metal is K
scale=2
magnetization=0.12
--------------------------------------------------------------------------
The library attempted to open the following supporting CUDA libraries,
but each of them failed.  CUDA-aware support is disabled.
libcuda.so.1: cannot open shared object file: No such file or directory
libcuda.dylib: cannot open shared object file: No such file or directory
/usr/lib64/libcuda.so.1: cannot open shared object file: No such file or directory
/usr/lib64/libcuda.dylib: cannot open shared object file: No such file or directory
If you are not interested in CUDA-aware support, then run with
--mca opal_warn_on_missing_libcuda 0 to suppress this message.  If you are interested
in CUDA-aware support, then try setting LD_LIBRARY_PATH to the location
of libcuda.so.1 to get passed this issue.
--------------------------------------------------------------------------
--------------------------------------------------------------------------
No OpenFabrics connection schemes reported that they were able to be
used on a specific port.  As such, the openib BTL (OpenFabrics
support) will be disabled for this port.

  Local host:           d-4-6-3
  Local device:         mlx5_1
  Local port:           1
  CPCs attempted:       rdmacm, udcm
--------------------------------------------------------------------------

*************** JDFTx 1.6.0 (git hash 42ebbcc2) ***************

Start date and time: Sat Feb  5 23:43:06 2022
Executable jdftx with command-line: -i Alkali.in
Running on hosts (process indices):  d-4-6-3 (0-18)
Divided in process groups (process indices):  0 (0)  1 (1)  2 (2)  3 (3)  4 (4)  5 (5)  6 (6)  7 (7)  8 (8)  9 (9)  10 (10)  11 (11)  12 (12)  13 (13)  14 (14)  15 (15)  16 (16)  17 (17)  18 (18)
Resource initialization completed at t[s]:      0.00
Run totals: 19 processes, 48 threads, 0 GPUs


Input parsed successfully to the following command list (including defaults):

basis kpoint-dependent
coords-type Lattice
core-overlap-check vector
coulomb-interaction Slab 001
davidson-band-ratio 1.1
dump End None
dump-name $INPUT.$VAR
elec-cutoff 20
elec-eigen-algo Davidson
elec-ex-corr gga-PBE
elec-initial-magnetization 0.120000 yes
elec-smearing Fermi 1e-05
electronic-minimize  \
	dirUpdateScheme      FletcherReeves \
	linminMethod         DirUpdateRecommended \
	nIterations          100 \
	history              15 \
	knormThreshold       0 \
	energyDiffThreshold  1e-08 \
	nEnergyDiff          2 \
	alphaTstart          1 \
	alphaTmin            1e-10 \
	updateTestStepSize   yes \
	alphaTreduceFactor   0.1 \
	alphaTincreaseFactor 3 \
	nAlphaAdjustMax      3 \
	wolfeEnergy          0.0001 \
	wolfeGradient        0.9 \
	fdTest               no
electronic-scf  \
	nIterations	10000 \
	energyDiffThreshold	1e-08 \
	residualThreshold	1e-07 \
	mixFraction	0.5 \
	qMetric	0.8 \
	history	10 \
	nEigSteps	2 \
	eigDiffThreshold	1e-08 \
	mixedVariable	Density \
	qKerker	0.8 \
	qKappa	-1 \
	verbose	no \
	mixFractionMag	1.5
exchange-regularization WignerSeitzTruncated
fluid None
fluid-ex-corr (null) lda-PZ
fluid-gummel-loop 10 1.000000e-05
fluid-minimize  \
	dirUpdateScheme      PolakRibiere \
	linminMethod         DirUpdateRecommended \
	nIterations          100 \
	history              15 \
	knormThreshold       0 \
	energyDiffThreshold  0 \
	nEnergyDiff          2 \
	alphaTstart          1 \
	alphaTmin            1e-10 \
	updateTestStepSize   yes \
	alphaTreduceFactor   0.1 \
	alphaTincreaseFactor 3 \
	nAlphaAdjustMax      3 \
	wolfeEnergy          0.0001 \
	wolfeGradient        0.9 \
	fdTest               no
fluid-solvent H2O 55.338 ScalarEOS \
	epsBulk 78.4 \
	pMol 0.92466 \
	epsInf 1.77 \
	Pvap 1.06736e-10 \
	sigmaBulk 4.62e-05 \
	Rvdw 2.61727 \
	Res 1.42 \
	tauNuc 343133 \
	poleEl 15 7 1
forces-output-coords Positions
ion K   0.000000000000000   0.000000000000000   0.000000000000000 0
ion-species SG15/$ID_ONCV_PBE.upf
ion-width 0
ionic-minimize  \
	dirUpdateScheme      L-BFGS \
	linminMethod         DirUpdateRecommended \
	nIterations          0 \
	history              15 \
	knormThreshold       0.0001 \
	energyDiffThreshold  1e-06 \
	nEnergyDiff          2 \
	alphaTstart          1 \
	alphaTmin            1e-10 \
	updateTestStepSize   yes \
	alphaTreduceFactor   0.1 \
	alphaTincreaseFactor 3 \
	nAlphaAdjustMax      3 \
	wolfeEnergy          0.0001 \
	wolfeGradient        0.9 \
	fdTest               no
kpoint   0.000000000000   0.000000000000   0.000000000000  1.00000000000000
kpoint-folding 12 12 1 
latt-move-scale 1 1 1
latt-scale 2 2 1 
lattice  \
	   4.727486978767153   -2.363743489383575    0.000000000000000  \
	  -0.000000000000000    4.094123819672498    0.000000000000000  \
	   0.000000000000000    0.000000000000000   40.000000000000000 
lattice-minimize  \
	dirUpdateScheme      L-BFGS \
	linminMethod         DirUpdateRecommended \
	nIterations          0 \
	history              15 \
	knormThreshold       0 \
	energyDiffThreshold  1e-06 \
	nEnergyDiff          2 \
	alphaTstart          1 \
	alphaTmin            1e-10 \
	updateTestStepSize   yes \
	alphaTreduceFactor   0.1 \
	alphaTincreaseFactor 3 \
	nAlphaAdjustMax      3 \
	wolfeEnergy          0.0001 \
	wolfeGradient        0.9 \
	fdTest               no
lcao-params -1 1e-06 1e-05
pcm-variant GLSSA13
spintype z-spin
subspace-rotation-factor 1 yes
symmetries automatic
symmetry-threshold 0.0001



---------- Setting up symmetries ----------

Found 24 point-group symmetries of the bravais lattice
Found 24 space-group symmetries with basis
Applied RMS atom displacement 0 bohrs to make symmetries exact.

---------- Initializing the Grid ----------
R = 
[      9.45497     -4.72749            0  ]
[            0      8.18825            0  ]
[            0            0           40  ]
unit cell volume = 3096.79
G =
[   0.664538   0.383671         -0  ]
[          0   0.767342         -0  ]
[         -0         -0    0.15708  ]
Minimum fftbox size, Smin = [  40  40  164  ]
Chosen fftbox size, S = [  40  40  168  ]

---------- Exchange Correlation functional ----------
Initalized PBE GGA exchange.
Initalized PBE GGA correlation.

---------- Setting up pseudopotentials ----------
Width of ionic core gaussian charges (only for fluid interactions / plotting) set to 0

Reading pseudopotential file '/home/gridsan/aligho/DFT/build-Nov24/pseudopotentials/SG15/K_ONCV_PBE.upf':
  'K' pseudopotential, 'PBE' functional
  Generated using ONCVPSP code by D. R. Hamann
  Author: Martin Schlipf and Francois Gygi  Date: 150915.
  9 valence electrons, 3 orbitals, 6 projectors, 2222 radial grid points, with lMax = 2
  Transforming local potential to a uniform radial grid of dG=0.02 with 1489 points.
  Transforming nonlocal projectors to a uniform radial grid of dG=0.02 with 432 points.
    3S    l: 0   occupation:  2.0   eigenvalue: -1.298836
    3P    l: 1   occupation:  6.0   eigenvalue: -0.691386
    4S    l: 0   occupation:  1.0   eigenvalue: -0.085223
  Transforming atomic orbitals to a uniform radial grid of dG=0.02 with 432 points.
  Core radius for overlap checks: 2.06 bohrs.
  Reading pulay file /home/gridsan/aligho/DFT/build-Nov24/pseudopotentials/SG15/K_ONCV_PBE.pulay ... using dE_dnG = -1.597219e-05 computed for Ecut = 20.

Initialized 1 species with 1 total atoms.

Folded 1 k-points by 12x12x1 to 144 k-points.

---------- Setting up k-points, bands, fillings ----------
Reduced to 19 k-points under symmetry. 
Computing the number of bands and number of electrons
Calculating initial fillings.
nElectrons:   9.000000   nBands: 6   nStates: 38

----- Setting up reduced wavefunction bases (one per k-point) -----
average nbasis = 13230.521 , ideal nbasis = 13229.709

---------- Setting up coulomb interaction ----------
Initialized slab truncation along lattice direction 001

---------- Setting up 2D ewald sum ----------
Optimum gaussian width for ewald sums = 5.249020 bohr.
Real space sums over 289 unit cells with max indices [  8  8  0  ]
Reciprocal space sums over 81 terms with max indices [  4  4  0  ]

---------- Allocating electronic variables ----------
Initializing wave functions:  linear combination of atomic orbitals
Note: number of bands (6) exceeds available atomic orbitals (5)
K pseudo-atom occupations:   s ( 2 1 )  p ( 6 )
	FillingsUpdate:  mu: -0.096275023  nElectrons: 9.000000  magneticMoment: [ Abs: 0.12000  Tot: +0.12000 ]
LCAOMinimize: Iter:   0  F: -28.3987440172369290  |grad|_K:  4.382e-05  alpha:  1.000e+00
	FillingsUpdate:  mu: -0.096264822  nElectrons: 9.000000  magneticMoment: [ Abs: 0.12000  Tot: +0.12000 ]
LCAOMinimize: Iter:   1  F: -28.3987453028621140  |grad|_K:  4.688e-07  alpha:  9.791e-01  linmin: -3.202e-02  cgtest:  5.540e-01  t[s]:      4.64
LCAOMinimize: Encountered beta<0, resetting CG.
[d-4-6-3:73083] 18 more processes have sent help message help-mpi-common-cuda.txt / dlopen failed
[d-4-6-3:73083] Set MCA parameter "orte_base_help_aggregate" to 0 to see all help / error messages
[d-4-6-3:73083] 18 more processes have sent help message help-mpi-btl-openib-cpc-base.txt / no cpcs for port
	FillingsUpdate:  mu: -0.096264900  nElectrons: 9.000000  magneticMoment: [ Abs: 0.12000  Tot: +0.12000 ]
LCAOMinimize: Iter:   2  F: -28.3987453030120527  |grad|_K:  1.800e-09  alpha:  9.977e-01  linmin: -9.820e-02  cgtest:  8.923e-01  t[s]:      5.91
LCAOMinimize: Encountered beta<0, resetting CG.
LCAOMinimize: 	Wrong curvature in test step, increasing alphaT to 2.993211e+00.
	FillingsUpdate:  mu: -0.096264901  nElectrons: 9.000000  magneticMoment: [ Abs: 0.12000  Tot: +0.12000 ]
LCAOMinimize: Iter:   3  F: -28.3987453030122552  |grad|_K:  1.329e-11  alpha: -1.109e-02  linmin: -9.152e-03  cgtest:  1.040e-01  t[s]:      7.15
LCAOMinimize: Encountered beta<0, resetting CG.
LCAOMinimize: Converged (|Delta F|<1.000000e-06 for 2 iters).


---- Citations for features of the code used in this run ----

   Software package:
      R. Sundararaman, K. Letchworth-Weaver, K.A. Schwarz, D. Gunceler, Y. Ozhabes and T.A. Arias, 'JDFTx: software for joint density-functional theory', SoftwareX 6, 278 (2017)

   gga-PBE exchange-correlation functional:
      J.P. Perdew, K. Burke and M. Ernzerhof, Phys. Rev. Lett. 77, 3865 (1996)

   Pseudopotentials:
      M Schlipf and F Gygi, Comput. Phys. Commun. 196, 36 (2015)

   Truncated Coulomb potentials:
      R. Sundararaman and T.A. Arias, Phys. Rev. B 87, 165122 (2013)

This list may not be complete. Please suggest additional citations or
report any other bugs at https://github.com/shankar1729/jdftx/issues

Initialization completed successfully at t[s]:      7.24


-------- Electronic minimization -----------
Will mix electronic density at each iteration.
	FillingsUpdate:  mu: -0.096264901  nElectrons: 9.000000  magneticMoment: [ Abs: 0.12000  Tot: +0.12000 ]
	FillingsUpdate:  mu: -0.106598314  nElectrons: 9.000000  magneticMoment: [ Abs: 0.12000  Tot: +0.12000 ]
SCF: Cycle:  0   F: -28.403442280438004   dF: -4.697e-03   |Residual|: 8.062e-03   |deigs|: 1.749e-01  t[s]:      9.65
	FillingsUpdate:  mu: -0.106406773  nElectrons: 9.000000  magneticMoment: [ Abs: 0.12000  Tot: +0.12000 ]
SCF: Cycle:  1   F: -28.403545100542576   dF: -1.028e-04   |Residual|: 6.445e-03   |deigs|: 5.652e-03  t[s]:     11.54
	FillingsUpdate:  mu: -0.104358113  nElectrons: 9.000000  magneticMoment: [ Abs: 0.12541  Tot: +0.12000 ]
SCF: Cycle:  2   F: -28.403592077708407   dF: -4.698e-05   |Residual|: 2.622e-03   |deigs|: 3.911e-03  t[s]:     13.41
	FillingsUpdate:  mu: -0.103566953  nElectrons: 9.000000  magneticMoment: [ Abs: 0.12003  Tot: +0.12000 ]
SCF: Cycle:  3   F: -28.403634480650528   dF: -4.240e-05   |Residual|: 1.877e-03   |deigs|: 4.533e-03  t[s]:     15.42
	FillingsUpdate:  mu: -0.102266278  nElectrons: 9.000000  magneticMoment: [ Abs: 0.12032  Tot: +0.12000 ]
SCF: Cycle:  4   F: -28.403654774949182   dF: -2.029e-05   |Residual|: 1.572e-03   |deigs|: 3.131e-03  t[s]:     17.35
	FillingsUpdate:  mu: -0.100316585  nElectrons: 9.000000  magneticMoment: [ Abs: 0.12282  Tot: +0.12000 ]
SCF: Cycle:  5   F: -28.403667119723256   dF: -1.234e-05   |Residual|: 1.164e-03   |deigs|: 2.763e-03  t[s]:     19.28
	FillingsUpdate:  mu: -0.098788115  nElectrons: 9.000000  magneticMoment: [ Abs: 0.12358  Tot: +0.12000 ]
SCF: Cycle:  6   F: -28.403677821451314   dF: -1.070e-05   |Residual|: 8.954e-04   |deigs|: 4.128e-03  t[s]:     21.30
	FillingsUpdate:  mu: -0.098104035  nElectrons: 9.000000  magneticMoment: [ Abs: 0.12186  Tot: +0.12000 ]
SCF: Cycle:  7   F: -28.403694435203779   dF: -1.661e-05   |Residual|: 7.518e-04   |deigs|: 1.042e-03  t[s]:     23.28
	FillingsUpdate:  mu: -0.097353444  nElectrons: 9.000000  magneticMoment: [ Abs: 0.12116  Tot: +0.12000 ]
SCF: Cycle:  8   F: -28.403706024259169   dF: -1.159e-05   |Residual|: 6.029e-04   |deigs|: 8.587e-04  t[s]:     25.31
	FillingsUpdate:  mu: -0.096239087  nElectrons: 9.000000  magneticMoment: [ Abs: 0.12182  Tot: +0.12000 ]
SCF: Cycle:  9   F: -28.403703447735019   dF: +2.577e-06   |Residual|: 5.092e-04   |deigs|: 1.177e-03  t[s]:     27.39
	FillingsUpdate:  mu: -0.095174025  nElectrons: 9.000000  magneticMoment: [ Abs: 0.12189  Tot: +0.12000 ]
SCF: Cycle: 10   F: -28.403703466992084   dF: -1.926e-08   |Residual|: 4.839e-04   |deigs|: 1.369e-03  t[s]:     29.46
	FillingsUpdate:  mu: -0.094079980  nElectrons: 9.000000  magneticMoment: [ Abs: 0.12098  Tot: +0.12000 ]
SCF: Cycle: 11   F: -28.403712496056986   dF: -9.029e-06   |Residual|: 4.285e-04   |deigs|: 1.122e-03  t[s]:     31.62
	FillingsUpdate:  mu: -0.093098397  nElectrons: 9.000000  magneticMoment: [ Abs: 0.12225  Tot: +0.12000 ]
SCF: Cycle: 12   F: -28.403720154279149   dF: -7.658e-06   |Residual|: 3.865e-04   |deigs|: 9.191e-04  t[s]:     33.68
	FillingsUpdate:  mu: -0.091981840  nElectrons: 9.000000  magneticMoment: [ Abs: 0.12251  Tot: +0.12000 ]
SCF: Cycle: 13   F: -28.403724389298119   dF: -4.235e-06   |Residual|: 3.698e-04   |deigs|: 1.177e-03  t[s]:     35.69
	FillingsUpdate:  mu: -0.090963447  nElectrons: 9.000000  magneticMoment: [ Abs: 0.12092  Tot: +0.12000 ]
SCF: Cycle: 14   F: -28.403727599042707   dF: -3.210e-06   |Residual|: 3.069e-04   |deigs|: 1.096e-03  t[s]:     37.93
	FillingsUpdate:  mu: -0.090492653  nElectrons: 9.000000  magneticMoment: [ Abs: 0.12008  Tot: +0.12000 ]
SCF: Cycle: 15   F: -28.403729178325907   dF: -1.579e-06   |Residual|: 2.490e-04   |deigs|: 5.059e-04  t[s]:     40.00
	FillingsUpdate:  mu: -0.090201046  nElectrons: 9.000000  magneticMoment: [ Abs: 0.12060  Tot: +0.12000 ]
SCF: Cycle: 16   F: -28.403730491103051   dF: -1.313e-06   |Residual|: 1.228e-04   |deigs|: 2.790e-04  t[s]:     42.17
	FillingsUpdate:  mu: -0.089957015  nElectrons: 9.000000  magneticMoment: [ Abs: 0.12030  Tot: +0.12000 ]
SCF: Cycle: 17   F: -28.403730777735991   dF: -2.866e-07   |Residual|: 7.973e-05   |deigs|: 2.775e-04  t[s]:     44.17
	FillingsUpdate:  mu: -0.089948159  nElectrons: 9.000000  magneticMoment: [ Abs: 0.12006  Tot: +0.12000 ]
SCF: Cycle: 18   F: -28.403730963163046   dF: -1.854e-07   |Residual|: 4.687e-05   |deigs|: 3.812e-05  t[s]:     46.27
	FillingsUpdate:  mu: -0.089933291  nElectrons: 9.000000  magneticMoment: [ Abs: 0.12013  Tot: +0.12000 ]
SCF: Cycle: 19   F: -28.403731059768919   dF: -9.661e-08   |Residual|: 3.025e-05   |deigs|: 2.503e-05  t[s]:     48.34
	FillingsUpdate:  mu: -0.089911791  nElectrons: 9.000000  magneticMoment: [ Abs: 0.12009  Tot: +0.12000 ]
SCF: Cycle: 20   F: -28.403731111411656   dF: -5.164e-08   |Residual|: 1.694e-05   |deigs|: 2.545e-05  t[s]:     50.35
	FillingsUpdate:  mu: -0.089914117  nElectrons: 9.000000  magneticMoment: [ Abs: 0.12005  Tot: +0.12000 ]
SCF: Cycle: 21   F: -28.403731143515635   dF: -3.210e-08   |Residual|: 7.633e-06   |deigs|: 1.091e-05  t[s]:     52.39
	FillingsUpdate:  mu: -0.089915923  nElectrons: 9.000000  magneticMoment: [ Abs: 0.12004  Tot: +0.12000 ]
SCF: Cycle: 22   F: -28.403731161665089   dF: -1.815e-08   |Residual|: 3.319e-06   |deigs|: 9.521e-06  t[s]:     54.34
	FillingsUpdate:  mu: -0.089913414  nElectrons: 9.000000  magneticMoment: [ Abs: 0.12005  Tot: +0.12000 ]
SCF: Cycle: 23   F: -28.403731176926350   dF: -1.526e-08   |Residual|: 2.285e-06   |deigs|: 9.829e-06  t[s]:     56.17
	FillingsUpdate:  mu: -0.089912175  nElectrons: 9.000000  magneticMoment: [ Abs: 0.12004  Tot: +0.12000 ]
SCF: Cycle: 24   F: -28.403731187414188   dF: -1.049e-08   |Residual|: 1.579e-06   |deigs|: 1.059e-05  t[s]:     58.12
	FillingsUpdate:  mu: -0.089909403  nElectrons: 9.000000  magneticMoment: [ Abs: 0.12004  Tot: +0.12000 ]
SCF: Cycle: 25   F: -28.403731192552630   dF: -5.138e-09   |Residual|: 1.312e-06   |deigs|: 1.084e-05  t[s]:     60.04
	FillingsUpdate:  mu: -0.089910233  nElectrons: 9.000000  magneticMoment: [ Abs: 0.12003  Tot: +0.12000 ]
SCF: Cycle: 26   F: -28.403731195004884   dF: -2.452e-09   |Residual|: 8.931e-07   |deigs|: 1.187e-05  t[s]:     61.89
SCF: Converged (|Delta E|<1.000000e-08 for 2 iters).


# Ionic positions in lattice coordinates:
ion K   0.000000000000000   0.000000000000000   0.000000000000000 0

# Forces in Lattice coordinates:
force K   0.000000000000000   0.000000000000000   0.000000000000000 0

# Energy components:
   Eewald =      -18.0480261003326561
       EH =        4.8671115881371056
     Eloc =      -18.0595326592005634
      Enl =       -2.7736458839984857
   Epulay =        0.0000000041876954
      Exc =       -4.2623143522373601
       KE =        9.8726771676548495
-------------------------------------
     Etot =      -28.4037302357894106
       TS =        0.0000009592154742
-------------------------------------
        F =      -28.4037311950048839

IonicMinimize: Iter:   0  F: -28.403731195004884  |grad|_K:  0.000e+00  t[s]:     62.01
IonicMinimize: Converged (|grad|_K<1.000000e-04).

#--- Lowdin population analysis ---
# oxidation-state K +0.038
# magnetic-moments K +0.106

End date and time: Sat Feb  5 23:44:08 2022  (Duration: 0-0:01:02.03)
Done!
scale=3
magnetization=0.12
--------------------------------------------------------------------------
The library attempted to open the following supporting CUDA libraries,
but each of them failed.  CUDA-aware support is disabled.
libcuda.so.1: cannot open shared object file: No such file or directory
libcuda.dylib: cannot open shared object file: No such file or directory
/usr/lib64/libcuda.so.1: cannot open shared object file: No such file or directory
/usr/lib64/libcuda.dylib: cannot open shared object file: No such file or directory
If you are not interested in CUDA-aware support, then run with
--mca opal_warn_on_missing_libcuda 0 to suppress this message.  If you are interested
in CUDA-aware support, then try setting LD_LIBRARY_PATH to the location
of libcuda.so.1 to get passed this issue.
--------------------------------------------------------------------------
--------------------------------------------------------------------------
No OpenFabrics connection schemes reported that they were able to be
used on a specific port.  As such, the openib BTL (OpenFabrics
support) will be disabled for this port.

  Local host:           d-4-6-3
  Local device:         mlx5_1
  Local port:           1
  CPCs attempted:       rdmacm, udcm
--------------------------------------------------------------------------

*************** JDFTx 1.6.0 (git hash 42ebbcc2) ***************

Start date and time: Sat Feb  5 23:44:09 2022
Executable jdftx with command-line: -i Alkali.in
Running on hosts (process indices):  d-4-6-3 (0-18)
Divided in process groups (process indices):  0 (0)  1 (1)  2 (2)  3 (3)  4 (4)  5 (5)  6 (6)  7 (7)  8 (8)  9 (9)  10 (10)  11 (11)  12 (12)  13 (13)  14 (14)  15 (15)  16 (16)  17 (17)  18 (18)
Resource initialization completed at t[s]:      0.00
Run totals: 19 processes, 48 threads, 0 GPUs


Input parsed successfully to the following command list (including defaults):

basis kpoint-dependent
coords-type Lattice
core-overlap-check vector
coulomb-interaction Slab 001
davidson-band-ratio 1.1
dump End None
dump-name $INPUT.$VAR
elec-cutoff 20
elec-eigen-algo Davidson
elec-ex-corr gga-PBE
elec-initial-magnetization 0.120000 yes
elec-smearing Fermi 1e-05
electronic-minimize  \
	dirUpdateScheme      FletcherReeves \
	linminMethod         DirUpdateRecommended \
	nIterations          100 \
	history              15 \
	knormThreshold       0 \
	energyDiffThreshold  1e-08 \
	nEnergyDiff          2 \
	alphaTstart          1 \
	alphaTmin            1e-10 \
	updateTestStepSize   yes \
	alphaTreduceFactor   0.1 \
	alphaTincreaseFactor 3 \
	nAlphaAdjustMax      3 \
	wolfeEnergy          0.0001 \
	wolfeGradient        0.9 \
	fdTest               no
electronic-scf  \
	nIterations	10000 \
	energyDiffThreshold	1e-08 \
	residualThreshold	1e-07 \
	mixFraction	0.5 \
	qMetric	0.8 \
	history	10 \
	nEigSteps	2 \
	eigDiffThreshold	1e-08 \
	mixedVariable	Density \
	qKerker	0.8 \
	qKappa	-1 \
	verbose	no \
	mixFractionMag	1.5
exchange-regularization WignerSeitzTruncated
fluid None
fluid-ex-corr (null) lda-PZ
fluid-gummel-loop 10 1.000000e-05
fluid-minimize  \
	dirUpdateScheme      PolakRibiere \
	linminMethod         DirUpdateRecommended \
	nIterations          100 \
	history              15 \
	knormThreshold       0 \
	energyDiffThreshold  0 \
	nEnergyDiff          2 \
	alphaTstart          1 \
	alphaTmin            1e-10 \
	updateTestStepSize   yes \
	alphaTreduceFactor   0.1 \
	alphaTincreaseFactor 3 \
	nAlphaAdjustMax      3 \
	wolfeEnergy          0.0001 \
	wolfeGradient        0.9 \
	fdTest               no
fluid-solvent H2O 55.338 ScalarEOS \
	epsBulk 78.4 \
	pMol 0.92466 \
	epsInf 1.77 \
	Pvap 1.06736e-10 \
	sigmaBulk 4.62e-05 \
	Rvdw 2.61727 \
	Res 1.42 \
	tauNuc 343133 \
	poleEl 15 7 1
forces-output-coords Positions
ion K   0.000000000000000   0.000000000000000   0.000000000000000 0
ion-species SG15/$ID_ONCV_PBE.upf
ion-width 0
ionic-minimize  \
	dirUpdateScheme      L-BFGS \
	linminMethod         DirUpdateRecommended \
	nIterations          0 \
	history              15 \
	knormThreshold       0.0001 \
	energyDiffThreshold  1e-06 \
	nEnergyDiff          2 \
	alphaTstart          1 \
	alphaTmin            1e-10 \
	updateTestStepSize   yes \
	alphaTreduceFactor   0.1 \
	alphaTincreaseFactor 3 \
	nAlphaAdjustMax      3 \
	wolfeEnergy          0.0001 \
	wolfeGradient        0.9 \
	fdTest               no
kpoint   0.000000000000   0.000000000000   0.000000000000  1.00000000000000
kpoint-folding 12 12 1 
latt-move-scale 1 1 1
latt-scale 3 3 1 
lattice  \
	   4.727486978767153   -2.363743489383575    0.000000000000000  \
	  -0.000000000000000    4.094123819672498    0.000000000000000  \
	   0.000000000000000    0.000000000000000   40.000000000000000 
lattice-minimize  \
	dirUpdateScheme      L-BFGS \
	linminMethod         DirUpdateRecommended \
	nIterations          0 \
	history              15 \
	knormThreshold       0 \
	energyDiffThreshold  1e-06 \
	nEnergyDiff          2 \
	alphaTstart          1 \
	alphaTmin            1e-10 \
	updateTestStepSize   yes \
	alphaTreduceFactor   0.1 \
	alphaTincreaseFactor 3 \
	nAlphaAdjustMax      3 \
	wolfeEnergy          0.0001 \
	wolfeGradient        0.9 \
	fdTest               no
lcao-params -1 1e-06 1e-05
pcm-variant GLSSA13
spintype z-spin
subspace-rotation-factor 1 yes
symmetries automatic
symmetry-threshold 0.0001



---------- Setting up symmetries ----------

Found 24 point-group symmetries of the bravais lattice
Found 24 space-group symmetries with basis
Applied RMS atom displacement 0 bohrs to make symmetries exact.

---------- Initializing the Grid ----------
R = 
[      14.1825     -7.09123            0  ]
[            0      12.2824            0  ]
[            0            0           40  ]
unit cell volume = 6967.77
G =
[   0.443025   0.255781         -0  ]
[          0   0.511561         -0  ]
[         -0         -0    0.15708  ]
Minimum fftbox size, Smin = [  60  60  164  ]
Chosen fftbox size, S = [  60  60  168  ]

---------- Exchange Correlation functional ----------
Initalized PBE GGA exchange.
Initalized PBE GGA correlation.

---------- Setting up pseudopotentials ----------
Width of ionic core gaussian charges (only for fluid interactions / plotting) set to 0

Reading pseudopotential file '/home/gridsan/aligho/DFT/build-Nov24/pseudopotentials/SG15/K_ONCV_PBE.upf':
  'K' pseudopotential, 'PBE' functional
  Generated using ONCVPSP code by D. R. Hamann
  Author: Martin Schlipf and Francois Gygi  Date: 150915.
  9 valence electrons, 3 orbitals, 6 projectors, 2222 radial grid points, with lMax = 2
  Transforming local potential to a uniform radial grid of dG=0.02 with 1489 points.
  Transforming nonlocal projectors to a uniform radial grid of dG=0.02 with 432 points.
    3S    l: 0   occupation:  2.0   eigenvalue: -1.298836
    3P    l: 1   occupation:  6.0   eigenvalue: -0.691386
    4S    l: 0   occupation:  1.0   eigenvalue: -0.085223
  Transforming atomic orbitals to a uniform radial grid of dG=0.02 with 432 points.
  Core radius for overlap checks: 2.06 bohrs.
  Reading pulay file /home/gridsan/aligho/DFT/build-Nov24/pseudopotentials/SG15/K_ONCV_PBE.pulay ... using dE_dnG = -1.597219e-05 computed for Ecut = 20.

Initialized 1 species with 1 total atoms.

Folded 1 k-points by 12x12x1 to 144 k-points.

---------- Setting up k-points, bands, fillings ----------
Reduced to 19 k-points under symmetry. 
Computing the number of bands and number of electrons
Calculating initial fillings.
nElectrons:   9.000000   nBands: 6   nStates: 38

----- Setting up reduced wavefunction bases (one per k-point) -----
average nbasis = 29766.104 , ideal nbasis = 29766.845

---------- Setting up coulomb interaction ----------
Initialized slab truncation along lattice direction 001

---------- Setting up 2D ewald sum ----------
Optimum gaussian width for ewald sums = 7.873530 bohr.
Real space sums over 289 unit cells with max indices [  8  8  0  ]
Reciprocal space sums over 81 terms with max indices [  4  4  0  ]

---------- Allocating electronic variables ----------
Initializing wave functions:  linear combination of atomic orbitals
Note: number of bands (6) exceeds available atomic orbitals (5)
K pseudo-atom occupations:   s ( 2 1 )  p ( 6 )
[d-4-6-3:54137] 18 more processes have sent help message help-mpi-common-cuda.txt / dlopen failed
[d-4-6-3:54137] Set MCA parameter "orte_base_help_aggregate" to 0 to see all help / error messages
[d-4-6-3:54137] 18 more processes have sent help message help-mpi-btl-openib-cpc-base.txt / no cpcs for port
	FillingsUpdate:  mu: -0.086363635  nElectrons: 9.000000  magneticMoment: [ Abs: 0.12000  Tot: +0.12000 ]
LCAOMinimize: Iter:   0  F: -28.3829331087755499  |grad|_K:  1.861e-05  alpha:  1.000e+00
	FillingsUpdate:  mu: -0.086359852  nElectrons: 9.000000  magneticMoment: [ Abs: 0.12000  Tot: +0.12000 ]
LCAOMinimize: Iter:   1  F: -28.3829333426363632  |grad|_K:  1.373e-07  alpha:  9.877e-01  linmin: -1.528e-02  cgtest:  4.897e-01  t[s]:      8.75
LCAOMinimize: Encountered beta<0, resetting CG.
	FillingsUpdate:  mu: -0.086359848  nElectrons: 9.000000  magneticMoment: [ Abs: 0.12000  Tot: +0.12000 ]
LCAOMinimize: Iter:   2  F: -28.3829333426492241  |grad|_K:  2.321e-10  alpha:  1.002e+00  linmin:  2.897e-02  cgtest: -5.494e-01  t[s]:     11.12
LCAOMinimize: Converged (|Delta F|<1.000000e-06 for 2 iters).


---- Citations for features of the code used in this run ----

   Software package:
      R. Sundararaman, K. Letchworth-Weaver, K.A. Schwarz, D. Gunceler, Y. Ozhabes and T.A. Arias, 'JDFTx: software for joint density-functional theory', SoftwareX 6, 278 (2017)

   gga-PBE exchange-correlation functional:
      J.P. Perdew, K. Burke and M. Ernzerhof, Phys. Rev. Lett. 77, 3865 (1996)

   Pseudopotentials:
      M Schlipf and F Gygi, Comput. Phys. Commun. 196, 36 (2015)

   Truncated Coulomb potentials:
      R. Sundararaman and T.A. Arias, Phys. Rev. B 87, 165122 (2013)

This list may not be complete. Please suggest additional citations or
report any other bugs at https://github.com/shankar1729/jdftx/issues

Initialization completed successfully at t[s]:     11.28


-------- Electronic minimization -----------
Will mix electronic density at each iteration.
	FillingsUpdate:  mu: -0.086359848  nElectrons: 9.000000  magneticMoment: [ Abs: 0.12000  Tot: +0.12000 ]
	FillingsUpdate:  mu: -0.088287677  nElectrons: 9.000000  magneticMoment: [ Abs: 0.12000  Tot: +0.12000 ]
SCF: Cycle:  0   F: -28.384426583294847   dF: -1.493e-03   |Residual|: 3.331e-03   |deigs|: 1.746e-01  t[s]:     16.07
	FillingsUpdate:  mu: -0.088510795  nElectrons: 9.000000  magneticMoment: [ Abs: 0.12000  Tot: +0.12000 ]
SCF: Cycle:  1   F: -28.384448680906150   dF: -2.210e-05   |Residual|: 2.869e-03   |deigs|: 4.697e-03  t[s]:     19.87
	FillingsUpdate:  mu: -0.089192492  nElectrons: 9.000000  magneticMoment: [ Abs: 0.12185  Tot: +0.12000 ]
SCF: Cycle:  2   F: -28.384480158202170   dF: -3.148e-05   |Residual|: 1.321e-03   |deigs|: 3.326e-03  t[s]:     23.68
	FillingsUpdate:  mu: -0.089351062  nElectrons: 9.000000  magneticMoment: [ Abs: 0.12033  Tot: +0.12000 ]
SCF: Cycle:  3   F: -28.384489381026984   dF: -9.223e-06   |Residual|: 7.957e-04   |deigs|: 1.873e-03  t[s]:     27.57
	FillingsUpdate:  mu: -0.089292534  nElectrons: 9.000000  magneticMoment: [ Abs: 0.12014  Tot: +0.12000 ]
SCF: Cycle:  4   F: -28.384494779117421   dF: -5.398e-06   |Residual|: 5.056e-04   |deigs|: 2.151e-03  t[s]:     31.49
	FillingsUpdate:  mu: -0.089241787  nElectrons: 9.000000  magneticMoment: [ Abs: 0.12019  Tot: +0.12000 ]
SCF: Cycle:  5   F: -28.384497876402371   dF: -3.097e-06   |Residual|: 3.646e-04   |deigs|: 2.242e-03  t[s]:     35.46
	FillingsUpdate:  mu: -0.089094436  nElectrons: 9.000000  magneticMoment: [ Abs: 0.12010  Tot: +0.12000 ]
SCF: Cycle:  6   F: -28.384499380865815   dF: -1.504e-06   |Residual|: 2.739e-04   |deigs|: 1.413e-03  t[s]:     39.53
	FillingsUpdate:  mu: -0.088890388  nElectrons: 9.000000  magneticMoment: [ Abs: 0.12039  Tot: +0.12000 ]
SCF: Cycle:  7   F: -28.384499968299320   dF: -5.874e-07   |Residual|: 2.166e-04   |deigs|: 1.398e-03  t[s]:     43.65
	FillingsUpdate:  mu: -0.088714415  nElectrons: 9.000000  magneticMoment: [ Abs: 0.12065  Tot: +0.12000 ]
SCF: Cycle:  8   F: -28.384500052380908   dF: -8.408e-08   |Residual|: 1.779e-04   |deigs|: 2.300e-04  t[s]:     47.85
	FillingsUpdate:  mu: -0.088529197  nElectrons: 9.000000  magneticMoment: [ Abs: 0.12062  Tot: +0.12000 ]
SCF: Cycle:  9   F: -28.384500032423801   dF: +1.996e-08   |Residual|: 1.679e-04   |deigs|: 1.863e-04  t[s]:     52.17
	FillingsUpdate:  mu: -0.088298459  nElectrons: 9.000000  magneticMoment: [ Abs: 0.12063  Tot: +0.12000 ]
SCF: Cycle: 10   F: -28.384500260711263   dF: -2.283e-07   |Residual|: 1.443e-04   |deigs|: 3.419e-04  t[s]:     56.49
	FillingsUpdate:  mu: -0.088159484  nElectrons: 9.000000  magneticMoment: [ Abs: 0.12060  Tot: +0.12000 ]
SCF: Cycle: 11   F: -28.384500516761801   dF: -2.561e-07   |Residual|: 1.178e-04   |deigs|: 3.617e-04  t[s]:     60.79
	FillingsUpdate:  mu: -0.087991398  nElectrons: 9.000000  magneticMoment: [ Abs: 0.12052  Tot: +0.12000 ]
SCF: Cycle: 12   F: -28.384500620563326   dF: -1.038e-07   |Residual|: 1.011e-04   |deigs|: 1.662e-04  t[s]:     65.10
	FillingsUpdate:  mu: -0.087818515  nElectrons: 9.000000  magneticMoment: [ Abs: 0.12035  Tot: +0.12000 ]
SCF: Cycle: 13   F: -28.384500479919229   dF: +1.406e-07   |Residual|: 1.001e-04   |deigs|: 1.893e-04  t[s]:     69.45
	FillingsUpdate:  mu: -0.087622120  nElectrons: 9.000000  magneticMoment: [ Abs: 0.12028  Tot: +0.12000 ]
SCF: Cycle: 14   F: -28.384500424817492   dF: +5.510e-08   |Residual|: 9.553e-05   |deigs|: 2.187e-04  t[s]:     73.79
	FillingsUpdate:  mu: -0.087475300  nElectrons: 9.000000  magneticMoment: [ Abs: 0.12078  Tot: +0.12000 ]
SCF: Cycle: 15   F: -28.384500942755562   dF: -5.179e-07   |Residual|: 8.361e-05   |deigs|: 1.975e-04  t[s]:     78.14
	FillingsUpdate:  mu: -0.087434269  nElectrons: 9.000000  magneticMoment: [ Abs: 0.12046  Tot: +0.12000 ]
SCF: Cycle: 16   F: -28.384501321742746   dF: -3.790e-07   |Residual|: 6.353e-05   |deigs|: 1.187e-04  t[s]:     82.41
	FillingsUpdate:  mu: -0.087326807  nElectrons: 9.000000  magneticMoment: [ Abs: 0.12022  Tot: +0.12000 ]
SCF: Cycle: 17   F: -28.384501459800010   dF: -1.381e-07   |Residual|: 4.159e-05   |deigs|: 1.621e-04  t[s]:     86.73
	FillingsUpdate:  mu: -0.087292020  nElectrons: 9.000000  magneticMoment: [ Abs: 0.12025  Tot: +0.12000 ]
SCF: Cycle: 18   F: -28.384501539590961   dF: -7.979e-08   |Residual|: 2.583e-05   |deigs|: 1.119e-04  t[s]:     91.05
	FillingsUpdate:  mu: -0.087292464  nElectrons: 9.000000  magneticMoment: [ Abs: 0.12022  Tot: +0.12000 ]
SCF: Cycle: 19   F: -28.384501567054681   dF: -2.746e-08   |Residual|: 1.584e-05   |deigs|: 7.548e-05  t[s]:     95.34
	FillingsUpdate:  mu: -0.087291026  nElectrons: 9.000000  magneticMoment: [ Abs: 0.12022  Tot: +0.12000 ]
SCF: Cycle: 20   F: -28.384501587924095   dF: -2.087e-08   |Residual|: 7.793e-06   |deigs|: 6.765e-05  t[s]:     99.79
	FillingsUpdate:  mu: -0.087288869  nElectrons: 9.000000  magneticMoment: [ Abs: 0.12021  Tot: +0.12000 ]
SCF: Cycle: 21   F: -28.384501595172519   dF: -7.248e-09   |Residual|: 5.774e-06   |deigs|: 6.266e-05  t[s]:    103.75
	FillingsUpdate:  mu: -0.087289599  nElectrons: 9.000000  magneticMoment: [ Abs: 0.12020  Tot: +0.12000 ]
SCF: Cycle: 22   F: -28.384501600024620   dF: -4.852e-09   |Residual|: 2.989e-06   |deigs|: 5.375e-05  t[s]:    107.99
SCF: Converged (|Delta E|<1.000000e-08 for 2 iters).


# Ionic positions in lattice coordinates:
ion K   0.000000000000000   0.000000000000000   0.000000000000000 0

# Forces in Lattice coordinates:
force K   0.000000000000000   0.000000000000000   0.000000000000000 0

# Energy components:
   Eewald =      -12.0320174002217755
       EH =       10.7063400484745372
     Eloc =      -29.9005271533403736
      Enl =       -2.7720575637283082
   Epulay =       -0.0000000016982517
      Exc =       -4.2363290404034792
       KE =        9.8500904701085013
-------------------------------------
     Etot =      -28.3845006408091471
       TS =        0.0000009592154742
-------------------------------------
        F =      -28.3845016000246204

IonicMinimize: Iter:   0  F: -28.384501600024620  |grad|_K:  0.000e+00  t[s]:    108.25
IonicMinimize: Converged (|grad|_K<1.000000e-04).

#--- Lowdin population analysis ---
# oxidation-state K +0.026
# magnetic-moments K +0.114

End date and time: Sat Feb  5 23:45:58 2022  (Duration: 0-0:01:48.30)
Done!
scale=4
magnetization=0.12
--------------------------------------------------------------------------
The library attempted to open the following supporting CUDA libraries,
but each of them failed.  CUDA-aware support is disabled.
libcuda.so.1: cannot open shared object file: No such file or directory
libcuda.dylib: cannot open shared object file: No such file or directory
/usr/lib64/libcuda.so.1: cannot open shared object file: No such file or directory
/usr/lib64/libcuda.dylib: cannot open shared object file: No such file or directory
If you are not interested in CUDA-aware support, then run with
--mca opal_warn_on_missing_libcuda 0 to suppress this message.  If you are interested
in CUDA-aware support, then try setting LD_LIBRARY_PATH to the location
of libcuda.so.1 to get passed this issue.
--------------------------------------------------------------------------
--------------------------------------------------------------------------
No OpenFabrics connection schemes reported that they were able to be
used on a specific port.  As such, the openib BTL (OpenFabrics
support) will be disabled for this port.

  Local host:           d-4-6-3
  Local device:         mlx5_1
  Local port:           1
  CPCs attempted:       rdmacm, udcm
--------------------------------------------------------------------------

*************** JDFTx 1.6.0 (git hash 42ebbcc2) ***************

Start date and time: Sat Feb  5 23:45:59 2022
Executable jdftx with command-line: -i Alkali.in
Running on hosts (process indices):  d-4-6-3 (0-18)
Divided in process groups (process indices):  0 (0)  1 (1)  2 (2)  3 (3)  4 (4)  5 (5)  6 (6)  7 (7)  8 (8)  9 (9)  10 (10)  11 (11)  12 (12)  13 (13)  14 (14)  15 (15)  16 (16)  17 (17)  18 (18)
Resource initialization completed at t[s]:      0.00
Run totals: 19 processes, 48 threads, 0 GPUs


Input parsed successfully to the following command list (including defaults):

basis kpoint-dependent
coords-type Lattice
core-overlap-check vector
coulomb-interaction Slab 001
davidson-band-ratio 1.1
dump End None
dump-name $INPUT.$VAR
elec-cutoff 20
elec-eigen-algo Davidson
elec-ex-corr gga-PBE
elec-initial-magnetization 0.120000 yes
elec-smearing Fermi 1e-05
electronic-minimize  \
	dirUpdateScheme      FletcherReeves \
	linminMethod         DirUpdateRecommended \
	nIterations          100 \
	history              15 \
	knormThreshold       0 \
	energyDiffThreshold  1e-08 \
	nEnergyDiff          2 \
	alphaTstart          1 \
	alphaTmin            1e-10 \
	updateTestStepSize   yes \
	alphaTreduceFactor   0.1 \
	alphaTincreaseFactor 3 \
	nAlphaAdjustMax      3 \
	wolfeEnergy          0.0001 \
	wolfeGradient        0.9 \
	fdTest               no
electronic-scf  \
	nIterations	10000 \
	energyDiffThreshold	1e-08 \
	residualThreshold	1e-07 \
	mixFraction	0.5 \
	qMetric	0.8 \
	history	10 \
	nEigSteps	2 \
	eigDiffThreshold	1e-08 \
	mixedVariable	Density \
	qKerker	0.8 \
	qKappa	-1 \
	verbose	no \
	mixFractionMag	1.5
exchange-regularization WignerSeitzTruncated
fluid None
fluid-ex-corr (null) lda-PZ
fluid-gummel-loop 10 1.000000e-05
fluid-minimize  \
	dirUpdateScheme      PolakRibiere \
	linminMethod         DirUpdateRecommended \
	nIterations          100 \
	history              15 \
	knormThreshold       0 \
	energyDiffThreshold  0 \
	nEnergyDiff          2 \
	alphaTstart          1 \
	alphaTmin            1e-10 \
	updateTestStepSize   yes \
	alphaTreduceFactor   0.1 \
	alphaTincreaseFactor 3 \
	nAlphaAdjustMax      3 \
	wolfeEnergy          0.0001 \
	wolfeGradient        0.9 \
	fdTest               no
fluid-solvent H2O 55.338 ScalarEOS \
	epsBulk 78.4 \
	pMol 0.92466 \
	epsInf 1.77 \
	Pvap 1.06736e-10 \
	sigmaBulk 4.62e-05 \
	Rvdw 2.61727 \
	Res 1.42 \
	tauNuc 343133 \
	poleEl 15 7 1
forces-output-coords Positions
ion K   0.000000000000000   0.000000000000000   0.000000000000000 0
ion-species SG15/$ID_ONCV_PBE.upf
ion-width 0
ionic-minimize  \
	dirUpdateScheme      L-BFGS \
	linminMethod         DirUpdateRecommended \
	nIterations          0 \
	history              15 \
	knormThreshold       0.0001 \
	energyDiffThreshold  1e-06 \
	nEnergyDiff          2 \
	alphaTstart          1 \
	alphaTmin            1e-10 \
	updateTestStepSize   yes \
	alphaTreduceFactor   0.1 \
	alphaTincreaseFactor 3 \
	nAlphaAdjustMax      3 \
	wolfeEnergy          0.0001 \
	wolfeGradient        0.9 \
	fdTest               no
kpoint   0.000000000000   0.000000000000   0.000000000000  1.00000000000000
kpoint-folding 12 12 1 
latt-move-scale 1 1 1
latt-scale 4 4 1 
lattice  \
	   4.727486978767153   -2.363743489383575    0.000000000000000  \
	  -0.000000000000000    4.094123819672498    0.000000000000000  \
	   0.000000000000000    0.000000000000000   40.000000000000000 
lattice-minimize  \
	dirUpdateScheme      L-BFGS \
	linminMethod         DirUpdateRecommended \
	nIterations          0 \
	history              15 \
	knormThreshold       0 \
	energyDiffThreshold  1e-06 \
	nEnergyDiff          2 \
	alphaTstart          1 \
	alphaTmin            1e-10 \
	updateTestStepSize   yes \
	alphaTreduceFactor   0.1 \
	alphaTincreaseFactor 3 \
	nAlphaAdjustMax      3 \
	wolfeEnergy          0.0001 \
	wolfeGradient        0.9 \
	fdTest               no
lcao-params -1 1e-06 1e-05
pcm-variant GLSSA13
spintype z-spin
subspace-rotation-factor 1 yes
symmetries automatic
symmetry-threshold 0.0001



---------- Setting up symmetries ----------

Found 24 point-group symmetries of the bravais lattice
Found 24 space-group symmetries with basis
Applied RMS atom displacement 0 bohrs to make symmetries exact.

---------- Initializing the Grid ----------
R = 
[      18.9099     -9.45497            0  ]
[            0      16.3765            0  ]
[            0            0           40  ]
unit cell volume = 12387.1
G =
[   0.332269   0.191835         -0  ]
[          0   0.383671         -0  ]
[         -0         -0    0.15708  ]
Minimum fftbox size, Smin = [  80  80  164  ]
Chosen fftbox size, S = [  80  80  168  ]

---------- Exchange Correlation functional ----------
Initalized PBE GGA exchange.
Initalized PBE GGA correlation.

---------- Setting up pseudopotentials ----------
Width of ionic core gaussian charges (only for fluid interactions / plotting) set to 0

Reading pseudopotential file '/home/gridsan/aligho/DFT/build-Nov24/pseudopotentials/SG15/K_ONCV_PBE.upf':
  'K' pseudopotential, 'PBE' functional
  Generated using ONCVPSP code by D. R. Hamann
  Author: Martin Schlipf and Francois Gygi  Date: 150915.
  9 valence electrons, 3 orbitals, 6 projectors, 2222 radial grid points, with lMax = 2
  Transforming local potential to a uniform radial grid of dG=0.02 with 1489 points.
  Transforming nonlocal projectors to a uniform radial grid of dG=0.02 with 432 points.
    3S    l: 0   occupation:  2.0   eigenvalue: -1.298836
    3P    l: 1   occupation:  6.0   eigenvalue: -0.691386
    4S    l: 0   occupation:  1.0   eigenvalue: -0.085223
  Transforming atomic orbitals to a uniform radial grid of dG=0.02 with 432 points.
  Core radius for overlap checks: 2.06 bohrs.
  Reading pulay file /home/gridsan/aligho/DFT/build-Nov24/pseudopotentials/SG15/K_ONCV_PBE.pulay ... using dE_dnG = -1.597219e-05 computed for Ecut = 20.

Initialized 1 species with 1 total atoms.

Folded 1 k-points by 12x12x1 to 144 k-points.

---------- Setting up k-points, bands, fillings ----------
Reduced to 19 k-points under symmetry. 
Computing the number of bands and number of electrons
Calculating initial fillings.
nElectrons:   9.000000   nBands: 6   nStates: 38

----- Setting up reduced wavefunction bases (one per k-point) -----
average nbasis = 52924.021 , ideal nbasis = 52918.836

---------- Setting up coulomb interaction ----------
Initialized slab truncation along lattice direction 001

---------- Setting up 2D ewald sum ----------
Optimum gaussian width for ewald sums = 10.498040 bohr.
Real space sums over 289 unit cells with max indices [  8  8  0  ]
Reciprocal space sums over 81 terms with max indices [  4  4  0  ]

---------- Allocating electronic variables ----------
Initializing wave functions:  linear combination of atomic orbitals
Note: number of bands (6) exceeds available atomic orbitals (5)
K pseudo-atom occupations:   s ( 2 1 )  p ( 6 )
[d-4-6-3:92475] 18 more processes have sent help message help-mpi-common-cuda.txt / dlopen failed
[d-4-6-3:92475] Set MCA parameter "orte_base_help_aggregate" to 0 to see all help / error messages
[d-4-6-3:92475] 18 more processes have sent help message help-mpi-btl-openib-cpc-base.txt / no cpcs for port
	FillingsUpdate:  mu: -0.085751877  nElectrons: 9.000000  magneticMoment: [ Abs: 0.12000  Tot: +0.12000 ]
LCAOMinimize: Iter:   0  F: -28.3773989138998637  |grad|_K:  3.894e-06  alpha:  1.000e+00
	FillingsUpdate:  mu: -0.085751099  nElectrons: 9.000000  magneticMoment: [ Abs: 0.12000  Tot: +0.12000 ]
LCAOMinimize: Iter:   1  F: -28.3773989241540967  |grad|_K:  1.652e-08  alpha:  9.887e-01  linmin: -6.653e-03  cgtest:  2.843e-01  t[s]:     15.19
LCAOMinimize: Encountered beta<0, resetting CG.
	FillingsUpdate:  mu: -0.085751098  nElectrons: 9.000000  magneticMoment: [ Abs: 0.12000  Tot: +0.12000 ]
LCAOMinimize: Iter:   2  F: -28.3773989241542068  |grad|_K:  8.436e-09  alpha:  1.511e+00  linmin:  1.503e-02  cgtest: -1.000e+00  t[s]:     19.24
LCAOMinimize: Converged (|Delta F|<1.000000e-06 for 2 iters).


---- Citations for features of the code used in this run ----

   Software package:
      R. Sundararaman, K. Letchworth-Weaver, K.A. Schwarz, D. Gunceler, Y. Ozhabes and T.A. Arias, 'JDFTx: software for joint density-functional theory', SoftwareX 6, 278 (2017)

   gga-PBE exchange-correlation functional:
      J.P. Perdew, K. Burke and M. Ernzerhof, Phys. Rev. Lett. 77, 3865 (1996)

   Pseudopotentials:
      M Schlipf and F Gygi, Comput. Phys. Commun. 196, 36 (2015)

   Truncated Coulomb potentials:
      R. Sundararaman and T.A. Arias, Phys. Rev. B 87, 165122 (2013)

This list may not be complete. Please suggest additional citations or
report any other bugs at https://github.com/shankar1729/jdftx/issues

Initialization completed successfully at t[s]:     19.51


-------- Electronic minimization -----------
Will mix electronic density at each iteration.
	FillingsUpdate:  mu: -0.085751098  nElectrons: 9.000000  magneticMoment: [ Abs: 0.12000  Tot: +0.12000 ]
	FillingsUpdate:  mu: -0.085822086  nElectrons: 9.000000  magneticMoment: [ Abs: 0.12000  Tot: +0.12000 ]
SCF: Cycle:  0   F: -28.377480707872646   dF: -8.178e-05   |Residual|: 5.702e-04   |deigs|: 1.761e-01  t[s]:     27.75
	FillingsUpdate:  mu: -0.085858894  nElectrons: 9.000000  magneticMoment: [ Abs: 0.12016  Tot: +0.12000 ]
SCF: Cycle:  1   F: -28.377481652201581   dF: -9.443e-07   |Residual|: 4.070e-04   |deigs|: 4.527e-03  t[s]:     34.23
	FillingsUpdate:  mu: -0.085915927  nElectrons: 9.000000  magneticMoment: [ Abs: 0.12022  Tot: +0.12000 ]
SCF: Cycle:  2   F: -28.377481979488849   dF: -3.273e-07   |Residual|: 3.142e-04   |deigs|: 1.670e-03  t[s]:     40.79
	FillingsUpdate:  mu: -0.086011499  nElectrons: 9.000000  magneticMoment: [ Abs: 0.12035  Tot: +0.12000 ]
SCF: Cycle:  3   F: -28.377482307664696   dF: -3.282e-07   |Residual|: 2.100e-04   |deigs|: 4.601e-04  t[s]:     47.47
	FillingsUpdate:  mu: -0.086101732  nElectrons: 9.000000  magneticMoment: [ Abs: 0.12033  Tot: +0.12000 ]
SCF: Cycle:  4   F: -28.377482629429775   dF: -3.218e-07   |Residual|: 1.305e-04   |deigs|: 7.886e-04  t[s]:     54.21
	FillingsUpdate:  mu: -0.086134448  nElectrons: 9.000000  magneticMoment: [ Abs: 0.12041  Tot: +0.12000 ]
SCF: Cycle:  5   F: -28.377482813658052   dF: -1.842e-07   |Residual|: 9.820e-05   |deigs|: 4.505e-04  t[s]:     61.08
	FillingsUpdate:  mu: -0.086135897  nElectrons: 9.000000  magneticMoment: [ Abs: 0.12035  Tot: +0.12000 ]
SCF: Cycle:  6   F: -28.377482971540491   dF: -1.579e-07   |Residual|: 5.772e-05   |deigs|: 4.106e-04  t[s]:     68.17
	FillingsUpdate:  mu: -0.086127608  nElectrons: 9.000000  magneticMoment: [ Abs: 0.12032  Tot: +0.12000 ]
SCF: Cycle:  7   F: -28.377483042507080   dF: -7.097e-08   |Residual|: 4.402e-05   |deigs|: 4.633e-04  t[s]:     75.26
	FillingsUpdate:  mu: -0.086110010  nElectrons: 9.000000  magneticMoment: [ Abs: 0.12030  Tot: +0.12000 ]
SCF: Cycle:  8   F: -28.377483080942877   dF: -3.844e-08   |Residual|: 2.784e-05   |deigs|: 3.178e-04  t[s]:     82.51
	FillingsUpdate:  mu: -0.086099088  nElectrons: 9.000000  magneticMoment: [ Abs: 0.12027  Tot: +0.12000 ]
SCF: Cycle:  9   F: -28.377483098783426   dF: -1.784e-08   |Residual|: 2.244e-05   |deigs|: 1.630e-04  t[s]:     89.90
	FillingsUpdate:  mu: -0.086090050  nElectrons: 9.000000  magneticMoment: [ Abs: 0.12029  Tot: +0.12000 ]
SCF: Cycle: 10   F: -28.377483095192371   dF: +3.591e-09   |Residual|: 1.940e-05   |deigs|: 8.031e-05  t[s]:     97.33
	FillingsUpdate:  mu: -0.086074010  nElectrons: 9.000000  magneticMoment: [ Abs: 0.12033  Tot: +0.12000 ]
SCF: Cycle: 11   F: -28.377483067737305   dF: +2.746e-08   |Residual|: 1.765e-05   |deigs|: 6.792e-05  t[s]:    104.73
	FillingsUpdate:  mu: -0.086060392  nElectrons: 9.000000  magneticMoment: [ Abs: 0.12030  Tot: +0.12000 ]
SCF: Cycle: 12   F: -28.377483076338233   dF: -8.601e-09   |Residual|: 1.563e-05   |deigs|: 7.696e-05  t[s]:    112.16
	FillingsUpdate:  mu: -0.086046006  nElectrons: 9.000000  magneticMoment: [ Abs: 0.12028  Tot: +0.12000 ]
SCF: Cycle: 13   F: -28.377483083258685   dF: -6.920e-09   |Residual|: 1.363e-05   |deigs|: 7.159e-05  t[s]:    119.55
SCF: Converged (|Delta E|<1.000000e-08 for 2 iters).


# Ionic positions in lattice coordinates:
ion K   0.000000000000000   0.000000000000000   0.000000000000000 0

# Forces in Lattice coordinates:
force K   0.000000000000000  -0.000000000000000   0.000000000000000 0

# Energy components:
   Eewald =       -9.0240130501663280
       EH =       13.7552715685210654
     Eloc =      -35.9641158230624001
      Enl =       -2.7673751753007725
   Epulay =        0.0000000066859396
      Exc =       -4.2386551556271570
       KE =        9.8614055049070757
-------------------------------------
     Etot =      -28.3774821240425794
       TS =        0.0000009592161068
-------------------------------------
        F =      -28.3774830832586851

IonicMinimize: Iter:   0  F: -28.377483083258685  |grad|_K:  0.000e+00  t[s]:    119.96
IonicMinimize: Converged (|grad|_K<1.000000e-04).

#--- Lowdin population analysis ---
# oxidation-state K +0.001
# magnetic-moments K +0.120

End date and time: Sat Feb  5 23:47:59 2022  (Duration: 0-0:02:00.02)
Done!
