The alkali metal is K
scale=2
magnetization=0.16
--------------------------------------------------------------------------
The library attempted to open the following supporting CUDA libraries,
but each of them failed.  CUDA-aware support is disabled.
libcuda.so.1: cannot open shared object file: No such file or directory
libcuda.dylib: cannot open shared object file: No such file or directory
/usr/lib64/libcuda.so.1: cannot open shared object file: No such file or directory
/usr/lib64/libcuda.dylib: cannot open shared object file: No such file or directory
If you are not interested in CUDA-aware support, then run with
--mca opal_warn_on_missing_libcuda 0 to suppress this message.  If you are interested
in CUDA-aware support, then try setting LD_LIBRARY_PATH to the location
of libcuda.so.1 to get passed this issue.
--------------------------------------------------------------------------
--------------------------------------------------------------------------
No OpenFabrics connection schemes reported that they were able to be
used on a specific port.  As such, the openib BTL (OpenFabrics
support) will be disabled for this port.

  Local host:           d-6-4-1
  Local device:         mlx5_1
  Local port:           1
  CPCs attempted:       rdmacm, udcm
--------------------------------------------------------------------------

*************** JDFTx 1.6.0 (git hash 42ebbcc2) ***************

Start date and time: Sat Feb  5 23:43:06 2022
Executable jdftx with command-line: -i Alkali.in
Running on hosts (process indices):  d-6-4-1 (0-18)
Divided in process groups (process indices):  0 (0)  1 (1)  2 (2)  3 (3)  4 (4)  5 (5)  6 (6)  7 (7)  8 (8)  9 (9)  10 (10)  11 (11)  12 (12)  13 (13)  14 (14)  15 (15)  16 (16)  17 (17)  18 (18)
Resource initialization completed at t[s]:      0.00
Run totals: 19 processes, 48 threads, 0 GPUs


Input parsed successfully to the following command list (including defaults):

basis kpoint-dependent
coords-type Lattice
core-overlap-check vector
coulomb-interaction Slab 001
davidson-band-ratio 1.1
dump End None
dump-name $INPUT.$VAR
elec-cutoff 20
elec-eigen-algo Davidson
elec-ex-corr gga-PBE
elec-initial-magnetization 0.160000 yes
elec-smearing Fermi 1e-05
electronic-minimize  \
	dirUpdateScheme      FletcherReeves \
	linminMethod         DirUpdateRecommended \
	nIterations          100 \
	history              15 \
	knormThreshold       0 \
	energyDiffThreshold  1e-08 \
	nEnergyDiff          2 \
	alphaTstart          1 \
	alphaTmin            1e-10 \
	updateTestStepSize   yes \
	alphaTreduceFactor   0.1 \
	alphaTincreaseFactor 3 \
	nAlphaAdjustMax      3 \
	wolfeEnergy          0.0001 \
	wolfeGradient        0.9 \
	fdTest               no
electronic-scf  \
	nIterations	10000 \
	energyDiffThreshold	1e-08 \
	residualThreshold	1e-07 \
	mixFraction	0.5 \
	qMetric	0.8 \
	history	10 \
	nEigSteps	2 \
	eigDiffThreshold	1e-08 \
	mixedVariable	Density \
	qKerker	0.8 \
	qKappa	-1 \
	verbose	no \
	mixFractionMag	1.5
exchange-regularization WignerSeitzTruncated
fluid None
fluid-ex-corr (null) lda-PZ
fluid-gummel-loop 10 1.000000e-05
fluid-minimize  \
	dirUpdateScheme      PolakRibiere \
	linminMethod         DirUpdateRecommended \
	nIterations          100 \
	history              15 \
	knormThreshold       0 \
	energyDiffThreshold  0 \
	nEnergyDiff          2 \
	alphaTstart          1 \
	alphaTmin            1e-10 \
	updateTestStepSize   yes \
	alphaTreduceFactor   0.1 \
	alphaTincreaseFactor 3 \
	nAlphaAdjustMax      3 \
	wolfeEnergy          0.0001 \
	wolfeGradient        0.9 \
	fdTest               no
fluid-solvent H2O 55.338 ScalarEOS \
	epsBulk 78.4 \
	pMol 0.92466 \
	epsInf 1.77 \
	Pvap 1.06736e-10 \
	sigmaBulk 4.62e-05 \
	Rvdw 2.61727 \
	Res 1.42 \
	tauNuc 343133 \
	poleEl 15 7 1
forces-output-coords Positions
ion K   0.000000000000000   0.000000000000000   0.000000000000000 0
ion-species SG15/$ID_ONCV_PBE.upf
ion-width 0
ionic-minimize  \
	dirUpdateScheme      L-BFGS \
	linminMethod         DirUpdateRecommended \
	nIterations          0 \
	history              15 \
	knormThreshold       0.0001 \
	energyDiffThreshold  1e-06 \
	nEnergyDiff          2 \
	alphaTstart          1 \
	alphaTmin            1e-10 \
	updateTestStepSize   yes \
	alphaTreduceFactor   0.1 \
	alphaTincreaseFactor 3 \
	nAlphaAdjustMax      3 \
	wolfeEnergy          0.0001 \
	wolfeGradient        0.9 \
	fdTest               no
kpoint   0.000000000000   0.000000000000   0.000000000000  1.00000000000000
kpoint-folding 12 12 1 
latt-move-scale 1 1 1
latt-scale 2 2 1 
lattice  \
	   4.727486978767153   -2.363743489383575    0.000000000000000  \
	  -0.000000000000000    4.094123819672498    0.000000000000000  \
	   0.000000000000000    0.000000000000000   40.000000000000000 
lattice-minimize  \
	dirUpdateScheme      L-BFGS \
	linminMethod         DirUpdateRecommended \
	nIterations          0 \
	history              15 \
	knormThreshold       0 \
	energyDiffThreshold  1e-06 \
	nEnergyDiff          2 \
	alphaTstart          1 \
	alphaTmin            1e-10 \
	updateTestStepSize   yes \
	alphaTreduceFactor   0.1 \
	alphaTincreaseFactor 3 \
	nAlphaAdjustMax      3 \
	wolfeEnergy          0.0001 \
	wolfeGradient        0.9 \
	fdTest               no
lcao-params -1 1e-06 1e-05
pcm-variant GLSSA13
spintype z-spin
subspace-rotation-factor 1 yes
symmetries automatic
symmetry-threshold 0.0001



---------- Setting up symmetries ----------

Found 24 point-group symmetries of the bravais lattice
Found 24 space-group symmetries with basis
Applied RMS atom displacement 0 bohrs to make symmetries exact.

---------- Initializing the Grid ----------
R = 
[      9.45497     -4.72749            0  ]
[            0      8.18825            0  ]
[            0            0           40  ]
unit cell volume = 3096.79
G =
[   0.664538   0.383671         -0  ]
[          0   0.767342         -0  ]
[         -0         -0    0.15708  ]
Minimum fftbox size, Smin = [  40  40  164  ]
Chosen fftbox size, S = [  40  40  168  ]

---------- Exchange Correlation functional ----------
Initalized PBE GGA exchange.
Initalized PBE GGA correlation.

---------- Setting up pseudopotentials ----------
Width of ionic core gaussian charges (only for fluid interactions / plotting) set to 0

Reading pseudopotential file '/home/gridsan/aligho/DFT/build-Nov24/pseudopotentials/SG15/K_ONCV_PBE.upf':
  'K' pseudopotential, 'PBE' functional
  Generated using ONCVPSP code by D. R. Hamann
  Author: Martin Schlipf and Francois Gygi  Date: 150915.
  9 valence electrons, 3 orbitals, 6 projectors, 2222 radial grid points, with lMax = 2
  Transforming local potential to a uniform radial grid of dG=0.02 with 1489 points.
  Transforming nonlocal projectors to a uniform radial grid of dG=0.02 with 432 points.
    3S    l: 0   occupation:  2.0   eigenvalue: -1.298836
    3P    l: 1   occupation:  6.0   eigenvalue: -0.691386
    4S    l: 0   occupation:  1.0   eigenvalue: -0.085223
  Transforming atomic orbitals to a uniform radial grid of dG=0.02 with 432 points.
  Core radius for overlap checks: 2.06 bohrs.
  Reading pulay file /home/gridsan/aligho/DFT/build-Nov24/pseudopotentials/SG15/K_ONCV_PBE.pulay ... using dE_dnG = -1.597219e-05 computed for Ecut = 20.

Initialized 1 species with 1 total atoms.

Folded 1 k-points by 12x12x1 to 144 k-points.

---------- Setting up k-points, bands, fillings ----------
Reduced to 19 k-points under symmetry. 
Computing the number of bands and number of electrons
Calculating initial fillings.
nElectrons:   9.000000   nBands: 6   nStates: 38

----- Setting up reduced wavefunction bases (one per k-point) -----
average nbasis = 13230.521 , ideal nbasis = 13229.709

---------- Setting up coulomb interaction ----------
Initialized slab truncation along lattice direction 001

---------- Setting up 2D ewald sum ----------
Optimum gaussian width for ewald sums = 5.249020 bohr.
Real space sums over 289 unit cells with max indices [  8  8  0  ]
Reciprocal space sums over 81 terms with max indices [  4  4  0  ]

---------- Allocating electronic variables ----------
Initializing wave functions:  linear combination of atomic orbitals
Note: number of bands (6) exceeds available atomic orbitals (5)
K pseudo-atom occupations:   s ( 2 1 )  p ( 6 )
	FillingsUpdate:  mu: -0.100765311  nElectrons: 9.000000  magneticMoment: [ Abs: 0.16000  Tot: +0.16000 ]
LCAOMinimize: Iter:   0  F: -28.3986550910909443  |grad|_K:  4.366e-05  alpha:  1.000e+00
	FillingsUpdate:  mu: -0.100755696  nElectrons: 9.000000  magneticMoment: [ Abs: 0.16000  Tot: +0.16000 ]
LCAOMinimize: Iter:   1  F: -28.3986563676564607  |grad|_K:  4.685e-07  alpha:  9.792e-01  linmin: -3.192e-02  cgtest:  5.479e-01  t[s]:      4.52
LCAOMinimize: Encountered beta<0, resetting CG.
[d-6-4-1:86867] 18 more processes have sent help message help-mpi-common-cuda.txt / dlopen failed
[d-6-4-1:86867] Set MCA parameter "orte_base_help_aggregate" to 0 to see all help / error messages
[d-6-4-1:86867] 18 more processes have sent help message help-mpi-btl-openib-cpc-base.txt / no cpcs for port
	FillingsUpdate:  mu: -0.100755782  nElectrons: 9.000000  magneticMoment: [ Abs: 0.16000  Tot: +0.16000 ]
LCAOMinimize: Iter:   2  F: -28.3986563678065558  |grad|_K:  8.110e-10  alpha:  1.002e+00  linmin:  7.624e-02  cgtest: -5.263e-01  t[s]:      5.69
LCAOMinimize: 	Wrong curvature in test step, increasing alphaT to 3.006399e+00.
	FillingsUpdate:  mu: -0.100755782  nElectrons: 9.000000  magneticMoment: [ Abs: 0.16000  Tot: +0.16000 ]
LCAOMinimize: Iter:   3  F: -28.3986563678068435  |grad|_K:  4.274e-10  alpha: -1.134e-03  linmin:  7.876e-04  cgtest:  4.982e-01  t[s]:      6.84
LCAOMinimize: Converged (|Delta F|<1.000000e-06 for 2 iters).


---- Citations for features of the code used in this run ----

   Software package:
      R. Sundararaman, K. Letchworth-Weaver, K.A. Schwarz, D. Gunceler, Y. Ozhabes and T.A. Arias, 'JDFTx: software for joint density-functional theory', SoftwareX 6, 278 (2017)

   gga-PBE exchange-correlation functional:
      J.P. Perdew, K. Burke and M. Ernzerhof, Phys. Rev. Lett. 77, 3865 (1996)

   Pseudopotentials:
      M Schlipf and F Gygi, Comput. Phys. Commun. 196, 36 (2015)

   Truncated Coulomb potentials:
      R. Sundararaman and T.A. Arias, Phys. Rev. B 87, 165122 (2013)

This list may not be complete. Please suggest additional citations or
report any other bugs at https://github.com/shankar1729/jdftx/issues

Initialization completed successfully at t[s]:      6.93


-------- Electronic minimization -----------
Will mix electronic density at each iteration.
	FillingsUpdate:  mu: -0.100755782  nElectrons: 9.000000  magneticMoment: [ Abs: 0.16000  Tot: +0.16000 ]
	FillingsUpdate:  mu: -0.109808480  nElectrons: 9.000000  magneticMoment: [ Abs: 0.16000  Tot: +0.16000 ]
SCF: Cycle:  0   F: -28.403418429270094   dF: -4.762e-03   |Residual|: 8.196e-03   |deigs|: 1.748e-01  t[s]:      9.29
	FillingsUpdate:  mu: -0.109610825  nElectrons: 9.000000  magneticMoment: [ Abs: 0.16000  Tot: +0.16000 ]
SCF: Cycle:  1   F: -28.403528086731523   dF: -1.097e-04   |Residual|: 6.510e-03   |deigs|: 5.711e-03  t[s]:     11.13
	FillingsUpdate:  mu: -0.107722962  nElectrons: 9.000000  magneticMoment: [ Abs: 0.16534  Tot: +0.16000 ]
SCF: Cycle:  2   F: -28.403574867844586   dF: -4.678e-05   |Residual|: 2.782e-03   |deigs|: 3.899e-03  t[s]:     13.00
	FillingsUpdate:  mu: -0.106878421  nElectrons: 9.000000  magneticMoment: [ Abs: 0.16001  Tot: +0.16000 ]
SCF: Cycle:  3   F: -28.403618318795033   dF: -4.345e-05   |Residual|: 1.933e-03   |deigs|: 4.370e-03  t[s]:     14.94
	FillingsUpdate:  mu: -0.105584939  nElectrons: 9.000000  magneticMoment: [ Abs: 0.16016  Tot: +0.16000 ]
SCF: Cycle:  4   F: -28.403639167090144   dF: -2.085e-05   |Residual|: 1.608e-03   |deigs|: 3.292e-03  t[s]:     16.84
	FillingsUpdate:  mu: -0.103699093  nElectrons: 9.000000  magneticMoment: [ Abs: 0.16302  Tot: +0.16000 ]
SCF: Cycle:  5   F: -28.403651813753925   dF: -1.265e-05   |Residual|: 1.226e-03   |deigs|: 2.675e-03  t[s]:     18.72
	FillingsUpdate:  mu: -0.102089815  nElectrons: 9.000000  magneticMoment: [ Abs: 0.16452  Tot: +0.16000 ]
SCF: Cycle:  6   F: -28.403660059296879   dF: -8.246e-06   |Residual|: 9.051e-04   |deigs|: 3.718e-03  t[s]:     20.63
	FillingsUpdate:  mu: -0.101266859  nElectrons: 9.000000  magneticMoment: [ Abs: 0.16256  Tot: +0.16000 ]
SCF: Cycle:  7   F: -28.403679973743696   dF: -1.991e-05   |Residual|: 7.754e-04   |deigs|: 1.364e-03  t[s]:     22.62
	FillingsUpdate:  mu: -0.100736774  nElectrons: 9.000000  magneticMoment: [ Abs: 0.16115  Tot: +0.16000 ]
SCF: Cycle:  8   F: -28.403692222943775   dF: -1.225e-05   |Residual|: 6.101e-04   |deigs|: 7.994e-04  t[s]:     24.56
	FillingsUpdate:  mu: -0.099533749  nElectrons: 9.000000  magneticMoment: [ Abs: 0.16217  Tot: +0.16000 ]
SCF: Cycle:  9   F: -28.403691185934232   dF: +1.037e-06   |Residual|: 5.013e-04   |deigs|: 1.258e-03  t[s]:     26.58
	FillingsUpdate:  mu: -0.098478903  nElectrons: 9.000000  magneticMoment: [ Abs: 0.16241  Tot: +0.16000 ]
SCF: Cycle: 10   F: -28.403689152957568   dF: +2.033e-06   |Residual|: 4.868e-04   |deigs|: 1.357e-03  t[s]:     28.62
	FillingsUpdate:  mu: -0.097191309  nElectrons: 9.000000  magneticMoment: [ Abs: 0.16125  Tot: +0.16000 ]
SCF: Cycle: 11   F: -28.403696723475303   dF: -7.571e-06   |Residual|: 4.406e-04   |deigs|: 1.293e-03  t[s]:     30.68
	FillingsUpdate:  mu: -0.096343255  nElectrons: 9.000000  magneticMoment: [ Abs: 0.16247  Tot: +0.16000 ]
SCF: Cycle: 12   F: -28.403704942675621   dF: -8.219e-06   |Residual|: 3.919e-04   |deigs|: 7.746e-04  t[s]:     32.67
	FillingsUpdate:  mu: -0.095231494  nElectrons: 9.000000  magneticMoment: [ Abs: 0.16278  Tot: +0.16000 ]
SCF: Cycle: 13   F: -28.403709068676815   dF: -4.126e-06   |Residual|: 3.676e-04   |deigs|: 1.173e-03  t[s]:     34.61
	FillingsUpdate:  mu: -0.094098663  nElectrons: 9.000000  magneticMoment: [ Abs: 0.16096  Tot: +0.16000 ]
SCF: Cycle: 14   F: -28.403712533210555   dF: -3.465e-06   |Residual|: 3.095e-04   |deigs|: 1.215e-03  t[s]:     36.64
	FillingsUpdate:  mu: -0.093692305  nElectrons: 9.000000  magneticMoment: [ Abs: 0.16001  Tot: +0.16000 ]
SCF: Cycle: 15   F: -28.403714279934679   dF: -1.747e-06   |Residual|: 2.622e-04   |deigs|: 4.462e-04  t[s]:     38.63
	FillingsUpdate:  mu: -0.093378705  nElectrons: 9.000000  magneticMoment: [ Abs: 0.16069  Tot: +0.16000 ]
SCF: Cycle: 16   F: -28.403715548137907   dF: -1.268e-06   |Residual|: 1.379e-04   |deigs|: 3.175e-04  t[s]:     40.61
	FillingsUpdate:  mu: -0.093042386  nElectrons: 9.000000  magneticMoment: [ Abs: 0.16037  Tot: +0.16000 ]
SCF: Cycle: 17   F: -28.403715932124818   dF: -3.840e-07   |Residual|: 7.965e-05   |deigs|: 3.746e-04  t[s]:     42.63
	FillingsUpdate:  mu: -0.093073072  nElectrons: 9.000000  magneticMoment: [ Abs: 0.16005  Tot: +0.16000 ]
SCF: Cycle: 18   F: -28.403716130049556   dF: -1.979e-07   |Residual|: 4.666e-05   |deigs|: 9.754e-05  t[s]:     44.60
	FillingsUpdate:  mu: -0.093073419  nElectrons: 9.000000  magneticMoment: [ Abs: 0.16013  Tot: +0.16000 ]
SCF: Cycle: 19   F: -28.403716228729248   dF: -9.868e-08   |Residual|: 2.999e-05   |deigs|: 3.953e-05  t[s]:     46.70
	FillingsUpdate:  mu: -0.093043126  nElectrons: 9.000000  magneticMoment: [ Abs: 0.16008  Tot: +0.16000 ]
SCF: Cycle: 20   F: -28.403716276511570   dF: -4.778e-08   |Residual|: 1.686e-05   |deigs|: 3.580e-05  t[s]:     48.69
	FillingsUpdate:  mu: -0.093035798  nElectrons: 9.000000  magneticMoment: [ Abs: 0.16005  Tot: +0.16000 ]
SCF: Cycle: 21   F: -28.403716305101028   dF: -2.859e-08   |Residual|: 8.390e-06   |deigs|: 1.408e-05  t[s]:     50.63
	FillingsUpdate:  mu: -0.093037878  nElectrons: 9.000000  magneticMoment: [ Abs: 0.16006  Tot: +0.16000 ]
SCF: Cycle: 22   F: -28.403716324637823   dF: -1.954e-08   |Residual|: 3.516e-06   |deigs|: 1.177e-05  t[s]:     52.55
	FillingsUpdate:  mu: -0.093039015  nElectrons: 9.000000  magneticMoment: [ Abs: 0.16006  Tot: +0.16000 ]
SCF: Cycle: 23   F: -28.403716339381344   dF: -1.474e-08   |Residual|: 2.316e-06   |deigs|: 1.907e-05  t[s]:     54.41
	FillingsUpdate:  mu: -0.093037389  nElectrons: 9.000000  magneticMoment: [ Abs: 0.16005  Tot: +0.16000 ]
SCF: Cycle: 24   F: -28.403716352991051   dF: -1.361e-08   |Residual|: 1.984e-06   |deigs|: 2.374e-05  t[s]:     56.20
	FillingsUpdate:  mu: -0.093033984  nElectrons: 9.000000  magneticMoment: [ Abs: 0.16004  Tot: +0.16000 ]
SCF: Cycle: 25   F: -28.403716358008996   dF: -5.018e-09   |Residual|: 1.622e-06   |deigs|: 1.402e-05  t[s]:     58.12
	FillingsUpdate:  mu: -0.093034449  nElectrons: 9.000000  magneticMoment: [ Abs: 0.16003  Tot: +0.16000 ]
SCF: Cycle: 26   F: -28.403716360941736   dF: -2.933e-09   |Residual|: 1.669e-06   |deigs|: 2.710e-05  t[s]:     60.08
SCF: Converged (|Delta E|<1.000000e-08 for 2 iters).


# Ionic positions in lattice coordinates:
ion K   0.000000000000000   0.000000000000000   0.000000000000000 0

# Forces in Lattice coordinates:
force K   0.000000000000000  -0.000000000000000   0.000000000000000 0

# Energy components:
   Eewald =      -18.0480261003326561
       EH =        4.8676455871347857
     Eloc =      -18.0600597074448501
      Enl =       -2.7736915001668931
   Epulay =        0.0000000041876954
      Exc =       -4.2624330239107167
       KE =        9.8728488136682166
-------------------------------------
     Etot =      -28.4037159268644182
       TS =        0.0000004340773189
-------------------------------------
        F =      -28.4037163609417362

IonicMinimize: Iter:   0  F: -28.403716360941736  |grad|_K:  0.000e+00  t[s]:     60.24
IonicMinimize: Converged (|grad|_K<1.000000e-04).

#--- Lowdin population analysis ---
# oxidation-state K +0.039
# magnetic-moments K +0.142

End date and time: Sat Feb  5 23:44:06 2022  (Duration: 0-0:01:00.26)
Done!
scale=3
magnetization=0.16
--------------------------------------------------------------------------
The library attempted to open the following supporting CUDA libraries,
but each of them failed.  CUDA-aware support is disabled.
libcuda.so.1: cannot open shared object file: No such file or directory
libcuda.dylib: cannot open shared object file: No such file or directory
/usr/lib64/libcuda.so.1: cannot open shared object file: No such file or directory
/usr/lib64/libcuda.dylib: cannot open shared object file: No such file or directory
If you are not interested in CUDA-aware support, then run with
--mca opal_warn_on_missing_libcuda 0 to suppress this message.  If you are interested
in CUDA-aware support, then try setting LD_LIBRARY_PATH to the location
of libcuda.so.1 to get passed this issue.
--------------------------------------------------------------------------
--------------------------------------------------------------------------
No OpenFabrics connection schemes reported that they were able to be
used on a specific port.  As such, the openib BTL (OpenFabrics
support) will be disabled for this port.

  Local host:           d-6-4-1
  Local device:         mlx5_1
  Local port:           1
  CPCs attempted:       rdmacm, udcm
--------------------------------------------------------------------------

*************** JDFTx 1.6.0 (git hash 42ebbcc2) ***************

Start date and time: Sat Feb  5 23:44:07 2022
Executable jdftx with command-line: -i Alkali.in
Running on hosts (process indices):  d-6-4-1 (0-18)
Divided in process groups (process indices):  0 (0)  1 (1)  2 (2)  3 (3)  4 (4)  5 (5)  6 (6)  7 (7)  8 (8)  9 (9)  10 (10)  11 (11)  12 (12)  13 (13)  14 (14)  15 (15)  16 (16)  17 (17)  18 (18)
Resource initialization completed at t[s]:      0.00
Run totals: 19 processes, 48 threads, 0 GPUs


Input parsed successfully to the following command list (including defaults):

basis kpoint-dependent
coords-type Lattice
core-overlap-check vector
coulomb-interaction Slab 001
davidson-band-ratio 1.1
dump End None
dump-name $INPUT.$VAR
elec-cutoff 20
elec-eigen-algo Davidson
elec-ex-corr gga-PBE
elec-initial-magnetization 0.160000 yes
elec-smearing Fermi 1e-05
electronic-minimize  \
	dirUpdateScheme      FletcherReeves \
	linminMethod         DirUpdateRecommended \
	nIterations          100 \
	history              15 \
	knormThreshold       0 \
	energyDiffThreshold  1e-08 \
	nEnergyDiff          2 \
	alphaTstart          1 \
	alphaTmin            1e-10 \
	updateTestStepSize   yes \
	alphaTreduceFactor   0.1 \
	alphaTincreaseFactor 3 \
	nAlphaAdjustMax      3 \
	wolfeEnergy          0.0001 \
	wolfeGradient        0.9 \
	fdTest               no
electronic-scf  \
	nIterations	10000 \
	energyDiffThreshold	1e-08 \
	residualThreshold	1e-07 \
	mixFraction	0.5 \
	qMetric	0.8 \
	history	10 \
	nEigSteps	2 \
	eigDiffThreshold	1e-08 \
	mixedVariable	Density \
	qKerker	0.8 \
	qKappa	-1 \
	verbose	no \
	mixFractionMag	1.5
exchange-regularization WignerSeitzTruncated
fluid None
fluid-ex-corr (null) lda-PZ
fluid-gummel-loop 10 1.000000e-05
fluid-minimize  \
	dirUpdateScheme      PolakRibiere \
	linminMethod         DirUpdateRecommended \
	nIterations          100 \
	history              15 \
	knormThreshold       0 \
	energyDiffThreshold  0 \
	nEnergyDiff          2 \
	alphaTstart          1 \
	alphaTmin            1e-10 \
	updateTestStepSize   yes \
	alphaTreduceFactor   0.1 \
	alphaTincreaseFactor 3 \
	nAlphaAdjustMax      3 \
	wolfeEnergy          0.0001 \
	wolfeGradient        0.9 \
	fdTest               no
fluid-solvent H2O 55.338 ScalarEOS \
	epsBulk 78.4 \
	pMol 0.92466 \
	epsInf 1.77 \
	Pvap 1.06736e-10 \
	sigmaBulk 4.62e-05 \
	Rvdw 2.61727 \
	Res 1.42 \
	tauNuc 343133 \
	poleEl 15 7 1
forces-output-coords Positions
ion K   0.000000000000000   0.000000000000000   0.000000000000000 0
ion-species SG15/$ID_ONCV_PBE.upf
ion-width 0
ionic-minimize  \
	dirUpdateScheme      L-BFGS \
	linminMethod         DirUpdateRecommended \
	nIterations          0 \
	history              15 \
	knormThreshold       0.0001 \
	energyDiffThreshold  1e-06 \
	nEnergyDiff          2 \
	alphaTstart          1 \
	alphaTmin            1e-10 \
	updateTestStepSize   yes \
	alphaTreduceFactor   0.1 \
	alphaTincreaseFactor 3 \
	nAlphaAdjustMax      3 \
	wolfeEnergy          0.0001 \
	wolfeGradient        0.9 \
	fdTest               no
kpoint   0.000000000000   0.000000000000   0.000000000000  1.00000000000000
kpoint-folding 12 12 1 
latt-move-scale 1 1 1
latt-scale 3 3 1 
lattice  \
	   4.727486978767153   -2.363743489383575    0.000000000000000  \
	  -0.000000000000000    4.094123819672498    0.000000000000000  \
	   0.000000000000000    0.000000000000000   40.000000000000000 
lattice-minimize  \
	dirUpdateScheme      L-BFGS \
	linminMethod         DirUpdateRecommended \
	nIterations          0 \
	history              15 \
	knormThreshold       0 \
	energyDiffThreshold  1e-06 \
	nEnergyDiff          2 \
	alphaTstart          1 \
	alphaTmin            1e-10 \
	updateTestStepSize   yes \
	alphaTreduceFactor   0.1 \
	alphaTincreaseFactor 3 \
	nAlphaAdjustMax      3 \
	wolfeEnergy          0.0001 \
	wolfeGradient        0.9 \
	fdTest               no
lcao-params -1 1e-06 1e-05
pcm-variant GLSSA13
spintype z-spin
subspace-rotation-factor 1 yes
symmetries automatic
symmetry-threshold 0.0001



---------- Setting up symmetries ----------

Found 24 point-group symmetries of the bravais lattice
Found 24 space-group symmetries with basis
Applied RMS atom displacement 0 bohrs to make symmetries exact.

---------- Initializing the Grid ----------
R = 
[      14.1825     -7.09123            0  ]
[            0      12.2824            0  ]
[            0            0           40  ]
unit cell volume = 6967.77
G =
[   0.443025   0.255781         -0  ]
[          0   0.511561         -0  ]
[         -0         -0    0.15708  ]
Minimum fftbox size, Smin = [  60  60  164  ]
Chosen fftbox size, S = [  60  60  168  ]

---------- Exchange Correlation functional ----------
Initalized PBE GGA exchange.
Initalized PBE GGA correlation.

---------- Setting up pseudopotentials ----------
Width of ionic core gaussian charges (only for fluid interactions / plotting) set to 0

Reading pseudopotential file '/home/gridsan/aligho/DFT/build-Nov24/pseudopotentials/SG15/K_ONCV_PBE.upf':
  'K' pseudopotential, 'PBE' functional
  Generated using ONCVPSP code by D. R. Hamann
  Author: Martin Schlipf and Francois Gygi  Date: 150915.
  9 valence electrons, 3 orbitals, 6 projectors, 2222 radial grid points, with lMax = 2
  Transforming local potential to a uniform radial grid of dG=0.02 with 1489 points.
  Transforming nonlocal projectors to a uniform radial grid of dG=0.02 with 432 points.
    3S    l: 0   occupation:  2.0   eigenvalue: -1.298836
    3P    l: 1   occupation:  6.0   eigenvalue: -0.691386
    4S    l: 0   occupation:  1.0   eigenvalue: -0.085223
  Transforming atomic orbitals to a uniform radial grid of dG=0.02 with 432 points.
  Core radius for overlap checks: 2.06 bohrs.
  Reading pulay file /home/gridsan/aligho/DFT/build-Nov24/pseudopotentials/SG15/K_ONCV_PBE.pulay ... using dE_dnG = -1.597219e-05 computed for Ecut = 20.

Initialized 1 species with 1 total atoms.

Folded 1 k-points by 12x12x1 to 144 k-points.

---------- Setting up k-points, bands, fillings ----------
Reduced to 19 k-points under symmetry. 
Computing the number of bands and number of electrons
Calculating initial fillings.
nElectrons:   9.000000   nBands: 6   nStates: 38

----- Setting up reduced wavefunction bases (one per k-point) -----
average nbasis = 29766.104 , ideal nbasis = 29766.845

---------- Setting up coulomb interaction ----------
Initialized slab truncation along lattice direction 001

---------- Setting up 2D ewald sum ----------
Optimum gaussian width for ewald sums = 7.873530 bohr.
Real space sums over 289 unit cells with max indices [  8  8  0  ]
Reciprocal space sums over 81 terms with max indices [  4  4  0  ]

---------- Allocating electronic variables ----------
Initializing wave functions:  linear combination of atomic orbitals
Note: number of bands (6) exceeds available atomic orbitals (5)
K pseudo-atom occupations:   s ( 2 1 )  p ( 6 )
[d-6-4-1:67772] 18 more processes have sent help message help-mpi-common-cuda.txt / dlopen failed
[d-6-4-1:67772] Set MCA parameter "orte_base_help_aggregate" to 0 to see all help / error messages
[d-6-4-1:67772] 18 more processes have sent help message help-mpi-btl-openib-cpc-base.txt / no cpcs for port
	FillingsUpdate:  mu: -0.087577222  nElectrons: 9.000000  magneticMoment: [ Abs: 0.16000  Tot: +0.16000 ]
LCAOMinimize: Iter:   0  F: -28.3829524493958125  |grad|_K:  1.855e-05  alpha:  1.000e+00
	FillingsUpdate:  mu: -0.087573504  nElectrons: 9.000000  magneticMoment: [ Abs: 0.16000  Tot: +0.16000 ]
LCAOMinimize: Iter:   1  F: -28.3829526819979883  |grad|_K:  1.369e-07  alpha:  9.878e-01  linmin: -1.514e-02  cgtest:  4.853e-01  t[s]:      8.76
LCAOMinimize: Encountered beta<0, resetting CG.
	FillingsUpdate:  mu: -0.087573500  nElectrons: 9.000000  magneticMoment: [ Abs: 0.16000  Tot: +0.16000 ]
LCAOMinimize: Iter:   2  F: -28.3829526820111688  |grad|_K:  1.407e-09  alpha:  1.011e+00  linmin:  4.163e-02  cgtest: -9.887e-01  t[s]:     11.13
LCAOMinimize: Converged (|Delta F|<1.000000e-06 for 2 iters).


---- Citations for features of the code used in this run ----

   Software package:
      R. Sundararaman, K. Letchworth-Weaver, K.A. Schwarz, D. Gunceler, Y. Ozhabes and T.A. Arias, 'JDFTx: software for joint density-functional theory', SoftwareX 6, 278 (2017)

   gga-PBE exchange-correlation functional:
      J.P. Perdew, K. Burke and M. Ernzerhof, Phys. Rev. Lett. 77, 3865 (1996)

   Pseudopotentials:
      M Schlipf and F Gygi, Comput. Phys. Commun. 196, 36 (2015)

   Truncated Coulomb potentials:
      R. Sundararaman and T.A. Arias, Phys. Rev. B 87, 165122 (2013)

This list may not be complete. Please suggest additional citations or
report any other bugs at https://github.com/shankar1729/jdftx/issues

Initialization completed successfully at t[s]:     11.29


-------- Electronic minimization -----------
Will mix electronic density at each iteration.
	FillingsUpdate:  mu: -0.087573500  nElectrons: 9.000000  magneticMoment: [ Abs: 0.16000  Tot: +0.16000 ]
	FillingsUpdate:  mu: -0.089412053  nElectrons: 9.000000  magneticMoment: [ Abs: 0.16000  Tot: +0.16000 ]
SCF: Cycle:  0   F: -28.384436666771869   dF: -1.484e-03   |Residual|: 3.350e-03   |deigs|: 1.746e-01  t[s]:     16.01
	FillingsUpdate:  mu: -0.089634139  nElectrons: 9.000000  magneticMoment: [ Abs: 0.16000  Tot: +0.16000 ]
SCF: Cycle:  1   F: -28.384459771542037   dF: -2.310e-05   |Residual|: 2.865e-03   |deigs|: 4.748e-03  t[s]:     19.69
	FillingsUpdate:  mu: -0.090241148  nElectrons: 9.000000  magneticMoment: [ Abs: 0.16175  Tot: +0.16000 ]
SCF: Cycle:  2   F: -28.384489866376800   dF: -3.009e-05   |Residual|: 1.467e-03   |deigs|: 2.951e-03  t[s]:     23.43
	FillingsUpdate:  mu: -0.090475660  nElectrons: 9.000000  magneticMoment: [ Abs: 0.16051  Tot: +0.16000 ]
SCF: Cycle:  3   F: -28.384500573838249   dF: -1.071e-05   |Residual|: 8.465e-04   |deigs|: 2.097e-03  t[s]:     27.24
	FillingsUpdate:  mu: -0.090430211  nElectrons: 9.000000  magneticMoment: [ Abs: 0.16017  Tot: +0.16000 ]
SCF: Cycle:  4   F: -28.384506009099020   dF: -5.435e-06   |Residual|: 5.105e-04   |deigs|: 2.186e-03  t[s]:     31.08
	FillingsUpdate:  mu: -0.090385886  nElectrons: 9.000000  magneticMoment: [ Abs: 0.16027  Tot: +0.16000 ]
SCF: Cycle:  5   F: -28.384509289414602   dF: -3.280e-06   |Residual|: 3.707e-04   |deigs|: 2.144e-03  t[s]:     34.97
	FillingsUpdate:  mu: -0.090248723  nElectrons: 9.000000  magneticMoment: [ Abs: 0.16019  Tot: +0.16000 ]
SCF: Cycle:  6   F: -28.384510891551940   dF: -1.602e-06   |Residual|: 2.782e-04   |deigs|: 1.634e-03  t[s]:     38.90
	FillingsUpdate:  mu: -0.090077674  nElectrons: 9.000000  magneticMoment: [ Abs: 0.16037  Tot: +0.16000 ]
SCF: Cycle:  7   F: -28.384511558022563   dF: -6.665e-07   |Residual|: 2.112e-04   |deigs|: 8.519e-04  t[s]:     42.97
	FillingsUpdate:  mu: -0.089878069  nElectrons: 9.000000  magneticMoment: [ Abs: 0.16077  Tot: +0.16000 ]
SCF: Cycle:  8   F: -28.384511704144131   dF: -1.461e-07   |Residual|: 1.769e-04   |deigs|: 7.384e-04  t[s]:     47.09
	FillingsUpdate:  mu: -0.089711325  nElectrons: 9.000000  magneticMoment: [ Abs: 0.16075  Tot: +0.16000 ]
SCF: Cycle:  9   F: -28.384511733702332   dF: -2.956e-08   |Residual|: 1.672e-04   |deigs|: 1.713e-04  t[s]:     51.39
	FillingsUpdate:  mu: -0.089464349  nElectrons: 9.000000  magneticMoment: [ Abs: 0.16069  Tot: +0.16000 ]
SCF: Cycle: 10   F: -28.384511878880158   dF: -1.452e-07   |Residual|: 1.416e-04   |deigs|: 3.266e-04  t[s]:     55.67
	FillingsUpdate:  mu: -0.089331121  nElectrons: 9.000000  magneticMoment: [ Abs: 0.16072  Tot: +0.16000 ]
SCF: Cycle: 11   F: -28.384512092908746   dF: -2.140e-07   |Residual|: 1.180e-04   |deigs|: 1.612e-04  t[s]:     59.97
	FillingsUpdate:  mu: -0.089195008  nElectrons: 9.000000  magneticMoment: [ Abs: 0.16066  Tot: +0.16000 ]
SCF: Cycle: 12   F: -28.384512308975314   dF: -2.161e-07   |Residual|: 9.962e-05   |deigs|: 1.488e-04  t[s]:     64.20
	FillingsUpdate:  mu: -0.088977632  nElectrons: 9.000000  magneticMoment: [ Abs: 0.16050  Tot: +0.16000 ]
SCF: Cycle: 13   F: -28.384512207398320   dF: +1.016e-07   |Residual|: 9.895e-05   |deigs|: 2.566e-04  t[s]:     68.47
	FillingsUpdate:  mu: -0.088785829  nElectrons: 9.000000  magneticMoment: [ Abs: 0.16026  Tot: +0.16000 ]
SCF: Cycle: 14   F: -28.384512048805227   dF: +1.586e-07   |Residual|: 9.579e-05   |deigs|: 4.734e-04  t[s]:     72.73
	FillingsUpdate:  mu: -0.088644923  nElectrons: 9.000000  magneticMoment: [ Abs: 0.16083  Tot: +0.16000 ]
SCF: Cycle: 15   F: -28.384512550834131   dF: -5.020e-07   |Residual|: 8.316e-05   |deigs|: 3.244e-04  t[s]:     77.03
	FillingsUpdate:  mu: -0.088586939  nElectrons: 9.000000  magneticMoment: [ Abs: 0.16060  Tot: +0.16000 ]
SCF: Cycle: 16   F: -28.384512970734409   dF: -4.199e-07   |Residual|: 6.441e-05   |deigs|: 6.517e-05  t[s]:     81.29
	FillingsUpdate:  mu: -0.088479121  nElectrons: 9.000000  magneticMoment: [ Abs: 0.16025  Tot: +0.16000 ]
SCF: Cycle: 17   F: -28.384513124070644   dF: -1.533e-07   |Residual|: 4.417e-05   |deigs|: 9.382e-05  t[s]:     85.51
	FillingsUpdate:  mu: -0.088443745  nElectrons: 9.000000  magneticMoment: [ Abs: 0.16029  Tot: +0.16000 ]
SCF: Cycle: 18   F: -28.384513216832222   dF: -9.276e-08   |Residual|: 2.712e-05   |deigs|: 3.942e-05  t[s]:     89.65
	FillingsUpdate:  mu: -0.088442042  nElectrons: 9.000000  magneticMoment: [ Abs: 0.16026  Tot: +0.16000 ]
SCF: Cycle: 19   F: -28.384513243101996   dF: -2.627e-08   |Residual|: 1.634e-05   |deigs|: 1.148e-05  t[s]:     93.69
	FillingsUpdate:  mu: -0.088442038  nElectrons: 9.000000  magneticMoment: [ Abs: 0.16027  Tot: +0.16000 ]
SCF: Cycle: 20   F: -28.384513266064239   dF: -2.296e-08   |Residual|: 8.116e-06   |deigs|: 9.040e-06  t[s]:     97.90
	FillingsUpdate:  mu: -0.088440257  nElectrons: 9.000000  magneticMoment: [ Abs: 0.16026  Tot: +0.16000 ]
SCF: Cycle: 21   F: -28.384513274460058   dF: -8.396e-09   |Residual|: 5.493e-06   |deigs|: 7.033e-06  t[s]:    101.76
	FillingsUpdate:  mu: -0.088440100  nElectrons: 9.000000  magneticMoment: [ Abs: 0.16026  Tot: +0.16000 ]
SCF: Cycle: 22   F: -28.384513279523691   dF: -5.064e-09   |Residual|: 3.035e-06   |deigs|: 8.873e-06  t[s]:    105.89
SCF: Converged (|Delta E|<1.000000e-08 for 2 iters).


# Ionic positions in lattice coordinates:
ion K   0.000000000000000   0.000000000000000   0.000000000000000 0

# Forces in Lattice coordinates:
force K  -0.000000000000000  -0.000000000000000   0.000000000000000 0

# Energy components:
   Eewald =      -12.0320174002217755
       EH =       10.7068565016333448
     Eloc =      -29.9010920790195840
      Enl =       -2.7720393689680582
   Epulay =       -0.0000000016982517
      Exc =       -4.2364121123168932
       KE =        9.8501916151448441
-------------------------------------
     Etot =      -28.3845128454463733
       TS =        0.0000004340773189
-------------------------------------
        F =      -28.3845132795236914

IonicMinimize: Iter:   0  F: -28.384513279523691  |grad|_K:  0.000e+00  t[s]:    106.14
IonicMinimize: Converged (|grad|_K<1.000000e-04).

#--- Lowdin population analysis ---
# oxidation-state K +0.026
# magnetic-moments K +0.152

End date and time: Sat Feb  5 23:45:54 2022  (Duration: 0-0:01:46.19)
Done!
scale=4
magnetization=0.16
--------------------------------------------------------------------------
The library attempted to open the following supporting CUDA libraries,
but each of them failed.  CUDA-aware support is disabled.
libcuda.so.1: cannot open shared object file: No such file or directory
libcuda.dylib: cannot open shared object file: No such file or directory
/usr/lib64/libcuda.so.1: cannot open shared object file: No such file or directory
/usr/lib64/libcuda.dylib: cannot open shared object file: No such file or directory
If you are not interested in CUDA-aware support, then run with
--mca opal_warn_on_missing_libcuda 0 to suppress this message.  If you are interested
in CUDA-aware support, then try setting LD_LIBRARY_PATH to the location
of libcuda.so.1 to get passed this issue.
--------------------------------------------------------------------------
--------------------------------------------------------------------------
No OpenFabrics connection schemes reported that they were able to be
used on a specific port.  As such, the openib BTL (OpenFabrics
support) will be disabled for this port.

  Local host:           d-6-4-1
  Local device:         mlx5_1
  Local port:           1
  CPCs attempted:       rdmacm, udcm
--------------------------------------------------------------------------

*************** JDFTx 1.6.0 (git hash 42ebbcc2) ***************

Start date and time: Sat Feb  5 23:45:55 2022
Executable jdftx with command-line: -i Alkali.in
Running on hosts (process indices):  d-6-4-1 (0-18)
Divided in process groups (process indices):  0 (0)  1 (1)  2 (2)  3 (3)  4 (4)  5 (5)  6 (6)  7 (7)  8 (8)  9 (9)  10 (10)  11 (11)  12 (12)  13 (13)  14 (14)  15 (15)  16 (16)  17 (17)  18 (18)
Resource initialization completed at t[s]:      0.00
Run totals: 19 processes, 48 threads, 0 GPUs


Input parsed successfully to the following command list (including defaults):

basis kpoint-dependent
coords-type Lattice
core-overlap-check vector
coulomb-interaction Slab 001
davidson-band-ratio 1.1
dump End None
dump-name $INPUT.$VAR
elec-cutoff 20
elec-eigen-algo Davidson
elec-ex-corr gga-PBE
elec-initial-magnetization 0.160000 yes
elec-smearing Fermi 1e-05
electronic-minimize  \
	dirUpdateScheme      FletcherReeves \
	linminMethod         DirUpdateRecommended \
	nIterations          100 \
	history              15 \
	knormThreshold       0 \
	energyDiffThreshold  1e-08 \
	nEnergyDiff          2 \
	alphaTstart          1 \
	alphaTmin            1e-10 \
	updateTestStepSize   yes \
	alphaTreduceFactor   0.1 \
	alphaTincreaseFactor 3 \
	nAlphaAdjustMax      3 \
	wolfeEnergy          0.0001 \
	wolfeGradient        0.9 \
	fdTest               no
electronic-scf  \
	nIterations	10000 \
	energyDiffThreshold	1e-08 \
	residualThreshold	1e-07 \
	mixFraction	0.5 \
	qMetric	0.8 \
	history	10 \
	nEigSteps	2 \
	eigDiffThreshold	1e-08 \
	mixedVariable	Density \
	qKerker	0.8 \
	qKappa	-1 \
	verbose	no \
	mixFractionMag	1.5
exchange-regularization WignerSeitzTruncated
fluid None
fluid-ex-corr (null) lda-PZ
fluid-gummel-loop 10 1.000000e-05
fluid-minimize  \
	dirUpdateScheme      PolakRibiere \
	linminMethod         DirUpdateRecommended \
	nIterations          100 \
	history              15 \
	knormThreshold       0 \
	energyDiffThreshold  0 \
	nEnergyDiff          2 \
	alphaTstart          1 \
	alphaTmin            1e-10 \
	updateTestStepSize   yes \
	alphaTreduceFactor   0.1 \
	alphaTincreaseFactor 3 \
	nAlphaAdjustMax      3 \
	wolfeEnergy          0.0001 \
	wolfeGradient        0.9 \
	fdTest               no
fluid-solvent H2O 55.338 ScalarEOS \
	epsBulk 78.4 \
	pMol 0.92466 \
	epsInf 1.77 \
	Pvap 1.06736e-10 \
	sigmaBulk 4.62e-05 \
	Rvdw 2.61727 \
	Res 1.42 \
	tauNuc 343133 \
	poleEl 15 7 1
forces-output-coords Positions
ion K   0.000000000000000   0.000000000000000   0.000000000000000 0
ion-species SG15/$ID_ONCV_PBE.upf
ion-width 0
ionic-minimize  \
	dirUpdateScheme      L-BFGS \
	linminMethod         DirUpdateRecommended \
	nIterations          0 \
	history              15 \
	knormThreshold       0.0001 \
	energyDiffThreshold  1e-06 \
	nEnergyDiff          2 \
	alphaTstart          1 \
	alphaTmin            1e-10 \
	updateTestStepSize   yes \
	alphaTreduceFactor   0.1 \
	alphaTincreaseFactor 3 \
	nAlphaAdjustMax      3 \
	wolfeEnergy          0.0001 \
	wolfeGradient        0.9 \
	fdTest               no
kpoint   0.000000000000   0.000000000000   0.000000000000  1.00000000000000
kpoint-folding 12 12 1 
latt-move-scale 1 1 1
latt-scale 4 4 1 
lattice  \
	   4.727486978767153   -2.363743489383575    0.000000000000000  \
	  -0.000000000000000    4.094123819672498    0.000000000000000  \
	   0.000000000000000    0.000000000000000   40.000000000000000 
lattice-minimize  \
	dirUpdateScheme      L-BFGS \
	linminMethod         DirUpdateRecommended \
	nIterations          0 \
	history              15 \
	knormThreshold       0 \
	energyDiffThreshold  1e-06 \
	nEnergyDiff          2 \
	alphaTstart          1 \
	alphaTmin            1e-10 \
	updateTestStepSize   yes \
	alphaTreduceFactor   0.1 \
	alphaTincreaseFactor 3 \
	nAlphaAdjustMax      3 \
	wolfeEnergy          0.0001 \
	wolfeGradient        0.9 \
	fdTest               no
lcao-params -1 1e-06 1e-05
pcm-variant GLSSA13
spintype z-spin
subspace-rotation-factor 1 yes
symmetries automatic
symmetry-threshold 0.0001



---------- Setting up symmetries ----------

Found 24 point-group symmetries of the bravais lattice
Found 24 space-group symmetries with basis
Applied RMS atom displacement 0 bohrs to make symmetries exact.

---------- Initializing the Grid ----------
R = 
[      18.9099     -9.45497            0  ]
[            0      16.3765            0  ]
[            0            0           40  ]
unit cell volume = 12387.1
G =
[   0.332269   0.191835         -0  ]
[          0   0.383671         -0  ]
[         -0         -0    0.15708  ]
Minimum fftbox size, Smin = [  80  80  164  ]
Chosen fftbox size, S = [  80  80  168  ]

---------- Exchange Correlation functional ----------
Initalized PBE GGA exchange.
Initalized PBE GGA correlation.

---------- Setting up pseudopotentials ----------
Width of ionic core gaussian charges (only for fluid interactions / plotting) set to 0

Reading pseudopotential file '/home/gridsan/aligho/DFT/build-Nov24/pseudopotentials/SG15/K_ONCV_PBE.upf':
  'K' pseudopotential, 'PBE' functional
  Generated using ONCVPSP code by D. R. Hamann
  Author: Martin Schlipf and Francois Gygi  Date: 150915.
  9 valence electrons, 3 orbitals, 6 projectors, 2222 radial grid points, with lMax = 2
  Transforming local potential to a uniform radial grid of dG=0.02 with 1489 points.
  Transforming nonlocal projectors to a uniform radial grid of dG=0.02 with 432 points.
    3S    l: 0   occupation:  2.0   eigenvalue: -1.298836
    3P    l: 1   occupation:  6.0   eigenvalue: -0.691386
    4S    l: 0   occupation:  1.0   eigenvalue: -0.085223
  Transforming atomic orbitals to a uniform radial grid of dG=0.02 with 432 points.
  Core radius for overlap checks: 2.06 bohrs.
  Reading pulay file /home/gridsan/aligho/DFT/build-Nov24/pseudopotentials/SG15/K_ONCV_PBE.pulay ... using dE_dnG = -1.597219e-05 computed for Ecut = 20.

Initialized 1 species with 1 total atoms.

Folded 1 k-points by 12x12x1 to 144 k-points.

---------- Setting up k-points, bands, fillings ----------
Reduced to 19 k-points under symmetry. 
Computing the number of bands and number of electrons
Calculating initial fillings.
nElectrons:   9.000000   nBands: 6   nStates: 38

----- Setting up reduced wavefunction bases (one per k-point) -----
average nbasis = 52924.021 , ideal nbasis = 52918.836

---------- Setting up coulomb interaction ----------
Initialized slab truncation along lattice direction 001

---------- Setting up 2D ewald sum ----------
Optimum gaussian width for ewald sums = 10.498040 bohr.
Real space sums over 289 unit cells with max indices [  8  8  0  ]
Reciprocal space sums over 81 terms with max indices [  4  4  0  ]

---------- Allocating electronic variables ----------
Initializing wave functions:  linear combination of atomic orbitals
Note: number of bands (6) exceeds available atomic orbitals (5)
K pseudo-atom occupations:   s ( 2 1 )  p ( 6 )
[d-6-4-1:08662] 18 more processes have sent help message help-mpi-common-cuda.txt / dlopen failed
[d-6-4-1:08662] Set MCA parameter "orte_base_help_aggregate" to 0 to see all help / error messages
[d-6-4-1:08662] 18 more processes have sent help message help-mpi-btl-openib-cpc-base.txt / no cpcs for port
	FillingsUpdate:  mu: -0.085916667  nElectrons: 9.000000  magneticMoment: [ Abs: 0.16000  Tot: +0.16000 ]
LCAOMinimize: Iter:   0  F: -28.3774516847919003  |grad|_K:  3.883e-06  alpha:  1.000e+00
	FillingsUpdate:  mu: -0.085915903  nElectrons: 9.000000  magneticMoment: [ Abs: 0.16000  Tot: +0.16000 ]
LCAOMinimize: Iter:   1  F: -28.3774516949910343  |grad|_K:  1.665e-08  alpha:  9.888e-01  linmin: -6.524e-03  cgtest:  2.819e-01  t[s]:     14.92
LCAOMinimize: Encountered beta<0, resetting CG.
LCAOMinimize: 	Predicted alpha/alphaT>3.000000, increasing alphaT to 2.966317e+00.
	FillingsUpdate:  mu: -0.085915902  nElectrons: 9.000000  magneticMoment: [ Abs: 0.16000  Tot: +0.16000 ]
LCAOMinimize: Iter:   2  F: -28.3774516949912545  |grad|_K:  4.289e-10  alpha:  1.026e+00  linmin:  1.522e-02  cgtest: -9.989e-01  t[s]:     20.46
LCAOMinimize: Converged (|Delta F|<1.000000e-06 for 2 iters).


---- Citations for features of the code used in this run ----

   Software package:
      R. Sundararaman, K. Letchworth-Weaver, K.A. Schwarz, D. Gunceler, Y. Ozhabes and T.A. Arias, 'JDFTx: software for joint density-functional theory', SoftwareX 6, 278 (2017)

   gga-PBE exchange-correlation functional:
      J.P. Perdew, K. Burke and M. Ernzerhof, Phys. Rev. Lett. 77, 3865 (1996)

   Pseudopotentials:
      M Schlipf and F Gygi, Comput. Phys. Commun. 196, 36 (2015)

   Truncated Coulomb potentials:
      R. Sundararaman and T.A. Arias, Phys. Rev. B 87, 165122 (2013)

This list may not be complete. Please suggest additional citations or
report any other bugs at https://github.com/shankar1729/jdftx/issues

Initialization completed successfully at t[s]:     20.72


-------- Electronic minimization -----------
Will mix electronic density at each iteration.
	FillingsUpdate:  mu: -0.085915902  nElectrons: 9.000000  magneticMoment: [ Abs: 0.16000  Tot: +0.16000 ]
	FillingsUpdate:  mu: -0.085990391  nElectrons: 9.000000  magneticMoment: [ Abs: 0.16000  Tot: +0.16000 ]
SCF: Cycle:  0   F: -28.377533328790033   dF: -8.163e-05   |Residual|: 6.100e-04   |deigs|: 1.760e-01  t[s]:     28.86
	FillingsUpdate:  mu: -0.086026743  nElectrons: 9.000000  magneticMoment: [ Abs: 0.16022  Tot: +0.16000 ]
SCF: Cycle:  1   F: -28.377534336503366   dF: -1.008e-06   |Residual|: 4.012e-04   |deigs|: 4.592e-03  t[s]:     35.24
	FillingsUpdate:  mu: -0.086074050  nElectrons: 9.000000  magneticMoment: [ Abs: 0.16030  Tot: +0.16000 ]
SCF: Cycle:  2   F: -28.377534643412034   dF: -3.069e-07   |Residual|: 3.158e-04   |deigs|: 1.696e-03  t[s]:     41.72
	FillingsUpdate:  mu: -0.086160094  nElectrons: 9.000000  magneticMoment: [ Abs: 0.16043  Tot: +0.16000 ]
SCF: Cycle:  3   F: -28.377534945185129   dF: -3.018e-07   |Residual|: 2.146e-04   |deigs|: 4.322e-04  t[s]:     48.30
	FillingsUpdate:  mu: -0.086251351  nElectrons: 9.000000  magneticMoment: [ Abs: 0.16043  Tot: +0.16000 ]
SCF: Cycle:  4   F: -28.377535279028905   dF: -3.338e-07   |Residual|: 1.323e-04   |deigs|: 7.605e-04  t[s]:     55.06
	FillingsUpdate:  mu: -0.086290722  nElectrons: 9.000000  magneticMoment: [ Abs: 0.16052  Tot: +0.16000 ]
SCF: Cycle:  5   F: -28.377535471776184   dF: -1.927e-07   |Residual|: 9.748e-05   |deigs|: 4.557e-04  t[s]:     61.85
	FillingsUpdate:  mu: -0.086292918  nElectrons: 9.000000  magneticMoment: [ Abs: 0.16045  Tot: +0.16000 ]
SCF: Cycle:  6   F: -28.377535619955335   dF: -1.482e-07   |Residual|: 5.909e-05   |deigs|: 7.612e-04  t[s]:     68.76
	FillingsUpdate:  mu: -0.086286536  nElectrons: 9.000000  magneticMoment: [ Abs: 0.16042  Tot: +0.16000 ]
SCF: Cycle:  7   F: -28.377535697429362   dF: -7.747e-08   |Residual|: 4.417e-05   |deigs|: 4.028e-04  t[s]:     75.73
	FillingsUpdate:  mu: -0.086270985  nElectrons: 9.000000  magneticMoment: [ Abs: 0.16040  Tot: +0.16000 ]
SCF: Cycle:  8   F: -28.377535735711039   dF: -3.828e-08   |Residual|: 2.951e-05   |deigs|: 2.507e-04  t[s]:     82.86
	FillingsUpdate:  mu: -0.086257483  nElectrons: 9.000000  magneticMoment: [ Abs: 0.16035  Tot: +0.16000 ]
SCF: Cycle:  9   F: -28.377535754822603   dF: -1.911e-08   |Residual|: 2.244e-05   |deigs|: 1.412e-04  t[s]:     90.12
	FillingsUpdate:  mu: -0.086248054  nElectrons: 9.000000  magneticMoment: [ Abs: 0.16037  Tot: +0.16000 ]
SCF: Cycle: 10   F: -28.377535754685049   dF: +1.376e-10   |Residual|: 1.965e-05   |deigs|: 7.747e-05  t[s]:     97.53
	FillingsUpdate:  mu: -0.086232831  nElectrons: 9.000000  magneticMoment: [ Abs: 0.16042  Tot: +0.16000 ]
SCF: Cycle: 11   F: -28.377535723562403   dF: +3.112e-08   |Residual|: 1.781e-05   |deigs|: 6.937e-05  t[s]:    104.89
	FillingsUpdate:  mu: -0.086218791  nElectrons: 9.000000  magneticMoment: [ Abs: 0.16041  Tot: +0.16000 ]
SCF: Cycle: 12   F: -28.377535728835078   dF: -5.273e-09   |Residual|: 1.617e-05   |deigs|: 7.799e-05  t[s]:    112.34
	FillingsUpdate:  mu: -0.086203301  nElectrons: 9.000000  magneticMoment: [ Abs: 0.16037  Tot: +0.16000 ]
SCF: Cycle: 13   F: -28.377535734305621   dF: -5.471e-09   |Residual|: 1.409e-05   |deigs|: 6.920e-05  t[s]:    119.70
SCF: Converged (|Delta E|<1.000000e-08 for 2 iters).


# Ionic positions in lattice coordinates:
ion K   0.000000000000000   0.000000000000000   0.000000000000000 0

# Forces in Lattice coordinates:
force K   0.000000000000000   0.000000000000000   0.000000000000000 0

# Energy components:
   Eewald =       -9.0240130501663280
       EH =       13.7557221713775935
     Eloc =      -35.9645979684424404
      Enl =       -2.7673683281734753
   Epulay =        0.0000000066859396
      Exc =       -4.2387539325459667
       KE =        9.8614758010365033
-------------------------------------
     Etot =      -28.3775353002281747
       TS =        0.0000004340774446
-------------------------------------
        F =      -28.3775357343056207

IonicMinimize: Iter:   0  F: -28.377535734305621  |grad|_K:  0.000e+00  t[s]:    120.11
IonicMinimize: Converged (|grad|_K<1.000000e-04).

#--- Lowdin population analysis ---
# oxidation-state K +0.001
# magnetic-moments K +0.160

End date and time: Sat Feb  5 23:47:55 2022  (Duration: 0-0:02:00.17)
Done!
