The alkali metal is K
scale=2
magnetization=-0.16
--------------------------------------------------------------------------
The library attempted to open the following supporting CUDA libraries,
but each of them failed.  CUDA-aware support is disabled.
libcuda.so.1: cannot open shared object file: No such file or directory
libcuda.dylib: cannot open shared object file: No such file or directory
/usr/lib64/libcuda.so.1: cannot open shared object file: No such file or directory
/usr/lib64/libcuda.dylib: cannot open shared object file: No such file or directory
If you are not interested in CUDA-aware support, then run with
--mca opal_warn_on_missing_libcuda 0 to suppress this message.  If you are interested
in CUDA-aware support, then try setting LD_LIBRARY_PATH to the location
of libcuda.so.1 to get passed this issue.
--------------------------------------------------------------------------
--------------------------------------------------------------------------
No OpenFabrics connection schemes reported that they were able to be
used on a specific port.  As such, the openib BTL (OpenFabrics
support) will be disabled for this port.

  Local host:           d-3-7-3
  Local device:         mlx5_1
  Local port:           1
  CPCs attempted:       rdmacm, udcm
--------------------------------------------------------------------------

*************** JDFTx 1.6.0 (git hash 42ebbcc2) ***************

Start date and time: Sat Feb  5 23:37:22 2022
Executable jdftx with command-line: -i Alkali.in
Running on hosts (process indices):  d-3-7-3 (0-18)
Divided in process groups (process indices):  0 (0)  1 (1)  2 (2)  3 (3)  4 (4)  5 (5)  6 (6)  7 (7)  8 (8)  9 (9)  10 (10)  11 (11)  12 (12)  13 (13)  14 (14)  15 (15)  16 (16)  17 (17)  18 (18)
Resource initialization completed at t[s]:      0.00
Run totals: 19 processes, 48 threads, 0 GPUs


Input parsed successfully to the following command list (including defaults):

basis kpoint-dependent
coords-type Lattice
core-overlap-check vector
coulomb-interaction Slab 001
davidson-band-ratio 1.1
dump End None
dump-name $INPUT.$VAR
elec-cutoff 20
elec-eigen-algo Davidson
elec-ex-corr gga-PBE
elec-initial-magnetization -0.160000 yes
elec-smearing Fermi 1e-05
electronic-minimize  \
	dirUpdateScheme      FletcherReeves \
	linminMethod         DirUpdateRecommended \
	nIterations          100 \
	history              15 \
	knormThreshold       0 \
	energyDiffThreshold  1e-08 \
	nEnergyDiff          2 \
	alphaTstart          1 \
	alphaTmin            1e-10 \
	updateTestStepSize   yes \
	alphaTreduceFactor   0.1 \
	alphaTincreaseFactor 3 \
	nAlphaAdjustMax      3 \
	wolfeEnergy          0.0001 \
	wolfeGradient        0.9 \
	fdTest               no
electronic-scf  \
	nIterations	10000 \
	energyDiffThreshold	1e-08 \
	residualThreshold	1e-07 \
	mixFraction	0.5 \
	qMetric	0.8 \
	history	10 \
	nEigSteps	2 \
	eigDiffThreshold	1e-08 \
	mixedVariable	Density \
	qKerker	0.8 \
	qKappa	-1 \
	verbose	no \
	mixFractionMag	1.5
exchange-regularization WignerSeitzTruncated
fluid None
fluid-ex-corr (null) lda-PZ
fluid-gummel-loop 10 1.000000e-05
fluid-minimize  \
	dirUpdateScheme      PolakRibiere \
	linminMethod         DirUpdateRecommended \
	nIterations          100 \
	history              15 \
	knormThreshold       0 \
	energyDiffThreshold  0 \
	nEnergyDiff          2 \
	alphaTstart          1 \
	alphaTmin            1e-10 \
	updateTestStepSize   yes \
	alphaTreduceFactor   0.1 \
	alphaTincreaseFactor 3 \
	nAlphaAdjustMax      3 \
	wolfeEnergy          0.0001 \
	wolfeGradient        0.9 \
	fdTest               no
fluid-solvent H2O 55.338 ScalarEOS \
	epsBulk 78.4 \
	pMol 0.92466 \
	epsInf 1.77 \
	Pvap 1.06736e-10 \
	sigmaBulk 4.62e-05 \
	Rvdw 2.61727 \
	Res 1.42 \
	tauNuc 343133 \
	poleEl 15 7 1
forces-output-coords Positions
ion K   0.000000000000000   0.000000000000000   0.000000000000000 0
ion-species SG15/$ID_ONCV_PBE.upf
ion-width 0
ionic-minimize  \
	dirUpdateScheme      L-BFGS \
	linminMethod         DirUpdateRecommended \
	nIterations          0 \
	history              15 \
	knormThreshold       0.0001 \
	energyDiffThreshold  1e-06 \
	nEnergyDiff          2 \
	alphaTstart          1 \
	alphaTmin            1e-10 \
	updateTestStepSize   yes \
	alphaTreduceFactor   0.1 \
	alphaTincreaseFactor 3 \
	nAlphaAdjustMax      3 \
	wolfeEnergy          0.0001 \
	wolfeGradient        0.9 \
	fdTest               no
kpoint   0.000000000000   0.000000000000   0.000000000000  1.00000000000000
kpoint-folding 12 12 1 
latt-move-scale 1 1 1
latt-scale 2 2 1 
lattice  \
	   4.727486978767153   -2.363743489383575    0.000000000000000  \
	  -0.000000000000000    4.094123819672498    0.000000000000000  \
	   0.000000000000000    0.000000000000000   40.000000000000000 
lattice-minimize  \
	dirUpdateScheme      L-BFGS \
	linminMethod         DirUpdateRecommended \
	nIterations          0 \
	history              15 \
	knormThreshold       0 \
	energyDiffThreshold  1e-06 \
	nEnergyDiff          2 \
	alphaTstart          1 \
	alphaTmin            1e-10 \
	updateTestStepSize   yes \
	alphaTreduceFactor   0.1 \
	alphaTincreaseFactor 3 \
	nAlphaAdjustMax      3 \
	wolfeEnergy          0.0001 \
	wolfeGradient        0.9 \
	fdTest               no
lcao-params -1 1e-06 1e-05
pcm-variant GLSSA13
spintype z-spin
subspace-rotation-factor 1 yes
symmetries automatic
symmetry-threshold 0.0001



---------- Setting up symmetries ----------

Found 24 point-group symmetries of the bravais lattice
Found 24 space-group symmetries with basis
Applied RMS atom displacement 0 bohrs to make symmetries exact.

---------- Initializing the Grid ----------
R = 
[      9.45497     -4.72749            0  ]
[            0      8.18825            0  ]
[            0            0           40  ]
unit cell volume = 3096.79
G =
[   0.664538   0.383671         -0  ]
[          0   0.767342         -0  ]
[         -0         -0    0.15708  ]
Minimum fftbox size, Smin = [  40  40  164  ]
Chosen fftbox size, S = [  40  40  168  ]

---------- Exchange Correlation functional ----------
Initalized PBE GGA exchange.
Initalized PBE GGA correlation.

---------- Setting up pseudopotentials ----------
Width of ionic core gaussian charges (only for fluid interactions / plotting) set to 0

Reading pseudopotential file '/home/gridsan/aligho/DFT/build-Nov24/pseudopotentials/SG15/K_ONCV_PBE.upf':
  'K' pseudopotential, 'PBE' functional
  Generated using ONCVPSP code by D. R. Hamann
  Author: Martin Schlipf and Francois Gygi  Date: 150915.
  9 valence electrons, 3 orbitals, 6 projectors, 2222 radial grid points, with lMax = 2
  Transforming local potential to a uniform radial grid of dG=0.02 with 1489 points.
  Transforming nonlocal projectors to a uniform radial grid of dG=0.02 with 432 points.
    3S    l: 0   occupation:  2.0   eigenvalue: -1.298836
    3P    l: 1   occupation:  6.0   eigenvalue: -0.691386
    4S    l: 0   occupation:  1.0   eigenvalue: -0.085223
  Transforming atomic orbitals to a uniform radial grid of dG=0.02 with 432 points.
  Core radius for overlap checks: 2.06 bohrs.
  Reading pulay file /home/gridsan/aligho/DFT/build-Nov24/pseudopotentials/SG15/K_ONCV_PBE.pulay ... using dE_dnG = -1.597219e-05 computed for Ecut = 20.

Initialized 1 species with 1 total atoms.

Folded 1 k-points by 12x12x1 to 144 k-points.

---------- Setting up k-points, bands, fillings ----------
Reduced to 19 k-points under symmetry. 
Computing the number of bands and number of electrons
Calculating initial fillings.
nElectrons:   9.000000   nBands: 6   nStates: 38

----- Setting up reduced wavefunction bases (one per k-point) -----
average nbasis = 13230.521 , ideal nbasis = 13229.709

---------- Setting up coulomb interaction ----------
Initialized slab truncation along lattice direction 001

---------- Setting up 2D ewald sum ----------
Optimum gaussian width for ewald sums = 5.249020 bohr.
Real space sums over 289 unit cells with max indices [  8  8  0  ]
Reciprocal space sums over 81 terms with max indices [  4  4  0  ]

---------- Allocating electronic variables ----------
Initializing wave functions:  linear combination of atomic orbitals
Note: number of bands (6) exceeds available atomic orbitals (5)
K pseudo-atom occupations:   s ( 2 1 )  p ( 6 )
	FillingsUpdate:  mu: -0.100741019  nElectrons: 9.000000  magneticMoment: [ Abs: 0.16000  Tot: -0.16000 ]
LCAOMinimize: Iter:   0  F: -28.3986520279904191  |grad|_K:  4.257e-05  alpha:  1.000e+00
	FillingsUpdate:  mu: -0.100728849  nElectrons: 9.000000  magneticMoment: [ Abs: 0.16000  Tot: -0.16000 ]
LCAOMinimize: Iter:   1  F: -28.3986532398553670  |grad|_K:  4.205e-07  alpha:  9.778e-01  linmin: -3.573e-02  cgtest:  6.038e-01  t[s]:      4.47
LCAOMinimize: Encountered beta<0, resetting CG.
[d-3-7-3:41282] 18 more processes have sent help message help-mpi-common-cuda.txt / dlopen failed
[d-3-7-3:41282] Set MCA parameter "orte_base_help_aggregate" to 0 to see all help / error messages
[d-3-7-3:41282] 18 more processes have sent help message help-mpi-btl-openib-cpc-base.txt / no cpcs for port
	FillingsUpdate:  mu: -0.100728855  nElectrons: 9.000000  magneticMoment: [ Abs: 0.16000  Tot: -0.16000 ]
LCAOMinimize: Iter:   2  F: -28.3986532399769764  |grad|_K:  2.369e-09  alpha:  1.004e+00  linmin:  7.191e-02  cgtest: -6.392e-01  t[s]:      5.66
LCAOMinimize: 	Step increased F by 4.973799e-14, reducing alpha to 3.858027e-04.
LCAOMinimize: 	Step increased F by 1.065814e-13, reducing alpha to 3.858027e-05.
LCAOMinimize: 	Step increased F by 4.618528e-14, reducing alpha to 3.858027e-06.
LCAOMinimize: 	Step failed to reduce F after 3 attempts. Quitting step.
LCAOMinimize: 	Undoing step.
LCAOMinimize: 	Step failed: resetting search direction.
	FillingsUpdate:  mu: -0.100728855  nElectrons: 9.000000  magneticMoment: [ Abs: 0.16000  Tot: -0.16000 ]
LCAOMinimize: Iter:   3  F: -28.3986532399769729  |grad|_K:  2.369e-09  alpha:  3.858e-06
LCAOMinimize: 	Step increased F by 1.740830e-13, reducing alpha to 1.210091e-03.
	FillingsUpdate:  mu: -0.100728855  nElectrons: 9.000000  magneticMoment: [ Abs: 0.16000  Tot: -0.16000 ]
LCAOMinimize: Iter:   4  F: -28.3986532399770013  |grad|_K:  2.367e-09  alpha:  1.210e-03  linmin: -6.029e-02  cgtest:  1.000e+00  t[s]:     10.78
LCAOMinimize: Encountered beta<0, resetting CG.
LCAOMinimize: 	Step increased F by 8.171241e-14, reducing alpha to 3.157736e-08.
LCAOMinimize: 	Step increased F by 9.237056e-14, reducing alpha to 3.157736e-09.
LCAOMinimize: 	Step increased F by 9.237056e-14, reducing alpha to 3.157736e-10.
LCAOMinimize: 	Step failed to reduce F after 3 attempts. Quitting step.
LCAOMinimize: 	Undoing step.
LCAOMinimize: 	Step failed along negative gradient direction.
LCAOMinimize: Probably at roundoff error limit. (Stopping)


---- Citations for features of the code used in this run ----

   Software package:
      R. Sundararaman, K. Letchworth-Weaver, K.A. Schwarz, D. Gunceler, Y. Ozhabes and T.A. Arias, 'JDFTx: software for joint density-functional theory', SoftwareX 6, 278 (2017)

   gga-PBE exchange-correlation functional:
      J.P. Perdew, K. Burke and M. Ernzerhof, Phys. Rev. Lett. 77, 3865 (1996)

   Pseudopotentials:
      M Schlipf and F Gygi, Comput. Phys. Commun. 196, 36 (2015)

   Truncated Coulomb potentials:
      R. Sundararaman and T.A. Arias, Phys. Rev. B 87, 165122 (2013)

This list may not be complete. Please suggest additional citations or
report any other bugs at https://github.com/shankar1729/jdftx/issues

Initialization completed successfully at t[s]:     14.12


-------- Electronic minimization -----------
Will mix electronic density at each iteration.
	FillingsUpdate:  mu: -0.100728855  nElectrons: 9.000000  magneticMoment: [ Abs: 0.16000  Tot: -0.16000 ]
	FillingsUpdate:  mu: -0.109836174  nElectrons: 9.000000  magneticMoment: [ Abs: 0.16000  Tot: -0.16000 ]
SCF: Cycle:  0   F: -28.403425443277445   dF: -4.772e-03   |Residual|: 8.188e-03   |deigs|: 1.748e-01  t[s]:     16.57
	FillingsUpdate:  mu: -0.109614157  nElectrons: 9.000000  magneticMoment: [ Abs: 0.16000  Tot: -0.16000 ]
SCF: Cycle:  1   F: -28.403531685707559   dF: -1.062e-04   |Residual|: 6.488e-03   |deigs|: 4.912e-03  t[s]:     18.38
	FillingsUpdate:  mu: -0.107752709  nElectrons: 9.000000  magneticMoment: [ Abs: 0.16501  Tot: -0.16000 ]
SCF: Cycle:  2   F: -28.403577655771130   dF: -4.597e-05   |Residual|: 2.772e-03   |deigs|: 4.154e-03  t[s]:     20.16
	FillingsUpdate:  mu: -0.106857985  nElectrons: 9.000000  magneticMoment: [ Abs: 0.16001  Tot: -0.16000 ]
SCF: Cycle:  3   F: -28.403620284311621   dF: -4.263e-05   |Residual|: 1.930e-03   |deigs|: 4.373e-03  t[s]:     22.17
	FillingsUpdate:  mu: -0.105608130  nElectrons: 9.000000  magneticMoment: [ Abs: 0.16016  Tot: -0.16000 ]
SCF: Cycle:  4   F: -28.403641348442189   dF: -2.106e-05   |Residual|: 1.604e-03   |deigs|: 4.254e-03  t[s]:     24.08
	FillingsUpdate:  mu: -0.103616589  nElectrons: 9.000000  magneticMoment: [ Abs: 0.16298  Tot: -0.16000 ]
SCF: Cycle:  5   F: -28.403652317945689   dF: -1.097e-05   |Residual|: 1.204e-03   |deigs|: 3.300e-03  t[s]:     25.98
	FillingsUpdate:  mu: -0.102011068  nElectrons: 9.000000  magneticMoment: [ Abs: 0.16436  Tot: -0.16000 ]
SCF: Cycle:  6   F: -28.403661241031458   dF: -8.923e-06   |Residual|: 9.034e-04   |deigs|: 2.584e-03  t[s]:     27.91
	FillingsUpdate:  mu: -0.101296575  nElectrons: 9.000000  magneticMoment: [ Abs: 0.16248  Tot: -0.16000 ]
SCF: Cycle:  7   F: -28.403680715782809   dF: -1.947e-05   |Residual|: 7.697e-04   |deigs|: 1.361e-03  t[s]:     29.88
	FillingsUpdate:  mu: -0.100760851  nElectrons: 9.000000  magneticMoment: [ Abs: 0.16114  Tot: -0.16000 ]
SCF: Cycle:  8   F: -28.403692619983893   dF: -1.190e-05   |Residual|: 6.069e-04   |deigs|: 5.677e-04  t[s]:     31.85
	FillingsUpdate:  mu: -0.099506762  nElectrons: 9.000000  magneticMoment: [ Abs: 0.16208  Tot: -0.16000 ]
SCF: Cycle:  9   F: -28.403691558849680   dF: +1.061e-06   |Residual|: 5.014e-04   |deigs|: 1.290e-03  t[s]:     33.87
	FillingsUpdate:  mu: -0.098463276  nElectrons: 9.000000  magneticMoment: [ Abs: 0.16239  Tot: -0.16000 ]
SCF: Cycle: 10   F: -28.403689219581576   dF: +2.339e-06   |Residual|: 4.878e-04   |deigs|: 1.089e-03  t[s]:     35.89
	FillingsUpdate:  mu: -0.097224825  nElectrons: 9.000000  magneticMoment: [ Abs: 0.16135  Tot: -0.16000 ]
SCF: Cycle: 11   F: -28.403696890968043   dF: -7.671e-06   |Residual|: 4.422e-04   |deigs|: 1.248e-03  t[s]:     37.89
	FillingsUpdate:  mu: -0.096301079  nElectrons: 9.000000  magneticMoment: [ Abs: 0.16195  Tot: -0.16000 ]
SCF: Cycle: 12   F: -28.403705219137890   dF: -8.328e-06   |Residual|: 3.896e-04   |deigs|: 8.734e-04  t[s]:     39.87
	FillingsUpdate:  mu: -0.095206697  nElectrons: 9.000000  magneticMoment: [ Abs: 0.16214  Tot: -0.16000 ]
SCF: Cycle: 13   F: -28.403709409241525   dF: -4.190e-06   |Residual|: 3.704e-04   |deigs|: 1.160e-03  t[s]:     41.83
	FillingsUpdate:  mu: -0.094231606  nElectrons: 9.000000  magneticMoment: [ Abs: 0.16075  Tot: -0.16000 ]
SCF: Cycle: 14   F: -28.403712491416361   dF: -3.082e-06   |Residual|: 3.151e-04   |deigs|: 1.079e-03  t[s]:     43.85
	FillingsUpdate:  mu: -0.093669075  nElectrons: 9.000000  magneticMoment: [ Abs: 0.16020  Tot: -0.16000 ]
SCF: Cycle: 15   F: -28.403714370973216   dF: -1.880e-06   |Residual|: 2.468e-04   |deigs|: 6.517e-04  t[s]:     45.87
	FillingsUpdate:  mu: -0.093296336  nElectrons: 9.000000  magneticMoment: [ Abs: 0.16060  Tot: -0.16000 ]
SCF: Cycle: 16   F: -28.403715658823934   dF: -1.288e-06   |Residual|: 1.219e-04   |deigs|: 4.116e-04  t[s]:     47.90
	FillingsUpdate:  mu: -0.093083396  nElectrons: 9.000000  magneticMoment: [ Abs: 0.16022  Tot: -0.16000 ]
SCF: Cycle: 17   F: -28.403715994998333   dF: -3.362e-07   |Residual|: 8.102e-05   |deigs|: 2.925e-04  t[s]:     49.89
	FillingsUpdate:  mu: -0.093099332  nElectrons: 9.000000  magneticMoment: [ Abs: 0.16005  Tot: -0.16000 ]
SCF: Cycle: 18   F: -28.403716145364172   dF: -1.504e-07   |Residual|: 5.129e-05   |deigs|: 3.329e-04  t[s]:     51.88
	FillingsUpdate:  mu: -0.093053680  nElectrons: 9.000000  magneticMoment: [ Abs: 0.16013  Tot: -0.16000 ]
SCF: Cycle: 19   F: -28.403716235837230   dF: -9.047e-08   |Residual|: 2.862e-05   |deigs|: 2.282e-04  t[s]:     53.91
	FillingsUpdate:  mu: -0.093029718  nElectrons: 9.000000  magneticMoment: [ Abs: 0.16006  Tot: -0.16000 ]
SCF: Cycle: 20   F: -28.403716279522580   dF: -4.369e-08   |Residual|: 1.243e-05   |deigs|: 1.294e-04  t[s]:     55.92
	FillingsUpdate:  mu: -0.093035256  nElectrons: 9.000000  magneticMoment: [ Abs: 0.16003  Tot: -0.16000 ]
SCF: Cycle: 21   F: -28.403716305088270   dF: -2.557e-08   |Residual|: 5.341e-06   |deigs|: 9.665e-05  t[s]:     57.89
	FillingsUpdate:  mu: -0.093036631  nElectrons: 9.000000  magneticMoment: [ Abs: 0.16003  Tot: -0.16000 ]
SCF: Cycle: 22   F: -28.403716329830786   dF: -2.474e-08   |Residual|: 3.026e-06   |deigs|: 6.657e-05  t[s]:     59.72
	FillingsUpdate:  mu: -0.093037466  nElectrons: 9.000000  magneticMoment: [ Abs: 0.16003  Tot: -0.16000 ]
SCF: Cycle: 23   F: -28.403716344751448   dF: -1.492e-08   |Residual|: 2.049e-06   |deigs|: 4.906e-05  t[s]:     61.46
	FillingsUpdate:  mu: -0.093035436  nElectrons: 9.000000  magneticMoment: [ Abs: 0.16003  Tot: -0.16000 ]
SCF: Cycle: 24   F: -28.403716352635403   dF: -7.884e-09   |Residual|: 1.350e-06   |deigs|: 3.605e-05  t[s]:     63.34
	FillingsUpdate:  mu: -0.093034775  nElectrons: 9.000000  magneticMoment: [ Abs: 0.16003  Tot: -0.16000 ]
SCF: Cycle: 25   F: -28.403716357505171   dF: -4.870e-09   |Residual|: 1.076e-06   |deigs|: 3.004e-05  t[s]:     65.22
SCF: Converged (|Delta E|<1.000000e-08 for 2 iters).


# Ionic positions in lattice coordinates:
ion K   0.000000000000000   0.000000000000000   0.000000000000000 0

# Forces in Lattice coordinates:
force K   0.000000000000000  -0.000000000000000   0.000000000000000 0

# Energy components:
   Eewald =      -18.0480261003326561
       EH =        4.8676477339457431
     Eloc =      -18.0600639057742036
      Enl =       -2.7736920211679283
   Epulay =        0.0000000041876954
      Exc =       -4.2624337574973268
       KE =        9.8728521232108264
-------------------------------------
     Etot =      -28.4037159234278533
       TS =        0.0000004340773189
-------------------------------------
        F =      -28.4037163575051714

IonicMinimize: Iter:   0  F: -28.403716357505171  |grad|_K:  0.000e+00  t[s]:     65.34
IonicMinimize: Converged (|grad|_K<1.000000e-04).

#--- Lowdin population analysis ---
# oxidation-state K +0.039
# magnetic-moments K -0.142

End date and time: Sat Feb  5 23:38:27 2022  (Duration: 0-0:01:05.36)
Done!
scale=3
magnetization=-0.16
--------------------------------------------------------------------------
The library attempted to open the following supporting CUDA libraries,
but each of them failed.  CUDA-aware support is disabled.
libcuda.so.1: cannot open shared object file: No such file or directory
libcuda.dylib: cannot open shared object file: No such file or directory
/usr/lib64/libcuda.so.1: cannot open shared object file: No such file or directory
/usr/lib64/libcuda.dylib: cannot open shared object file: No such file or directory
If you are not interested in CUDA-aware support, then run with
--mca opal_warn_on_missing_libcuda 0 to suppress this message.  If you are interested
in CUDA-aware support, then try setting LD_LIBRARY_PATH to the location
of libcuda.so.1 to get passed this issue.
--------------------------------------------------------------------------
--------------------------------------------------------------------------
No OpenFabrics connection schemes reported that they were able to be
used on a specific port.  As such, the openib BTL (OpenFabrics
support) will be disabled for this port.

  Local host:           d-3-7-3
  Local device:         mlx5_1
  Local port:           1
  CPCs attempted:       rdmacm, udcm
--------------------------------------------------------------------------

*************** JDFTx 1.6.0 (git hash 42ebbcc2) ***************

Start date and time: Sat Feb  5 23:38:28 2022
Executable jdftx with command-line: -i Alkali.in
Running on hosts (process indices):  d-3-7-3 (0-18)
Divided in process groups (process indices):  0 (0)  1 (1)  2 (2)  3 (3)  4 (4)  5 (5)  6 (6)  7 (7)  8 (8)  9 (9)  10 (10)  11 (11)  12 (12)  13 (13)  14 (14)  15 (15)  16 (16)  17 (17)  18 (18)
Resource initialization completed at t[s]:      0.00
Run totals: 19 processes, 48 threads, 0 GPUs


Input parsed successfully to the following command list (including defaults):

basis kpoint-dependent
coords-type Lattice
core-overlap-check vector
coulomb-interaction Slab 001
davidson-band-ratio 1.1
dump End None
dump-name $INPUT.$VAR
elec-cutoff 20
elec-eigen-algo Davidson
elec-ex-corr gga-PBE
elec-initial-magnetization -0.160000 yes
elec-smearing Fermi 1e-05
electronic-minimize  \
	dirUpdateScheme      FletcherReeves \
	linminMethod         DirUpdateRecommended \
	nIterations          100 \
	history              15 \
	knormThreshold       0 \
	energyDiffThreshold  1e-08 \
	nEnergyDiff          2 \
	alphaTstart          1 \
	alphaTmin            1e-10 \
	updateTestStepSize   yes \
	alphaTreduceFactor   0.1 \
	alphaTincreaseFactor 3 \
	nAlphaAdjustMax      3 \
	wolfeEnergy          0.0001 \
	wolfeGradient        0.9 \
	fdTest               no
electronic-scf  \
	nIterations	10000 \
	energyDiffThreshold	1e-08 \
	residualThreshold	1e-07 \
	mixFraction	0.5 \
	qMetric	0.8 \
	history	10 \
	nEigSteps	2 \
	eigDiffThreshold	1e-08 \
	mixedVariable	Density \
	qKerker	0.8 \
	qKappa	-1 \
	verbose	no \
	mixFractionMag	1.5
exchange-regularization WignerSeitzTruncated
fluid None
fluid-ex-corr (null) lda-PZ
fluid-gummel-loop 10 1.000000e-05
fluid-minimize  \
	dirUpdateScheme      PolakRibiere \
	linminMethod         DirUpdateRecommended \
	nIterations          100 \
	history              15 \
	knormThreshold       0 \
	energyDiffThreshold  0 \
	nEnergyDiff          2 \
	alphaTstart          1 \
	alphaTmin            1e-10 \
	updateTestStepSize   yes \
	alphaTreduceFactor   0.1 \
	alphaTincreaseFactor 3 \
	nAlphaAdjustMax      3 \
	wolfeEnergy          0.0001 \
	wolfeGradient        0.9 \
	fdTest               no
fluid-solvent H2O 55.338 ScalarEOS \
	epsBulk 78.4 \
	pMol 0.92466 \
	epsInf 1.77 \
	Pvap 1.06736e-10 \
	sigmaBulk 4.62e-05 \
	Rvdw 2.61727 \
	Res 1.42 \
	tauNuc 343133 \
	poleEl 15 7 1
forces-output-coords Positions
ion K   0.000000000000000   0.000000000000000   0.000000000000000 0
ion-species SG15/$ID_ONCV_PBE.upf
ion-width 0
ionic-minimize  \
	dirUpdateScheme      L-BFGS \
	linminMethod         DirUpdateRecommended \
	nIterations          0 \
	history              15 \
	knormThreshold       0.0001 \
	energyDiffThreshold  1e-06 \
	nEnergyDiff          2 \
	alphaTstart          1 \
	alphaTmin            1e-10 \
	updateTestStepSize   yes \
	alphaTreduceFactor   0.1 \
	alphaTincreaseFactor 3 \
	nAlphaAdjustMax      3 \
	wolfeEnergy          0.0001 \
	wolfeGradient        0.9 \
	fdTest               no
kpoint   0.000000000000   0.000000000000   0.000000000000  1.00000000000000
kpoint-folding 12 12 1 
latt-move-scale 1 1 1
latt-scale 3 3 1 
lattice  \
	   4.727486978767153   -2.363743489383575    0.000000000000000  \
	  -0.000000000000000    4.094123819672498    0.000000000000000  \
	   0.000000000000000    0.000000000000000   40.000000000000000 
lattice-minimize  \
	dirUpdateScheme      L-BFGS \
	linminMethod         DirUpdateRecommended \
	nIterations          0 \
	history              15 \
	knormThreshold       0 \
	energyDiffThreshold  1e-06 \
	nEnergyDiff          2 \
	alphaTstart          1 \
	alphaTmin            1e-10 \
	updateTestStepSize   yes \
	alphaTreduceFactor   0.1 \
	alphaTincreaseFactor 3 \
	nAlphaAdjustMax      3 \
	wolfeEnergy          0.0001 \
	wolfeGradient        0.9 \
	fdTest               no
lcao-params -1 1e-06 1e-05
pcm-variant GLSSA13
spintype z-spin
subspace-rotation-factor 1 yes
symmetries automatic
symmetry-threshold 0.0001



---------- Setting up symmetries ----------

Found 24 point-group symmetries of the bravais lattice
Found 24 space-group symmetries with basis
Applied RMS atom displacement 0 bohrs to make symmetries exact.

---------- Initializing the Grid ----------
R = 
[      14.1825     -7.09123            0  ]
[            0      12.2824            0  ]
[            0            0           40  ]
unit cell volume = 6967.77
G =
[   0.443025   0.255781         -0  ]
[          0   0.511561         -0  ]
[         -0         -0    0.15708  ]
Minimum fftbox size, Smin = [  60  60  164  ]
Chosen fftbox size, S = [  60  60  168  ]

---------- Exchange Correlation functional ----------
Initalized PBE GGA exchange.
Initalized PBE GGA correlation.

---------- Setting up pseudopotentials ----------
Width of ionic core gaussian charges (only for fluid interactions / plotting) set to 0

Reading pseudopotential file '/home/gridsan/aligho/DFT/build-Nov24/pseudopotentials/SG15/K_ONCV_PBE.upf':
  'K' pseudopotential, 'PBE' functional
  Generated using ONCVPSP code by D. R. Hamann
  Author: Martin Schlipf and Francois Gygi  Date: 150915.
  9 valence electrons, 3 orbitals, 6 projectors, 2222 radial grid points, with lMax = 2
  Transforming local potential to a uniform radial grid of dG=0.02 with 1489 points.
  Transforming nonlocal projectors to a uniform radial grid of dG=0.02 with 432 points.
    3S    l: 0   occupation:  2.0   eigenvalue: -1.298836
    3P    l: 1   occupation:  6.0   eigenvalue: -0.691386
    4S    l: 0   occupation:  1.0   eigenvalue: -0.085223
  Transforming atomic orbitals to a uniform radial grid of dG=0.02 with 432 points.
  Core radius for overlap checks: 2.06 bohrs.
  Reading pulay file /home/gridsan/aligho/DFT/build-Nov24/pseudopotentials/SG15/K_ONCV_PBE.pulay ... using dE_dnG = -1.597219e-05 computed for Ecut = 20.

Initialized 1 species with 1 total atoms.

Folded 1 k-points by 12x12x1 to 144 k-points.

---------- Setting up k-points, bands, fillings ----------
Reduced to 19 k-points under symmetry. 
Computing the number of bands and number of electrons
Calculating initial fillings.
nElectrons:   9.000000   nBands: 6   nStates: 38

----- Setting up reduced wavefunction bases (one per k-point) -----
average nbasis = 29766.104 , ideal nbasis = 29766.845

---------- Setting up coulomb interaction ----------
Initialized slab truncation along lattice direction 001

---------- Setting up 2D ewald sum ----------
Optimum gaussian width for ewald sums = 7.873530 bohr.
Real space sums over 289 unit cells with max indices [  8  8  0  ]
Reciprocal space sums over 81 terms with max indices [  4  4  0  ]

---------- Allocating electronic variables ----------
Initializing wave functions:  linear combination of atomic orbitals
Note: number of bands (6) exceeds available atomic orbitals (5)
K pseudo-atom occupations:   s ( 2 1 )  p ( 6 )
[d-3-7-3:28940] 18 more processes have sent help message help-mpi-common-cuda.txt / dlopen failed
[d-3-7-3:28940] Set MCA parameter "orte_base_help_aggregate" to 0 to see all help / error messages
[d-3-7-3:28940] 18 more processes have sent help message help-mpi-btl-openib-cpc-base.txt / no cpcs for port
	FillingsUpdate:  mu: -0.087579717  nElectrons: 9.000000  magneticMoment: [ Abs: 0.16000  Tot: -0.16000 ]
LCAOMinimize: Iter:   0  F: -28.3829529284937188  |grad|_K:  1.876e-05  alpha:  1.000e+00
	FillingsUpdate:  mu: -0.087576116  nElectrons: 9.000000  magneticMoment: [ Abs: 0.16000  Tot: -0.16000 ]
LCAOMinimize: Iter:   1  F: -28.3829531663658230  |grad|_K:  1.400e-07  alpha:  9.882e-01  linmin: -1.486e-02  cgtest:  4.663e-01  t[s]:      8.72
LCAOMinimize: Encountered beta<0, resetting CG.
	FillingsUpdate:  mu: -0.087576116  nElectrons: 9.000000  magneticMoment: [ Abs: 0.16000  Tot: -0.16000 ]
LCAOMinimize: Iter:   2  F: -28.3829531663793624  |grad|_K:  2.382e-09  alpha:  1.017e+00  linmin:  4.607e-02  cgtest: -9.922e-01  t[s]:     11.08
LCAOMinimize: Converged (|Delta F|<1.000000e-06 for 2 iters).


---- Citations for features of the code used in this run ----

   Software package:
      R. Sundararaman, K. Letchworth-Weaver, K.A. Schwarz, D. Gunceler, Y. Ozhabes and T.A. Arias, 'JDFTx: software for joint density-functional theory', SoftwareX 6, 278 (2017)

   gga-PBE exchange-correlation functional:
      J.P. Perdew, K. Burke and M. Ernzerhof, Phys. Rev. Lett. 77, 3865 (1996)

   Pseudopotentials:
      M Schlipf and F Gygi, Comput. Phys. Commun. 196, 36 (2015)

   Truncated Coulomb potentials:
      R. Sundararaman and T.A. Arias, Phys. Rev. B 87, 165122 (2013)

This list may not be complete. Please suggest additional citations or
report any other bugs at https://github.com/shankar1729/jdftx/issues

Initialization completed successfully at t[s]:     11.23


-------- Electronic minimization -----------
Will mix electronic density at each iteration.
	FillingsUpdate:  mu: -0.087576116  nElectrons: 9.000000  magneticMoment: [ Abs: 0.16000  Tot: -0.16000 ]
	FillingsUpdate:  mu: -0.089413969  nElectrons: 9.000000  magneticMoment: [ Abs: 0.16000  Tot: -0.16000 ]
SCF: Cycle:  0   F: -28.384436538448984   dF: -1.483e-03   |Residual|: 3.349e-03   |deigs|: 1.746e-01  t[s]:     15.88
	FillingsUpdate:  mu: -0.089635464  nElectrons: 9.000000  magneticMoment: [ Abs: 0.16000  Tot: -0.16000 ]
SCF: Cycle:  1   F: -28.384459721329495   dF: -2.318e-05   |Residual|: 2.865e-03   |deigs|: 4.776e-03  t[s]:     19.61
	FillingsUpdate:  mu: -0.090245902  nElectrons: 9.000000  magneticMoment: [ Abs: 0.16173  Tot: -0.16000 ]
SCF: Cycle:  2   F: -28.384489953273221   dF: -3.023e-05   |Residual|: 1.459e-03   |deigs|: 2.281e-03  t[s]:     23.38
	FillingsUpdate:  mu: -0.090475849  nElectrons: 9.000000  magneticMoment: [ Abs: 0.16051  Tot: -0.16000 ]
SCF: Cycle:  3   F: -28.384500330964936   dF: -1.038e-05   |Residual|: 8.442e-04   |deigs|: 3.456e-03  t[s]:     27.17
	FillingsUpdate:  mu: -0.090429403  nElectrons: 9.000000  magneticMoment: [ Abs: 0.16017  Tot: -0.16000 ]
SCF: Cycle:  4   F: -28.384505985168961   dF: -5.654e-06   |Residual|: 5.130e-04   |deigs|: 1.342e-03  t[s]:     31.00
	FillingsUpdate:  mu: -0.090388439  nElectrons: 9.000000  magneticMoment: [ Abs: 0.16026  Tot: -0.16000 ]
SCF: Cycle:  5   F: -28.384509223153007   dF: -3.238e-06   |Residual|: 3.718e-04   |deigs|: 1.940e-03  t[s]:     34.91
	FillingsUpdate:  mu: -0.090247095  nElectrons: 9.000000  magneticMoment: [ Abs: 0.16020  Tot: -0.16000 ]
SCF: Cycle:  6   F: -28.384510814714872   dF: -1.592e-06   |Residual|: 2.789e-04   |deigs|: 1.529e-03  t[s]:     38.93
	FillingsUpdate:  mu: -0.090063552  nElectrons: 9.000000  magneticMoment: [ Abs: 0.16039  Tot: -0.16000 ]
SCF: Cycle:  7   F: -28.384511545338782   dF: -7.306e-07   |Residual|: 2.196e-04   |deigs|: 7.658e-04  t[s]:     42.93
	FillingsUpdate:  mu: -0.089883555  nElectrons: 9.000000  magneticMoment: [ Abs: 0.16074  Tot: -0.16000 ]
SCF: Cycle:  8   F: -28.384511720731471   dF: -1.754e-07   |Residual|: 1.764e-04   |deigs|: 6.533e-04  t[s]:     47.03
	FillingsUpdate:  mu: -0.089708207  nElectrons: 9.000000  magneticMoment: [ Abs: 0.16074  Tot: -0.16000 ]
SCF: Cycle:  9   F: -28.384511728281847   dF: -7.550e-09   |Residual|: 1.682e-04   |deigs|: 1.901e-04  t[s]:     51.20
	FillingsUpdate:  mu: -0.089447409  nElectrons: 9.000000  magneticMoment: [ Abs: 0.16070  Tot: -0.16000 ]
SCF: Cycle: 10   F: -28.384511923421190   dF: -1.951e-07   |Residual|: 1.500e-04   |deigs|: 3.558e-04  t[s]:     55.46
	FillingsUpdate:  mu: -0.089328350  nElectrons: 9.000000  magneticMoment: [ Abs: 0.16072  Tot: -0.16000 ]
SCF: Cycle: 11   F: -28.384512097571371   dF: -1.742e-07   |Residual|: 1.192e-04   |deigs|: 2.485e-04  t[s]:     59.75
	FillingsUpdate:  mu: -0.089195918  nElectrons: 9.000000  magneticMoment: [ Abs: 0.16063  Tot: -0.16000 ]
SCF: Cycle: 12   F: -28.384512308640115   dF: -2.111e-07   |Residual|: 9.853e-05   |deigs|: 2.468e-04  t[s]:     64.02
	FillingsUpdate:  mu: -0.088983298  nElectrons: 9.000000  magneticMoment: [ Abs: 0.16049  Tot: -0.16000 ]
SCF: Cycle: 13   F: -28.384512219263232   dF: +8.938e-08   |Residual|: 9.963e-05   |deigs|: 2.279e-04  t[s]:     68.30
	FillingsUpdate:  mu: -0.088798478  nElectrons: 9.000000  magneticMoment: [ Abs: 0.16024  Tot: -0.16000 ]
SCF: Cycle: 14   F: -28.384512064968934   dF: +1.543e-07   |Residual|: 9.590e-05   |deigs|: 2.115e-04  t[s]:     72.47
	FillingsUpdate:  mu: -0.088641196  nElectrons: 9.000000  magneticMoment: [ Abs: 0.16083  Tot: -0.16000 ]
SCF: Cycle: 15   F: -28.384512552783352   dF: -4.878e-07   |Residual|: 8.355e-05   |deigs|: 1.768e-04  t[s]:     76.67
	FillingsUpdate:  mu: -0.088583588  nElectrons: 9.000000  magneticMoment: [ Abs: 0.16065  Tot: -0.16000 ]
SCF: Cycle: 16   F: -28.384512977110926   dF: -4.243e-07   |Residual|: 6.616e-05   |deigs|: 5.317e-05  t[s]:     80.85
	FillingsUpdate:  mu: -0.088485270  nElectrons: 9.000000  magneticMoment: [ Abs: 0.16024  Tot: -0.16000 ]
SCF: Cycle: 17   F: -28.384513118055558   dF: -1.409e-07   |Residual|: 4.528e-05   |deigs|: 9.286e-05  t[s]:     85.09
	FillingsUpdate:  mu: -0.088443835  nElectrons: 9.000000  magneticMoment: [ Abs: 0.16029  Tot: -0.16000 ]
SCF: Cycle: 18   F: -28.384513215406312   dF: -9.735e-08   |Residual|: 2.753e-05   |deigs|: 9.878e-05  t[s]:     89.33
	FillingsUpdate:  mu: -0.088440078  nElectrons: 9.000000  magneticMoment: [ Abs: 0.16026  Tot: -0.16000 ]
SCF: Cycle: 19   F: -28.384513245046954   dF: -2.964e-08   |Residual|: 1.633e-05   |deigs|: 1.339e-04  t[s]:     93.43
	FillingsUpdate:  mu: -0.088438808  nElectrons: 9.000000  magneticMoment: [ Abs: 0.16026  Tot: -0.16000 ]
SCF: Cycle: 20   F: -28.384513265797963   dF: -2.075e-08   |Residual|: 9.102e-06   |deigs|: 1.302e-04  t[s]:     97.62
	FillingsUpdate:  mu: -0.088437903  nElectrons: 9.000000  magneticMoment: [ Abs: 0.16025  Tot: -0.16000 ]
SCF: Cycle: 21   F: -28.384513273502467   dF: -7.705e-09   |Residual|: 6.932e-06   |deigs|: 1.145e-04  t[s]:    101.49
	FillingsUpdate:  mu: -0.088439040  nElectrons: 9.000000  magneticMoment: [ Abs: 0.16026  Tot: -0.16000 ]
SCF: Cycle: 22   F: -28.384513279611028   dF: -6.109e-09   |Residual|: 3.255e-06   |deigs|: 9.647e-05  t[s]:    105.59
SCF: Converged (|Delta E|<1.000000e-08 for 2 iters).


# Ionic positions in lattice coordinates:
ion K   0.000000000000000   0.000000000000000   0.000000000000000 0

# Forces in Lattice coordinates:
force K   0.000000000000000   0.000000000000000   0.000000000000000 0

# Energy components:
   Eewald =      -12.0320174002217755
       EH =       10.7068596037927648
     Eloc =      -29.9010957262322385
      Enl =       -2.7720399441522838
   Epulay =       -0.0000000016982517
      Exc =       -4.2364124414312041
       KE =        9.8501930644092859
-------------------------------------
     Etot =      -28.3845128455337097
       TS =        0.0000004340773189
-------------------------------------
        F =      -28.3845132796110278

IonicMinimize: Iter:   0  F: -28.384513279611028  |grad|_K:  0.000e+00  t[s]:    105.84
IonicMinimize: Converged (|grad|_K<1.000000e-04).

#--- Lowdin population analysis ---
# oxidation-state K +0.026
# magnetic-moments K -0.152

End date and time: Sat Feb  5 23:40:14 2022  (Duration: 0-0:01:45.88)
Done!
scale=4
magnetization=-0.16
--------------------------------------------------------------------------
The library attempted to open the following supporting CUDA libraries,
but each of them failed.  CUDA-aware support is disabled.
libcuda.so.1: cannot open shared object file: No such file or directory
libcuda.dylib: cannot open shared object file: No such file or directory
/usr/lib64/libcuda.so.1: cannot open shared object file: No such file or directory
/usr/lib64/libcuda.dylib: cannot open shared object file: No such file or directory
If you are not interested in CUDA-aware support, then run with
--mca opal_warn_on_missing_libcuda 0 to suppress this message.  If you are interested
in CUDA-aware support, then try setting LD_LIBRARY_PATH to the location
of libcuda.so.1 to get passed this issue.
--------------------------------------------------------------------------
--------------------------------------------------------------------------
No OpenFabrics connection schemes reported that they were able to be
used on a specific port.  As such, the openib BTL (OpenFabrics
support) will be disabled for this port.

  Local host:           d-3-7-3
  Local device:         mlx5_1
  Local port:           1
  CPCs attempted:       rdmacm, udcm
--------------------------------------------------------------------------

*************** JDFTx 1.6.0 (git hash 42ebbcc2) ***************

Start date and time: Sat Feb  5 23:40:15 2022
Executable jdftx with command-line: -i Alkali.in
Running on hosts (process indices):  d-3-7-3 (0-18)
Divided in process groups (process indices):  0 (0)  1 (1)  2 (2)  3 (3)  4 (4)  5 (5)  6 (6)  7 (7)  8 (8)  9 (9)  10 (10)  11 (11)  12 (12)  13 (13)  14 (14)  15 (15)  16 (16)  17 (17)  18 (18)
Resource initialization completed at t[s]:      0.00
Run totals: 19 processes, 48 threads, 0 GPUs


Input parsed successfully to the following command list (including defaults):

basis kpoint-dependent
coords-type Lattice
core-overlap-check vector
coulomb-interaction Slab 001
davidson-band-ratio 1.1
dump End None
dump-name $INPUT.$VAR
elec-cutoff 20
elec-eigen-algo Davidson
elec-ex-corr gga-PBE
elec-initial-magnetization -0.160000 yes
elec-smearing Fermi 1e-05
electronic-minimize  \
	dirUpdateScheme      FletcherReeves \
	linminMethod         DirUpdateRecommended \
	nIterations          100 \
	history              15 \
	knormThreshold       0 \
	energyDiffThreshold  1e-08 \
	nEnergyDiff          2 \
	alphaTstart          1 \
	alphaTmin            1e-10 \
	updateTestStepSize   yes \
	alphaTreduceFactor   0.1 \
	alphaTincreaseFactor 3 \
	nAlphaAdjustMax      3 \
	wolfeEnergy          0.0001 \
	wolfeGradient        0.9 \
	fdTest               no
electronic-scf  \
	nIterations	10000 \
	energyDiffThreshold	1e-08 \
	residualThreshold	1e-07 \
	mixFraction	0.5 \
	qMetric	0.8 \
	history	10 \
	nEigSteps	2 \
	eigDiffThreshold	1e-08 \
	mixedVariable	Density \
	qKerker	0.8 \
	qKappa	-1 \
	verbose	no \
	mixFractionMag	1.5
exchange-regularization WignerSeitzTruncated
fluid None
fluid-ex-corr (null) lda-PZ
fluid-gummel-loop 10 1.000000e-05
fluid-minimize  \
	dirUpdateScheme      PolakRibiere \
	linminMethod         DirUpdateRecommended \
	nIterations          100 \
	history              15 \
	knormThreshold       0 \
	energyDiffThreshold  0 \
	nEnergyDiff          2 \
	alphaTstart          1 \
	alphaTmin            1e-10 \
	updateTestStepSize   yes \
	alphaTreduceFactor   0.1 \
	alphaTincreaseFactor 3 \
	nAlphaAdjustMax      3 \
	wolfeEnergy          0.0001 \
	wolfeGradient        0.9 \
	fdTest               no
fluid-solvent H2O 55.338 ScalarEOS \
	epsBulk 78.4 \
	pMol 0.92466 \
	epsInf 1.77 \
	Pvap 1.06736e-10 \
	sigmaBulk 4.62e-05 \
	Rvdw 2.61727 \
	Res 1.42 \
	tauNuc 343133 \
	poleEl 15 7 1
forces-output-coords Positions
ion K   0.000000000000000   0.000000000000000   0.000000000000000 0
ion-species SG15/$ID_ONCV_PBE.upf
ion-width 0
ionic-minimize  \
	dirUpdateScheme      L-BFGS \
	linminMethod         DirUpdateRecommended \
	nIterations          0 \
	history              15 \
	knormThreshold       0.0001 \
	energyDiffThreshold  1e-06 \
	nEnergyDiff          2 \
	alphaTstart          1 \
	alphaTmin            1e-10 \
	updateTestStepSize   yes \
	alphaTreduceFactor   0.1 \
	alphaTincreaseFactor 3 \
	nAlphaAdjustMax      3 \
	wolfeEnergy          0.0001 \
	wolfeGradient        0.9 \
	fdTest               no
kpoint   0.000000000000   0.000000000000   0.000000000000  1.00000000000000
kpoint-folding 12 12 1 
latt-move-scale 1 1 1
latt-scale 4 4 1 
lattice  \
	   4.727486978767153   -2.363743489383575    0.000000000000000  \
	  -0.000000000000000    4.094123819672498    0.000000000000000  \
	   0.000000000000000    0.000000000000000   40.000000000000000 
lattice-minimize  \
	dirUpdateScheme      L-BFGS \
	linminMethod         DirUpdateRecommended \
	nIterations          0 \
	history              15 \
	knormThreshold       0 \
	energyDiffThreshold  1e-06 \
	nEnergyDiff          2 \
	alphaTstart          1 \
	alphaTmin            1e-10 \
	updateTestStepSize   yes \
	alphaTreduceFactor   0.1 \
	alphaTincreaseFactor 3 \
	nAlphaAdjustMax      3 \
	wolfeEnergy          0.0001 \
	wolfeGradient        0.9 \
	fdTest               no
lcao-params -1 1e-06 1e-05
pcm-variant GLSSA13
spintype z-spin
subspace-rotation-factor 1 yes
symmetries automatic
symmetry-threshold 0.0001



---------- Setting up symmetries ----------

Found 24 point-group symmetries of the bravais lattice
Found 24 space-group symmetries with basis
Applied RMS atom displacement 0 bohrs to make symmetries exact.

---------- Initializing the Grid ----------
R = 
[      18.9099     -9.45497            0  ]
[            0      16.3765            0  ]
[            0            0           40  ]
unit cell volume = 12387.1
G =
[   0.332269   0.191835         -0  ]
[          0   0.383671         -0  ]
[         -0         -0    0.15708  ]
Minimum fftbox size, Smin = [  80  80  164  ]
Chosen fftbox size, S = [  80  80  168  ]

---------- Exchange Correlation functional ----------
Initalized PBE GGA exchange.
Initalized PBE GGA correlation.

---------- Setting up pseudopotentials ----------
Width of ionic core gaussian charges (only for fluid interactions / plotting) set to 0

Reading pseudopotential file '/home/gridsan/aligho/DFT/build-Nov24/pseudopotentials/SG15/K_ONCV_PBE.upf':
  'K' pseudopotential, 'PBE' functional
  Generated using ONCVPSP code by D. R. Hamann
  Author: Martin Schlipf and Francois Gygi  Date: 150915.
  9 valence electrons, 3 orbitals, 6 projectors, 2222 radial grid points, with lMax = 2
  Transforming local potential to a uniform radial grid of dG=0.02 with 1489 points.
  Transforming nonlocal projectors to a uniform radial grid of dG=0.02 with 432 points.
    3S    l: 0   occupation:  2.0   eigenvalue: -1.298836
    3P    l: 1   occupation:  6.0   eigenvalue: -0.691386
    4S    l: 0   occupation:  1.0   eigenvalue: -0.085223
  Transforming atomic orbitals to a uniform radial grid of dG=0.02 with 432 points.
  Core radius for overlap checks: 2.06 bohrs.
  Reading pulay file /home/gridsan/aligho/DFT/build-Nov24/pseudopotentials/SG15/K_ONCV_PBE.pulay ... using dE_dnG = -1.597219e-05 computed for Ecut = 20.

Initialized 1 species with 1 total atoms.

Folded 1 k-points by 12x12x1 to 144 k-points.

---------- Setting up k-points, bands, fillings ----------
Reduced to 19 k-points under symmetry. 
Computing the number of bands and number of electrons
Calculating initial fillings.
nElectrons:   9.000000   nBands: 6   nStates: 38

----- Setting up reduced wavefunction bases (one per k-point) -----
average nbasis = 52924.021 , ideal nbasis = 52918.836

---------- Setting up coulomb interaction ----------
Initialized slab truncation along lattice direction 001

---------- Setting up 2D ewald sum ----------
Optimum gaussian width for ewald sums = 10.498040 bohr.
Real space sums over 289 unit cells with max indices [  8  8  0  ]
Reciprocal space sums over 81 terms with max indices [  4  4  0  ]

---------- Allocating electronic variables ----------
Initializing wave functions:  linear combination of atomic orbitals
Note: number of bands (6) exceeds available atomic orbitals (5)
K pseudo-atom occupations:   s ( 2 1 )  p ( 6 )
[d-3-7-3:66853] 18 more processes have sent help message help-mpi-common-cuda.txt / dlopen failed
[d-3-7-3:66853] Set MCA parameter "orte_base_help_aggregate" to 0 to see all help / error messages
[d-3-7-3:66853] 18 more processes have sent help message help-mpi-btl-openib-cpc-base.txt / no cpcs for port
	FillingsUpdate:  mu: -0.085916628  nElectrons: 9.000000  magneticMoment: [ Abs: 0.16000  Tot: -0.16000 ]
LCAOMinimize: Iter:   0  F: -28.3774516843066529  |grad|_K:  3.866e-06  alpha:  1.000e+00
	FillingsUpdate:  mu: -0.085915821  nElectrons: 9.000000  magneticMoment: [ Abs: 0.16000  Tot: -0.16000 ]
LCAOMinimize: Iter:   1  F: -28.3774516944148942  |grad|_K:  1.602e-08  alpha:  9.886e-01  linmin: -6.602e-03  cgtest:  2.891e-01  t[s]:     14.98
LCAOMinimize: Encountered beta<0, resetting CG.
	FillingsUpdate:  mu: -0.085915820  nElectrons: 9.000000  magneticMoment: [ Abs: 0.16000  Tot: -0.16000 ]
LCAOMinimize: Iter:   2  F: -28.3774516944151856  |grad|_K:  5.460e-10  alpha:  9.662e-01  linmin: -1.421e-02  cgtest:  9.997e-01  t[s]:     19.01
LCAOMinimize: Encountered beta<0, resetting CG.
LCAOMinimize: Converged (|Delta F|<1.000000e-06 for 2 iters).


---- Citations for features of the code used in this run ----

   Software package:
      R. Sundararaman, K. Letchworth-Weaver, K.A. Schwarz, D. Gunceler, Y. Ozhabes and T.A. Arias, 'JDFTx: software for joint density-functional theory', SoftwareX 6, 278 (2017)

   gga-PBE exchange-correlation functional:
      J.P. Perdew, K. Burke and M. Ernzerhof, Phys. Rev. Lett. 77, 3865 (1996)

   Pseudopotentials:
      M Schlipf and F Gygi, Comput. Phys. Commun. 196, 36 (2015)

   Truncated Coulomb potentials:
      R. Sundararaman and T.A. Arias, Phys. Rev. B 87, 165122 (2013)

This list may not be complete. Please suggest additional citations or
report any other bugs at https://github.com/shankar1729/jdftx/issues

Initialization completed successfully at t[s]:     19.26


-------- Electronic minimization -----------
Will mix electronic density at each iteration.
	FillingsUpdate:  mu: -0.085915820  nElectrons: 9.000000  magneticMoment: [ Abs: 0.16000  Tot: -0.16000 ]
	FillingsUpdate:  mu: -0.085990351  nElectrons: 9.000000  magneticMoment: [ Abs: 0.16000  Tot: -0.16000 ]
SCF: Cycle:  0   F: -28.377533331679576   dF: -8.164e-05   |Residual|: 6.101e-04   |deigs|: 1.760e-01  t[s]:     27.40
	FillingsUpdate:  mu: -0.086026756  nElectrons: 9.000000  magneticMoment: [ Abs: 0.16022  Tot: -0.16000 ]
SCF: Cycle:  1   F: -28.377534336042363   dF: -1.004e-06   |Residual|: 4.012e-04   |deigs|: 4.571e-03  t[s]:     33.78
	FillingsUpdate:  mu: -0.086074107  nElectrons: 9.000000  magneticMoment: [ Abs: 0.16030  Tot: -0.16000 ]
SCF: Cycle:  2   F: -28.377534643687298   dF: -3.076e-07   |Residual|: 3.158e-04   |deigs|: 1.754e-03  t[s]:     40.27
	FillingsUpdate:  mu: -0.086160012  nElectrons: 9.000000  magneticMoment: [ Abs: 0.16043  Tot: -0.16000 ]
SCF: Cycle:  3   F: -28.377534943482672   dF: -2.998e-07   |Residual|: 2.146e-04   |deigs|: 6.371e-04  t[s]:     46.84
	FillingsUpdate:  mu: -0.086251324  nElectrons: 9.000000  magneticMoment: [ Abs: 0.16043  Tot: -0.16000 ]
SCF: Cycle:  4   F: -28.377535279119510   dF: -3.356e-07   |Residual|: 1.323e-04   |deigs|: 6.864e-04  t[s]:     53.58
	FillingsUpdate:  mu: -0.086290729  nElectrons: 9.000000  magneticMoment: [ Abs: 0.16052  Tot: -0.16000 ]
SCF: Cycle:  5   F: -28.377535470575133   dF: -1.915e-07   |Residual|: 9.747e-05   |deigs|: 5.542e-04  t[s]:     60.39
	FillingsUpdate:  mu: -0.086293010  nElectrons: 9.000000  magneticMoment: [ Abs: 0.16045  Tot: -0.16000 ]
SCF: Cycle:  6   F: -28.377535619558625   dF: -1.490e-07   |Residual|: 5.928e-05   |deigs|: 4.099e-04  t[s]:     67.34
	FillingsUpdate:  mu: -0.086286461  nElectrons: 9.000000  magneticMoment: [ Abs: 0.16042  Tot: -0.16000 ]
SCF: Cycle:  7   F: -28.377535696640344   dF: -7.708e-08   |Residual|: 4.405e-05   |deigs|: 4.505e-04  t[s]:     74.32
	FillingsUpdate:  mu: -0.086271591  nElectrons: 9.000000  magneticMoment: [ Abs: 0.16040  Tot: -0.16000 ]
SCF: Cycle:  8   F: -28.377535735140452   dF: -3.850e-08   |Residual|: 2.952e-05   |deigs|: 2.848e-04  t[s]:     81.49
	FillingsUpdate:  mu: -0.086257490  nElectrons: 9.000000  magneticMoment: [ Abs: 0.16035  Tot: -0.16000 ]
SCF: Cycle:  9   F: -28.377535754952735   dF: -1.981e-08   |Residual|: 2.246e-05   |deigs|: 1.426e-04  t[s]:     88.82
	FillingsUpdate:  mu: -0.086248101  nElectrons: 9.000000  magneticMoment: [ Abs: 0.16036  Tot: -0.16000 ]
SCF: Cycle: 10   F: -28.377535753277865   dF: +1.675e-09   |Residual|: 1.965e-05   |deigs|: 5.709e-05  t[s]:     96.22
	FillingsUpdate:  mu: -0.086232821  nElectrons: 9.000000  magneticMoment: [ Abs: 0.16042  Tot: -0.16000 ]
SCF: Cycle: 11   F: -28.377535730359341   dF: +2.292e-08   |Residual|: 1.764e-05   |deigs|: 4.898e-05  t[s]:    103.74
	FillingsUpdate:  mu: -0.086218751  nElectrons: 9.000000  magneticMoment: [ Abs: 0.16041  Tot: -0.16000 ]
SCF: Cycle: 12   F: -28.377535728959991   dF: +1.399e-09   |Residual|: 1.606e-05   |deigs|: 7.452e-05  t[s]:    111.09
	FillingsUpdate:  mu: -0.086202933  nElectrons: 9.000000  magneticMoment: [ Abs: 0.16037  Tot: -0.16000 ]
SCF: Cycle: 13   F: -28.377535727796758   dF: +1.163e-09   |Residual|: 1.412e-05   |deigs|: 8.505e-05  t[s]:    118.50
	FillingsUpdate:  mu: -0.086192044  nElectrons: 9.000000  magneticMoment: [ Abs: 0.16037  Tot: -0.16000 ]
SCF: Cycle: 14   F: -28.377535721902611   dF: +5.894e-09   |Residual|: 1.313e-05   |deigs|: 8.469e-05  t[s]:    125.85
	FillingsUpdate:  mu: -0.086172680  nElectrons: 9.000000  magneticMoment: [ Abs: 0.16037  Tot: -0.16000 ]
SCF: Cycle: 15   F: -28.377535717515421   dF: +4.387e-09   |Residual|: 1.216e-05   |deigs|: 8.230e-05  t[s]:    133.18
	FillingsUpdate:  mu: -0.086155636  nElectrons: 9.000000  magneticMoment: [ Abs: 0.16036  Tot: -0.16000 ]
SCF: Cycle: 16   F: -28.377535724499356   dF: -6.984e-09   |Residual|: 1.123e-05   |deigs|: 8.804e-05  t[s]:    140.53
	FillingsUpdate:  mu: -0.086144632  nElectrons: 9.000000  magneticMoment: [ Abs: 0.16035  Tot: -0.16000 ]
SCF: Cycle: 17   F: -28.377535714197414   dF: +1.030e-08   |Residual|: 9.741e-06   |deigs|: 7.356e-05  t[s]:    147.90
	FillingsUpdate:  mu: -0.086134660  nElectrons: 9.000000  magneticMoment: [ Abs: 0.16033  Tot: -0.16000 ]
SCF: Cycle: 18   F: -28.377535782189938   dF: -6.799e-08   |Residual|: 7.830e-06   |deigs|: 5.301e-05  t[s]:    155.25
	FillingsUpdate:  mu: -0.086129367  nElectrons: 9.000000  magneticMoment: [ Abs: 0.16034  Tot: -0.16000 ]
SCF: Cycle: 19   F: -28.377535774633813   dF: +7.556e-09   |Residual|: 6.324e-06   |deigs|: 3.190e-05  t[s]:    161.90
	FillingsUpdate:  mu: -0.086125911  nElectrons: 9.000000  magneticMoment: [ Abs: 0.16035  Tot: -0.16000 ]
SCF: Cycle: 20   F: -28.377535788695873   dF: -1.406e-08   |Residual|: 4.910e-06   |deigs|: 1.878e-05  t[s]:    169.25
	FillingsUpdate:  mu: -0.086124228  nElectrons: 9.000000  magneticMoment: [ Abs: 0.16034  Tot: -0.16000 ]
SCF: Cycle: 21   F: -28.377535793468262   dF: -4.772e-09   |Residual|: 3.781e-06   |deigs|: 9.838e-06  t[s]:    175.94
	FillingsUpdate:  mu: -0.086122511  nElectrons: 9.000000  magneticMoment: [ Abs: 0.16034  Tot: -0.16000 ]
SCF: Cycle: 22   F: -28.377535797791566   dF: -4.323e-09   |Residual|: 2.717e-06   |deigs|: 5.531e-06  t[s]:    182.85
SCF: Converged (|Delta E|<1.000000e-08 for 2 iters).


# Ionic positions in lattice coordinates:
ion K   0.000000000000000   0.000000000000000   0.000000000000000 0

# Forces in Lattice coordinates:
force K  -0.000000000000000   0.000000000000000   0.000000000000000 0

# Energy components:
   Eewald =       -9.0240130501663280
       EH =       13.7555437522727946
     Eloc =      -35.9644091076372732
      Enl =       -2.7673732743815602
   Epulay =        0.0000000066859396
      Exc =       -4.2387414281683480
       KE =        9.8614577376806540
-------------------------------------
     Etot =      -28.3775353637141237
       TS =        0.0000004340774436
-------------------------------------
        F =      -28.3775357977915661

IonicMinimize: Iter:   0  F: -28.377535797791566  |grad|_K:  0.000e+00  t[s]:    183.26
IonicMinimize: Converged (|grad|_K<1.000000e-04).

#--- Lowdin population analysis ---
# oxidation-state K +0.001
# magnetic-moments K -0.160

End date and time: Sat Feb  5 23:43:19 2022  (Duration: 0-0:03:03.33)
Done!
