The alkali metal is K
scale=2
magnetization=-0.4
--------------------------------------------------------------------------
The library attempted to open the following supporting CUDA libraries,
but each of them failed.  CUDA-aware support is disabled.
libcuda.so.1: cannot open shared object file: No such file or directory
libcuda.dylib: cannot open shared object file: No such file or directory
/usr/lib64/libcuda.so.1: cannot open shared object file: No such file or directory
/usr/lib64/libcuda.dylib: cannot open shared object file: No such file or directory
If you are not interested in CUDA-aware support, then run with
--mca opal_warn_on_missing_libcuda 0 to suppress this message.  If you are interested
in CUDA-aware support, then try setting LD_LIBRARY_PATH to the location
of libcuda.so.1 to get passed this issue.
--------------------------------------------------------------------------
--------------------------------------------------------------------------
No OpenFabrics connection schemes reported that they were able to be
used on a specific port.  As such, the openib BTL (OpenFabrics
support) will be disabled for this port.

  Local host:           d-6-8-2
  Local device:         mlx5_1
  Local port:           1
  CPCs attempted:       rdmacm, udcm
--------------------------------------------------------------------------

*************** JDFTx 1.6.0 (git hash 42ebbcc2) ***************

Start date and time: Sat Feb  5 23:36:43 2022
Executable jdftx with command-line: -i Alkali.in
Running on hosts (process indices):  d-6-8-2 (0-18)
Divided in process groups (process indices):  0 (0)  1 (1)  2 (2)  3 (3)  4 (4)  5 (5)  6 (6)  7 (7)  8 (8)  9 (9)  10 (10)  11 (11)  12 (12)  13 (13)  14 (14)  15 (15)  16 (16)  17 (17)  18 (18)
Resource initialization completed at t[s]:      0.00
Run totals: 19 processes, 48 threads, 0 GPUs


Input parsed successfully to the following command list (including defaults):

basis kpoint-dependent
coords-type Lattice
core-overlap-check vector
coulomb-interaction Slab 001
davidson-band-ratio 1.1
dump End None
dump-name $INPUT.$VAR
elec-cutoff 20
elec-eigen-algo Davidson
elec-ex-corr gga-PBE
elec-initial-magnetization -0.400000 yes
elec-smearing Fermi 1e-05
electronic-minimize  \
	dirUpdateScheme      FletcherReeves \
	linminMethod         DirUpdateRecommended \
	nIterations          100 \
	history              15 \
	knormThreshold       0 \
	energyDiffThreshold  1e-08 \
	nEnergyDiff          2 \
	alphaTstart          1 \
	alphaTmin            1e-10 \
	updateTestStepSize   yes \
	alphaTreduceFactor   0.1 \
	alphaTincreaseFactor 3 \
	nAlphaAdjustMax      3 \
	wolfeEnergy          0.0001 \
	wolfeGradient        0.9 \
	fdTest               no
electronic-scf  \
	nIterations	10000 \
	energyDiffThreshold	1e-08 \
	residualThreshold	1e-07 \
	mixFraction	0.5 \
	qMetric	0.8 \
	history	10 \
	nEigSteps	2 \
	eigDiffThreshold	1e-08 \
	mixedVariable	Density \
	qKerker	0.8 \
	qKappa	-1 \
	verbose	no \
	mixFractionMag	1.5
exchange-regularization WignerSeitzTruncated
fluid None
fluid-ex-corr (null) lda-PZ
fluid-gummel-loop 10 1.000000e-05
fluid-minimize  \
	dirUpdateScheme      PolakRibiere \
	linminMethod         DirUpdateRecommended \
	nIterations          100 \
	history              15 \
	knormThreshold       0 \
	energyDiffThreshold  0 \
	nEnergyDiff          2 \
	alphaTstart          1 \
	alphaTmin            1e-10 \
	updateTestStepSize   yes \
	alphaTreduceFactor   0.1 \
	alphaTincreaseFactor 3 \
	nAlphaAdjustMax      3 \
	wolfeEnergy          0.0001 \
	wolfeGradient        0.9 \
	fdTest               no
fluid-solvent H2O 55.338 ScalarEOS \
	epsBulk 78.4 \
	pMol 0.92466 \
	epsInf 1.77 \
	Pvap 1.06736e-10 \
	sigmaBulk 4.62e-05 \
	Rvdw 2.61727 \
	Res 1.42 \
	tauNuc 343133 \
	poleEl 15 7 1
forces-output-coords Positions
ion K   0.000000000000000   0.000000000000000   0.000000000000000 0
ion-species SG15/$ID_ONCV_PBE.upf
ion-width 0
ionic-minimize  \
	dirUpdateScheme      L-BFGS \
	linminMethod         DirUpdateRecommended \
	nIterations          0 \
	history              15 \
	knormThreshold       0.0001 \
	energyDiffThreshold  1e-06 \
	nEnergyDiff          2 \
	alphaTstart          1 \
	alphaTmin            1e-10 \
	updateTestStepSize   yes \
	alphaTreduceFactor   0.1 \
	alphaTincreaseFactor 3 \
	nAlphaAdjustMax      3 \
	wolfeEnergy          0.0001 \
	wolfeGradient        0.9 \
	fdTest               no
kpoint   0.000000000000   0.000000000000   0.000000000000  1.00000000000000
kpoint-folding 12 12 1 
latt-move-scale 1 1 1
latt-scale 2 2 1 
lattice  \
	   4.727486978767153   -2.363743489383575    0.000000000000000  \
	  -0.000000000000000    4.094123819672498    0.000000000000000  \
	   0.000000000000000    0.000000000000000   40.000000000000000 
lattice-minimize  \
	dirUpdateScheme      L-BFGS \
	linminMethod         DirUpdateRecommended \
	nIterations          0 \
	history              15 \
	knormThreshold       0 \
	energyDiffThreshold  1e-06 \
	nEnergyDiff          2 \
	alphaTstart          1 \
	alphaTmin            1e-10 \
	updateTestStepSize   yes \
	alphaTreduceFactor   0.1 \
	alphaTincreaseFactor 3 \
	nAlphaAdjustMax      3 \
	wolfeEnergy          0.0001 \
	wolfeGradient        0.9 \
	fdTest               no
lcao-params -1 1e-06 1e-05
pcm-variant GLSSA13
spintype z-spin
subspace-rotation-factor 1 yes
symmetries automatic
symmetry-threshold 0.0001



---------- Setting up symmetries ----------

Found 24 point-group symmetries of the bravais lattice
Found 24 space-group symmetries with basis
Applied RMS atom displacement 0 bohrs to make symmetries exact.

---------- Initializing the Grid ----------
R = 
[      9.45497     -4.72749            0  ]
[            0      8.18825            0  ]
[            0            0           40  ]
unit cell volume = 3096.79
G =
[   0.664538   0.383671         -0  ]
[          0   0.767342         -0  ]
[         -0         -0    0.15708  ]
Minimum fftbox size, Smin = [  40  40  164  ]
Chosen fftbox size, S = [  40  40  168  ]

---------- Exchange Correlation functional ----------
Initalized PBE GGA exchange.
Initalized PBE GGA correlation.

---------- Setting up pseudopotentials ----------
Width of ionic core gaussian charges (only for fluid interactions / plotting) set to 0

Reading pseudopotential file '/home/gridsan/aligho/DFT/build-Nov24/pseudopotentials/SG15/K_ONCV_PBE.upf':
  'K' pseudopotential, 'PBE' functional
  Generated using ONCVPSP code by D. R. Hamann
  Author: Martin Schlipf and Francois Gygi  Date: 150915.
  9 valence electrons, 3 orbitals, 6 projectors, 2222 radial grid points, with lMax = 2
  Transforming local potential to a uniform radial grid of dG=0.02 with 1489 points.
  Transforming nonlocal projectors to a uniform radial grid of dG=0.02 with 432 points.
    3S    l: 0   occupation:  2.0   eigenvalue: -1.298836
    3P    l: 1   occupation:  6.0   eigenvalue: -0.691386
    4S    l: 0   occupation:  1.0   eigenvalue: -0.085223
  Transforming atomic orbitals to a uniform radial grid of dG=0.02 with 432 points.
  Core radius for overlap checks: 2.06 bohrs.
  Reading pulay file /home/gridsan/aligho/DFT/build-Nov24/pseudopotentials/SG15/K_ONCV_PBE.pulay ... using dE_dnG = -1.597219e-05 computed for Ecut = 20.

Initialized 1 species with 1 total atoms.

Folded 1 k-points by 12x12x1 to 144 k-points.

---------- Setting up k-points, bands, fillings ----------
Reduced to 19 k-points under symmetry. 
Computing the number of bands and number of electrons
Calculating initial fillings.
nElectrons:   9.000000   nBands: 6   nStates: 38

----- Setting up reduced wavefunction bases (one per k-point) -----
average nbasis = 13230.521 , ideal nbasis = 13229.709

---------- Setting up coulomb interaction ----------
Initialized slab truncation along lattice direction 001

---------- Setting up 2D ewald sum ----------
Optimum gaussian width for ewald sums = 5.249020 bohr.
Real space sums over 289 unit cells with max indices [  8  8  0  ]
Reciprocal space sums over 81 terms with max indices [  4  4  0  ]

---------- Allocating electronic variables ----------
Initializing wave functions:  linear combination of atomic orbitals
Note: number of bands (6) exceeds available atomic orbitals (5)
K pseudo-atom occupations:   s ( 2 1 )  p ( 6 )
	FillingsUpdate:  mu: -0.093503005  nElectrons: 9.000000  magneticMoment: [ Abs: 0.40000  Tot: -0.40000 ]
LCAOMinimize: Iter:   0  F: -28.3950284016982017  |grad|_K:  3.482e-05  alpha:  1.000e+00
	FillingsUpdate:  mu: -0.093492466  nElectrons: 9.000000  magneticMoment: [ Abs: 0.40000  Tot: -0.40000 ]
LCAOMinimize: Iter:   1  F: -28.3950292134531033  |grad|_K:  3.095e-07  alpha:  9.788e-01  linmin: -3.483e-02  cgtest:  5.531e-01  t[s]:      4.53
LCAOMinimize: Encountered beta<0, resetting CG.
[d-6-8-2:17382] 18 more processes have sent help message help-mpi-common-cuda.txt / dlopen failed
[d-6-8-2:17382] Set MCA parameter "orte_base_help_aggregate" to 0 to see all help / error messages
[d-6-8-2:17382] 18 more processes have sent help message help-mpi-btl-openib-cpc-base.txt / no cpcs for port
	FillingsUpdate:  mu: -0.093492479  nElectrons: 9.000000  magneticMoment: [ Abs: 0.40000  Tot: -0.40000 ]
LCAOMinimize: Iter:   2  F: -28.3950292135193472  |grad|_K:  3.888e-09  alpha:  1.013e+00  linmin:  8.201e-02  cgtest: -9.567e-01  t[s]:      5.72
LCAOMinimize: Converged (|Delta F|<1.000000e-06 for 2 iters).


---- Citations for features of the code used in this run ----

   Software package:
      R. Sundararaman, K. Letchworth-Weaver, K.A. Schwarz, D. Gunceler, Y. Ozhabes and T.A. Arias, 'JDFTx: software for joint density-functional theory', SoftwareX 6, 278 (2017)

   gga-PBE exchange-correlation functional:
      J.P. Perdew, K. Burke and M. Ernzerhof, Phys. Rev. Lett. 77, 3865 (1996)

   Pseudopotentials:
      M Schlipf and F Gygi, Comput. Phys. Commun. 196, 36 (2015)

   Truncated Coulomb potentials:
      R. Sundararaman and T.A. Arias, Phys. Rev. B 87, 165122 (2013)

This list may not be complete. Please suggest additional citations or
report any other bugs at https://github.com/shankar1729/jdftx/issues

Initialization completed successfully at t[s]:      5.81


-------- Electronic minimization -----------
Will mix electronic density at each iteration.
	FillingsUpdate:  mu: -0.093492479  nElectrons: 9.000000  magneticMoment: [ Abs: 0.40000  Tot: -0.40000 ]
	FillingsUpdate:  mu: -0.105207683  nElectrons: 9.000000  magneticMoment: [ Abs: 0.40000  Tot: -0.40000 ]
SCF: Cycle:  0   F: -28.401364778232693   dF: -6.336e-03   |Residual|: 1.014e-02   |deigs|: 1.742e-01  t[s]:      8.19
	FillingsUpdate:  mu: -0.104967701  nElectrons: 9.000000  magneticMoment: [ Abs: 0.40000  Tot: -0.40000 ]
SCF: Cycle:  1   F: -28.401552282772876   dF: -1.875e-04   |Residual|: 7.633e-03   |deigs|: 5.365e-03  t[s]:      9.99
	FillingsUpdate:  mu: -0.103682858  nElectrons: 9.000000  magneticMoment: [ Abs: 0.40394  Tot: -0.40000 ]
SCF: Cycle:  2   F: -28.401595863464404   dF: -4.358e-05   |Residual|: 4.134e-03   |deigs|: 3.982e-03  t[s]:     11.81
	FillingsUpdate:  mu: -0.102985580  nElectrons: 9.000000  magneticMoment: [ Abs: 0.40000  Tot: -0.40000 ]
SCF: Cycle:  3   F: -28.401659655533969   dF: -6.379e-05   |Residual|: 2.651e-03   |deigs|: 3.106e-03  t[s]:     13.65
	FillingsUpdate:  mu: -0.101587902  nElectrons: 9.000000  magneticMoment: [ Abs: 0.40004  Tot: -0.40000 ]
SCF: Cycle:  4   F: -28.401692820850663   dF: -3.317e-05   |Residual|: 1.796e-03   |deigs|: 3.858e-03  t[s]:     15.58
	FillingsUpdate:  mu: -0.100281564  nElectrons: 9.000000  magneticMoment: [ Abs: 0.40113  Tot: -0.40000 ]
SCF: Cycle:  5   F: -28.401711029959770   dF: -1.821e-05   |Residual|: 1.446e-03   |deigs|: 4.158e-03  t[s]:     17.57
	FillingsUpdate:  mu: -0.098372921  nElectrons: 9.000000  magneticMoment: [ Abs: 0.40610  Tot: -0.40000 ]
SCF: Cycle:  6   F: -28.401718604842081   dF: -7.575e-06   |Residual|: 1.036e-03   |deigs|: 3.068e-03  t[s]:     19.47
	FillingsUpdate:  mu: -0.096606631  nElectrons: 9.000000  magneticMoment: [ Abs: 0.40661  Tot: -0.40000 ]
SCF: Cycle:  7   F: -28.401732205590672   dF: -1.360e-05   |Residual|: 8.901e-04   |deigs|: 2.295e-03  t[s]:     21.41
	FillingsUpdate:  mu: -0.096325173  nElectrons: 9.000000  magneticMoment: [ Abs: 0.40169  Tot: -0.40000 ]
SCF: Cycle:  8   F: -28.401747624798194   dF: -1.542e-05   |Residual|: 7.259e-04   |deigs|: 1.844e-03  t[s]:     23.34
	FillingsUpdate:  mu: -0.095341730  nElectrons: 9.000000  magneticMoment: [ Abs: 0.40249  Tot: -0.40000 ]
SCF: Cycle:  9   F: -28.401751110578232   dF: -3.486e-06   |Residual|: 5.637e-04   |deigs|: 1.061e-03  t[s]:     25.33
	FillingsUpdate:  mu: -0.094217376  nElectrons: 9.000000  magneticMoment: [ Abs: 0.40397  Tot: -0.40000 ]
SCF: Cycle: 10   F: -28.401752984239565   dF: -1.874e-06   |Residual|: 4.967e-04   |deigs|: 1.308e-03  t[s]:     27.37
	FillingsUpdate:  mu: -0.093147928  nElectrons: 9.000000  magneticMoment: [ Abs: 0.40298  Tot: -0.40000 ]
SCF: Cycle: 11   F: -28.401755538804576   dF: -2.555e-06   |Residual|: 4.671e-04   |deigs|: 1.206e-03  t[s]:     29.34
	FillingsUpdate:  mu: -0.092060749  nElectrons: 9.000000  magneticMoment: [ Abs: 0.40368  Tot: -0.40000 ]
SCF: Cycle: 12   F: -28.401765091573932   dF: -9.553e-06   |Residual|: 4.077e-04   |deigs|: 9.507e-04  t[s]:     31.44
	FillingsUpdate:  mu: -0.091054548  nElectrons: 9.000000  magneticMoment: [ Abs: 0.40433  Tot: -0.40000 ]
SCF: Cycle: 13   F: -28.401770063397489   dF: -4.972e-06   |Residual|: 3.792e-04   |deigs|: 1.058e-03  t[s]:     33.36
	FillingsUpdate:  mu: -0.089832487  nElectrons: 9.000000  magneticMoment: [ Abs: 0.40236  Tot: -0.40000 ]
SCF: Cycle: 14   F: -28.401774110089544   dF: -4.047e-06   |Residual|: 3.341e-04   |deigs|: 1.315e-03  t[s]:     35.38
	FillingsUpdate:  mu: -0.089031240  nElectrons: 9.000000  magneticMoment: [ Abs: 0.40002  Tot: -0.40000 ]
SCF: Cycle: 15   F: -28.401776684058806   dF: -2.574e-06   |Residual|: 2.686e-04   |deigs|: 8.482e-04  t[s]:     37.36
	FillingsUpdate:  mu: -0.088560720  nElectrons: 9.000000  magneticMoment: [ Abs: 0.40103  Tot: -0.40000 ]
SCF: Cycle: 16   F: -28.401778089333380   dF: -1.405e-06   |Residual|: 1.772e-04   |deigs|: 6.090e-04  t[s]:     39.43
	FillingsUpdate:  mu: -0.088342949  nElectrons: 9.000000  magneticMoment: [ Abs: 0.40071  Tot: -0.40000 ]
SCF: Cycle: 17   F: -28.401778671428566   dF: -5.821e-07   |Residual|: 1.136e-04   |deigs|: 4.520e-04  t[s]:     41.42
	FillingsUpdate:  mu: -0.088277973  nElectrons: 9.000000  magneticMoment: [ Abs: 0.40015  Tot: -0.40000 ]
SCF: Cycle: 18   F: -28.401779067359296   dF: -3.959e-07   |Residual|: 5.901e-05   |deigs|: 2.643e-04  t[s]:     43.40
	FillingsUpdate:  mu: -0.088264952  nElectrons: 9.000000  magneticMoment: [ Abs: 0.40029  Tot: -0.40000 ]
SCF: Cycle: 19   F: -28.401779210167053   dF: -1.428e-07   |Residual|: 4.041e-05   |deigs|: 1.488e-04  t[s]:     45.34
	FillingsUpdate:  mu: -0.088250133  nElectrons: 9.000000  magneticMoment: [ Abs: 0.40024  Tot: -0.40000 ]
SCF: Cycle: 20   F: -28.401779292338631   dF: -8.217e-08   |Residual|: 2.368e-05   |deigs|: 9.994e-05  t[s]:     47.32
	FillingsUpdate:  mu: -0.088228672  nElectrons: 9.000000  magneticMoment: [ Abs: 0.40015  Tot: -0.40000 ]
SCF: Cycle: 21   F: -28.401779335715901   dF: -4.338e-08   |Residual|: 1.031e-05   |deigs|: 7.328e-05  t[s]:     49.29
	FillingsUpdate:  mu: -0.088223576  nElectrons: 9.000000  magneticMoment: [ Abs: 0.40014  Tot: -0.40000 ]
SCF: Cycle: 22   F: -28.401779364797239   dF: -2.908e-08   |Residual|: 6.045e-06   |deigs|: 7.513e-05  t[s]:     51.20
	FillingsUpdate:  mu: -0.088219486  nElectrons: 9.000000  magneticMoment: [ Abs: 0.40014  Tot: -0.40000 ]
SCF: Cycle: 23   F: -28.401779381307506   dF: -1.651e-08   |Residual|: 4.348e-06   |deigs|: 9.747e-05  t[s]:     53.08
	FillingsUpdate:  mu: -0.088216366  nElectrons: 9.000000  magneticMoment: [ Abs: 0.40012  Tot: -0.40000 ]
SCF: Cycle: 24   F: -28.401779390815985   dF: -9.508e-09   |Residual|: 4.366e-06   |deigs|: 9.575e-05  t[s]:     54.96
	FillingsUpdate:  mu: -0.088214172  nElectrons: 9.000000  magneticMoment: [ Abs: 0.40010  Tot: -0.40000 ]
SCF: Cycle: 25   F: -28.401779396214732   dF: -5.399e-09   |Residual|: 3.280e-06   |deigs|: 6.906e-05  t[s]:     56.89
SCF: Converged (|Delta E|<1.000000e-08 for 2 iters).


# Ionic positions in lattice coordinates:
ion K   0.000000000000000   0.000000000000000   0.000000000000000 0

# Forces in Lattice coordinates:
force K   0.000000000000000   0.000000000000000   0.000000000000000 0

# Energy components:
   Eewald =      -18.0480261003326561
       EH =        4.8739569376727783
     Eloc =      -18.0663851121895505
      Enl =       -2.7748612194294973
   Epulay =        0.0000000041876954
      Exc =       -4.2639630110555036
       KE =        9.8774996958464829
-------------------------------------
     Etot =      -28.4017788053002462
       TS =        0.0000005909144852
-------------------------------------
        F =      -28.4017793962147316

IonicMinimize: Iter:   0  F: -28.401779396214732  |grad|_K:  0.000e+00  t[s]:     57.01
IonicMinimize: Converged (|grad|_K<1.000000e-04).

#--- Lowdin population analysis ---
# oxidation-state K +0.064
# magnetic-moments K -0.346

End date and time: Sat Feb  5 23:37:40 2022  (Duration: 0-0:00:57.03)
Done!
scale=3
magnetization=-0.4
--------------------------------------------------------------------------
The library attempted to open the following supporting CUDA libraries,
but each of them failed.  CUDA-aware support is disabled.
libcuda.so.1: cannot open shared object file: No such file or directory
libcuda.dylib: cannot open shared object file: No such file or directory
/usr/lib64/libcuda.so.1: cannot open shared object file: No such file or directory
/usr/lib64/libcuda.dylib: cannot open shared object file: No such file or directory
If you are not interested in CUDA-aware support, then run with
--mca opal_warn_on_missing_libcuda 0 to suppress this message.  If you are interested
in CUDA-aware support, then try setting LD_LIBRARY_PATH to the location
of libcuda.so.1 to get passed this issue.
--------------------------------------------------------------------------
--------------------------------------------------------------------------
No OpenFabrics connection schemes reported that they were able to be
used on a specific port.  As such, the openib BTL (OpenFabrics
support) will be disabled for this port.

  Local host:           d-6-8-2
  Local device:         mlx5_1
  Local port:           1
  CPCs attempted:       rdmacm, udcm
--------------------------------------------------------------------------

*************** JDFTx 1.6.0 (git hash 42ebbcc2) ***************

Start date and time: Sat Feb  5 23:37:41 2022
Executable jdftx with command-line: -i Alkali.in
Running on hosts (process indices):  d-6-8-2 (0-18)
Divided in process groups (process indices):  0 (0)  1 (1)  2 (2)  3 (3)  4 (4)  5 (5)  6 (6)  7 (7)  8 (8)  9 (9)  10 (10)  11 (11)  12 (12)  13 (13)  14 (14)  15 (15)  16 (16)  17 (17)  18 (18)
Resource initialization completed at t[s]:      0.00
Run totals: 19 processes, 48 threads, 0 GPUs


Input parsed successfully to the following command list (including defaults):

basis kpoint-dependent
coords-type Lattice
core-overlap-check vector
coulomb-interaction Slab 001
davidson-band-ratio 1.1
dump End None
dump-name $INPUT.$VAR
elec-cutoff 20
elec-eigen-algo Davidson
elec-ex-corr gga-PBE
elec-initial-magnetization -0.400000 yes
elec-smearing Fermi 1e-05
electronic-minimize  \
	dirUpdateScheme      FletcherReeves \
	linminMethod         DirUpdateRecommended \
	nIterations          100 \
	history              15 \
	knormThreshold       0 \
	energyDiffThreshold  1e-08 \
	nEnergyDiff          2 \
	alphaTstart          1 \
	alphaTmin            1e-10 \
	updateTestStepSize   yes \
	alphaTreduceFactor   0.1 \
	alphaTincreaseFactor 3 \
	nAlphaAdjustMax      3 \
	wolfeEnergy          0.0001 \
	wolfeGradient        0.9 \
	fdTest               no
electronic-scf  \
	nIterations	10000 \
	energyDiffThreshold	1e-08 \
	residualThreshold	1e-07 \
	mixFraction	0.5 \
	qMetric	0.8 \
	history	10 \
	nEigSteps	2 \
	eigDiffThreshold	1e-08 \
	mixedVariable	Density \
	qKerker	0.8 \
	qKappa	-1 \
	verbose	no \
	mixFractionMag	1.5
exchange-regularization WignerSeitzTruncated
fluid None
fluid-ex-corr (null) lda-PZ
fluid-gummel-loop 10 1.000000e-05
fluid-minimize  \
	dirUpdateScheme      PolakRibiere \
	linminMethod         DirUpdateRecommended \
	nIterations          100 \
	history              15 \
	knormThreshold       0 \
	energyDiffThreshold  0 \
	nEnergyDiff          2 \
	alphaTstart          1 \
	alphaTmin            1e-10 \
	updateTestStepSize   yes \
	alphaTreduceFactor   0.1 \
	alphaTincreaseFactor 3 \
	nAlphaAdjustMax      3 \
	wolfeEnergy          0.0001 \
	wolfeGradient        0.9 \
	fdTest               no
fluid-solvent H2O 55.338 ScalarEOS \
	epsBulk 78.4 \
	pMol 0.92466 \
	epsInf 1.77 \
	Pvap 1.06736e-10 \
	sigmaBulk 4.62e-05 \
	Rvdw 2.61727 \
	Res 1.42 \
	tauNuc 343133 \
	poleEl 15 7 1
forces-output-coords Positions
ion K   0.000000000000000   0.000000000000000   0.000000000000000 0
ion-species SG15/$ID_ONCV_PBE.upf
ion-width 0
ionic-minimize  \
	dirUpdateScheme      L-BFGS \
	linminMethod         DirUpdateRecommended \
	nIterations          0 \
	history              15 \
	knormThreshold       0.0001 \
	energyDiffThreshold  1e-06 \
	nEnergyDiff          2 \
	alphaTstart          1 \
	alphaTmin            1e-10 \
	updateTestStepSize   yes \
	alphaTreduceFactor   0.1 \
	alphaTincreaseFactor 3 \
	nAlphaAdjustMax      3 \
	wolfeEnergy          0.0001 \
	wolfeGradient        0.9 \
	fdTest               no
kpoint   0.000000000000   0.000000000000   0.000000000000  1.00000000000000
kpoint-folding 12 12 1 
latt-move-scale 1 1 1
latt-scale 3 3 1 
lattice  \
	   4.727486978767153   -2.363743489383575    0.000000000000000  \
	  -0.000000000000000    4.094123819672498    0.000000000000000  \
	   0.000000000000000    0.000000000000000   40.000000000000000 
lattice-minimize  \
	dirUpdateScheme      L-BFGS \
	linminMethod         DirUpdateRecommended \
	nIterations          0 \
	history              15 \
	knormThreshold       0 \
	energyDiffThreshold  1e-06 \
	nEnergyDiff          2 \
	alphaTstart          1 \
	alphaTmin            1e-10 \
	updateTestStepSize   yes \
	alphaTreduceFactor   0.1 \
	alphaTincreaseFactor 3 \
	nAlphaAdjustMax      3 \
	wolfeEnergy          0.0001 \
	wolfeGradient        0.9 \
	fdTest               no
lcao-params -1 1e-06 1e-05
pcm-variant GLSSA13
spintype z-spin
subspace-rotation-factor 1 yes
symmetries automatic
symmetry-threshold 0.0001



---------- Setting up symmetries ----------

Found 24 point-group symmetries of the bravais lattice
Found 24 space-group symmetries with basis
Applied RMS atom displacement 0 bohrs to make symmetries exact.

---------- Initializing the Grid ----------
R = 
[      14.1825     -7.09123            0  ]
[            0      12.2824            0  ]
[            0            0           40  ]
unit cell volume = 6967.77
G =
[   0.443025   0.255781         -0  ]
[          0   0.511561         -0  ]
[         -0         -0    0.15708  ]
Minimum fftbox size, Smin = [  60  60  164  ]
Chosen fftbox size, S = [  60  60  168  ]

---------- Exchange Correlation functional ----------
Initalized PBE GGA exchange.
Initalized PBE GGA correlation.

---------- Setting up pseudopotentials ----------
Width of ionic core gaussian charges (only for fluid interactions / plotting) set to 0

Reading pseudopotential file '/home/gridsan/aligho/DFT/build-Nov24/pseudopotentials/SG15/K_ONCV_PBE.upf':
  'K' pseudopotential, 'PBE' functional
  Generated using ONCVPSP code by D. R. Hamann
  Author: Martin Schlipf and Francois Gygi  Date: 150915.
  9 valence electrons, 3 orbitals, 6 projectors, 2222 radial grid points, with lMax = 2
  Transforming local potential to a uniform radial grid of dG=0.02 with 1489 points.
  Transforming nonlocal projectors to a uniform radial grid of dG=0.02 with 432 points.
    3S    l: 0   occupation:  2.0   eigenvalue: -1.298836
    3P    l: 1   occupation:  6.0   eigenvalue: -0.691386
    4S    l: 0   occupation:  1.0   eigenvalue: -0.085223
  Transforming atomic orbitals to a uniform radial grid of dG=0.02 with 432 points.
  Core radius for overlap checks: 2.06 bohrs.
  Reading pulay file /home/gridsan/aligho/DFT/build-Nov24/pseudopotentials/SG15/K_ONCV_PBE.pulay ... using dE_dnG = -1.597219e-05 computed for Ecut = 20.

Initialized 1 species with 1 total atoms.

Folded 1 k-points by 12x12x1 to 144 k-points.

---------- Setting up k-points, bands, fillings ----------
Reduced to 19 k-points under symmetry. 
Computing the number of bands and number of electrons
Calculating initial fillings.
nElectrons:   9.000000   nBands: 6   nStates: 38

----- Setting up reduced wavefunction bases (one per k-point) -----
average nbasis = 29766.104 , ideal nbasis = 29766.845

---------- Setting up coulomb interaction ----------
Initialized slab truncation along lattice direction 001

---------- Setting up 2D ewald sum ----------
Optimum gaussian width for ewald sums = 7.873530 bohr.
Real space sums over 289 unit cells with max indices [  8  8  0  ]
Reciprocal space sums over 81 terms with max indices [  4  4  0  ]

---------- Allocating electronic variables ----------
Initializing wave functions:  linear combination of atomic orbitals
Note: number of bands (6) exceeds available atomic orbitals (5)
K pseudo-atom occupations:   s ( 2 1 )  p ( 6 )
[d-6-8-2:79905] 18 more processes have sent help message help-mpi-common-cuda.txt / dlopen failed
[d-6-8-2:79905] Set MCA parameter "orte_base_help_aggregate" to 0 to see all help / error messages
[d-6-8-2:79905] 18 more processes have sent help message help-mpi-btl-openib-cpc-base.txt / no cpcs for port
	FillingsUpdate:  mu: -0.086558485  nElectrons: 9.000000  magneticMoment: [ Abs: 0.40000  Tot: -0.40000 ]
LCAOMinimize: Iter:   0  F: -28.3825926998732783  |grad|_K:  1.587e-05  alpha:  1.000e+00
	FillingsUpdate:  mu: -0.086555836  nElectrons: 9.000000  magneticMoment: [ Abs: 0.40000  Tot: -0.40000 ]
LCAOMinimize: Iter:   1  F: -28.3825928703326582  |grad|_K:  1.132e-07  alpha:  9.898e-01  linmin: -1.300e-02  cgtest:  3.819e-01  t[s]:      8.66
LCAOMinimize: Encountered beta<0, resetting CG.
	FillingsUpdate:  mu: -0.086555842  nElectrons: 9.000000  magneticMoment: [ Abs: 0.40000  Tot: -0.40000 ]
LCAOMinimize: Iter:   2  F: -28.3825928703413091  |grad|_K:  3.386e-09  alpha:  1.029e+00  linmin:  6.086e-02  cgtest: -9.920e-01  t[s]:     11.04
LCAOMinimize: Converged (|Delta F|<1.000000e-06 for 2 iters).


---- Citations for features of the code used in this run ----

   Software package:
      R. Sundararaman, K. Letchworth-Weaver, K.A. Schwarz, D. Gunceler, Y. Ozhabes and T.A. Arias, 'JDFTx: software for joint density-functional theory', SoftwareX 6, 278 (2017)

   gga-PBE exchange-correlation functional:
      J.P. Perdew, K. Burke and M. Ernzerhof, Phys. Rev. Lett. 77, 3865 (1996)

   Pseudopotentials:
      M Schlipf and F Gygi, Comput. Phys. Commun. 196, 36 (2015)

   Truncated Coulomb potentials:
      R. Sundararaman and T.A. Arias, Phys. Rev. B 87, 165122 (2013)

This list may not be complete. Please suggest additional citations or
report any other bugs at https://github.com/shankar1729/jdftx/issues

Initialization completed successfully at t[s]:     11.20


-------- Electronic minimization -----------
Will mix electronic density at each iteration.
	FillingsUpdate:  mu: -0.086555842  nElectrons: 9.000000  magneticMoment: [ Abs: 0.40000  Tot: -0.40000 ]
	FillingsUpdate:  mu: -0.088047909  nElectrons: 9.000000  magneticMoment: [ Abs: 0.40000  Tot: -0.40000 ]
SCF: Cycle:  0   F: -28.383949995389013   dF: -1.357e-03   |Residual|: 3.399e-03   |deigs|: 1.744e-01  t[s]:     15.95
	FillingsUpdate:  mu: -0.088217566  nElectrons: 9.000000  magneticMoment: [ Abs: 0.40000  Tot: -0.40000 ]
SCF: Cycle:  1   F: -28.383983510562377   dF: -3.352e-05   |Residual|: 2.730e-03   |deigs|: 4.622e-03  t[s]:     19.64
	FillingsUpdate:  mu: -0.088485140  nElectrons: 9.000000  magneticMoment: [ Abs: 0.40116  Tot: -0.40000 ]
SCF: Cycle:  2   F: -28.384010314696319   dF: -2.680e-05   |Residual|: 1.907e-03   |deigs|: 1.829e-03  t[s]:     23.32
	FillingsUpdate:  mu: -0.088784283  nElectrons: 9.000000  magneticMoment: [ Abs: 0.40113  Tot: -0.40000 ]
SCF: Cycle:  3   F: -28.384025577409080   dF: -1.526e-05   |Residual|: 1.118e-03   |deigs|: 3.690e-03  t[s]:     27.12
	FillingsUpdate:  mu: -0.088880071  nElectrons: 9.000000  magneticMoment: [ Abs: 0.40048  Tot: -0.40000 ]
SCF: Cycle:  4   F: -28.384034029771090   dF: -8.452e-06   |Residual|: 6.094e-04   |deigs|: 2.195e-03  t[s]:     31.03
	FillingsUpdate:  mu: -0.088906842  nElectrons: 9.000000  magneticMoment: [ Abs: 0.40069  Tot: -0.40000 ]
SCF: Cycle:  5   F: -28.384039066807791   dF: -5.037e-06   |Residual|: 4.060e-04   |deigs|: 9.830e-04  t[s]:     34.88
	FillingsUpdate:  mu: -0.088810900  nElectrons: 9.000000  magneticMoment: [ Abs: 0.40055  Tot: -0.40000 ]
SCF: Cycle:  6   F: -28.384041692593634   dF: -2.626e-06   |Residual|: 2.815e-04   |deigs|: 1.613e-03  t[s]:     38.89
	FillingsUpdate:  mu: -0.088710203  nElectrons: 9.000000  magneticMoment: [ Abs: 0.40068  Tot: -0.40000 ]
SCF: Cycle:  7   F: -28.384042663475864   dF: -9.709e-07   |Residual|: 2.312e-04   |deigs|: 7.337e-04  t[s]:     42.93
	FillingsUpdate:  mu: -0.088517778  nElectrons: 9.000000  magneticMoment: [ Abs: 0.40115  Tot: -0.40000 ]
SCF: Cycle:  8   F: -28.384043270727300   dF: -6.073e-07   |Residual|: 1.758e-04   |deigs|: 3.686e-04  t[s]:     47.00
	FillingsUpdate:  mu: -0.088313792  nElectrons: 9.000000  magneticMoment: [ Abs: 0.40149  Tot: -0.40000 ]
SCF: Cycle:  9   F: -28.384043368994039   dF: -9.827e-08   |Residual|: 1.662e-04   |deigs|: 2.706e-04  t[s]:     51.16
	FillingsUpdate:  mu: -0.088104907  nElectrons: 9.000000  magneticMoment: [ Abs: 0.40119  Tot: -0.40000 ]
SCF: Cycle: 10   F: -28.384043092184253   dF: +2.768e-07   |Residual|: 1.362e-04   |deigs|: 2.210e-04  t[s]:     55.36
	FillingsUpdate:  mu: -0.087910081  nElectrons: 9.000000  magneticMoment: [ Abs: 0.40143  Tot: -0.40000 ]
SCF: Cycle: 11   F: -28.384043663392696   dF: -5.712e-07   |Residual|: 1.220e-04   |deigs|: 2.686e-04  t[s]:     59.60
	FillingsUpdate:  mu: -0.087854105  nElectrons: 9.000000  magneticMoment: [ Abs: 0.40124  Tot: -0.40000 ]
SCF: Cycle: 12   F: -28.384044135440050   dF: -4.720e-07   |Residual|: 9.976e-05   |deigs|: 1.955e-04  t[s]:     63.88
	FillingsUpdate:  mu: -0.087614654  nElectrons: 9.000000  magneticMoment: [ Abs: 0.40108  Tot: -0.40000 ]
SCF: Cycle: 13   F: -28.384044294619333   dF: -1.592e-07   |Residual|: 9.347e-05   |deigs|: 2.490e-04  t[s]:     68.15
	FillingsUpdate:  mu: -0.087406209  nElectrons: 9.000000  magneticMoment: [ Abs: 0.40071  Tot: -0.40000 ]
SCF: Cycle: 14   F: -28.384043981175545   dF: +3.134e-07   |Residual|: 9.519e-05   |deigs|: 2.305e-04  t[s]:     72.36
	FillingsUpdate:  mu: -0.087271006  nElectrons: 9.000000  magneticMoment: [ Abs: 0.40113  Tot: -0.40000 ]
SCF: Cycle: 15   F: -28.384044277198274   dF: -2.960e-07   |Residual|: 8.416e-05   |deigs|: 1.433e-04  t[s]:     76.63
	FillingsUpdate:  mu: -0.087166375  nElectrons: 9.000000  magneticMoment: [ Abs: 0.40109  Tot: -0.40000 ]
SCF: Cycle: 16   F: -28.384044779816023   dF: -5.026e-07   |Residual|: 6.716e-05   |deigs|: 3.662e-04  t[s]:     80.91
	FillingsUpdate:  mu: -0.087060990  nElectrons: 9.000000  magneticMoment: [ Abs: 0.40080  Tot: -0.40000 ]
SCF: Cycle: 17   F: -28.384044955413451   dF: -1.756e-07   |Residual|: 5.176e-05   |deigs|: 2.323e-04  t[s]:     85.13
	FillingsUpdate:  mu: -0.087001328  nElectrons: 9.000000  magneticMoment: [ Abs: 0.40066  Tot: -0.40000 ]
SCF: Cycle: 18   F: -28.384045108883885   dF: -1.535e-07   |Residual|: 2.828e-05   |deigs|: 1.501e-04  t[s]:     89.29
	FillingsUpdate:  mu: -0.087005947  nElectrons: 9.000000  magneticMoment: [ Abs: 0.40068  Tot: -0.40000 ]
SCF: Cycle: 19   F: -28.384045153997430   dF: -4.511e-08   |Residual|: 1.849e-05   |deigs|: 6.734e-05  t[s]:     93.29
	FillingsUpdate:  mu: -0.087007931  nElectrons: 9.000000  magneticMoment: [ Abs: 0.40067  Tot: -0.40000 ]
SCF: Cycle: 20   F: -28.384045179658418   dF: -2.566e-08   |Residual|: 1.096e-05   |deigs|: 6.412e-05  t[s]:     97.55
	FillingsUpdate:  mu: -0.087008842  nElectrons: 9.000000  magneticMoment: [ Abs: 0.40065  Tot: -0.40000 ]
SCF: Cycle: 21   F: -28.384045197805424   dF: -1.815e-08   |Residual|: 6.336e-06   |deigs|: 4.613e-05  t[s]:    101.62
	FillingsUpdate:  mu: -0.087008764  nElectrons: 9.000000  magneticMoment: [ Abs: 0.40066  Tot: -0.40000 ]
SCF: Cycle: 22   F: -28.384045205151509   dF: -7.346e-09   |Residual|: 3.185e-06   |deigs|: 3.335e-05  t[s]:    105.63
	FillingsUpdate:  mu: -0.087007212  nElectrons: 9.000000  magneticMoment: [ Abs: 0.40066  Tot: -0.40000 ]
SCF: Cycle: 23   F: -28.384045209279588   dF: -4.128e-09   |Residual|: 2.175e-06   |deigs|: 2.108e-05  t[s]:    109.69
SCF: Converged (|Delta E|<1.000000e-08 for 2 iters).


# Ionic positions in lattice coordinates:
ion K   0.000000000000000   0.000000000000000   0.000000000000000 0

# Forces in Lattice coordinates:
force K  -0.000000000000000   0.000000000000000   0.000000000000000 0

# Energy components:
   Eewald =      -12.0320174002217755
       EH =       10.7169053814950175
     Eloc =      -29.9122426606458127
      Enl =       -2.7715595706393468
   Epulay =       -0.0000000016982517
      Exc =       -4.2377299232548715
       KE =        9.8525995565999338
-------------------------------------
     Etot =      -28.3840446183651025
       TS =        0.0000005909144852
-------------------------------------
        F =      -28.3840452092795879

IonicMinimize: Iter:   0  F: -28.384045209279588  |grad|_K:  0.000e+00  t[s]:    109.94
IonicMinimize: Converged (|grad|_K<1.000000e-04).

#--- Lowdin population analysis ---
# oxidation-state K +0.027
# magnetic-moments K -0.383

End date and time: Sat Feb  5 23:39:31 2022  (Duration: 0-0:01:49.99)
Done!
scale=4
magnetization=-0.4
--------------------------------------------------------------------------
The library attempted to open the following supporting CUDA libraries,
but each of them failed.  CUDA-aware support is disabled.
libcuda.so.1: cannot open shared object file: No such file or directory
libcuda.dylib: cannot open shared object file: No such file or directory
/usr/lib64/libcuda.so.1: cannot open shared object file: No such file or directory
/usr/lib64/libcuda.dylib: cannot open shared object file: No such file or directory
If you are not interested in CUDA-aware support, then run with
--mca opal_warn_on_missing_libcuda 0 to suppress this message.  If you are interested
in CUDA-aware support, then try setting LD_LIBRARY_PATH to the location
of libcuda.so.1 to get passed this issue.
--------------------------------------------------------------------------
--------------------------------------------------------------------------
No OpenFabrics connection schemes reported that they were able to be
used on a specific port.  As such, the openib BTL (OpenFabrics
support) will be disabled for this port.

  Local host:           d-6-8-2
  Local device:         mlx5_1
  Local port:           1
  CPCs attempted:       rdmacm, udcm
--------------------------------------------------------------------------

*************** JDFTx 1.6.0 (git hash 42ebbcc2) ***************

Start date and time: Sat Feb  5 23:39:32 2022
Executable jdftx with command-line: -i Alkali.in
Running on hosts (process indices):  d-6-8-2 (0-18)
Divided in process groups (process indices):  0 (0)  1 (1)  2 (2)  3 (3)  4 (4)  5 (5)  6 (6)  7 (7)  8 (8)  9 (9)  10 (10)  11 (11)  12 (12)  13 (13)  14 (14)  15 (15)  16 (16)  17 (17)  18 (18)
Resource initialization completed at t[s]:      0.00
Run totals: 19 processes, 48 threads, 0 GPUs


Input parsed successfully to the following command list (including defaults):

basis kpoint-dependent
coords-type Lattice
core-overlap-check vector
coulomb-interaction Slab 001
davidson-band-ratio 1.1
dump End None
dump-name $INPUT.$VAR
elec-cutoff 20
elec-eigen-algo Davidson
elec-ex-corr gga-PBE
elec-initial-magnetization -0.400000 yes
elec-smearing Fermi 1e-05
electronic-minimize  \
	dirUpdateScheme      FletcherReeves \
	linminMethod         DirUpdateRecommended \
	nIterations          100 \
	history              15 \
	knormThreshold       0 \
	energyDiffThreshold  1e-08 \
	nEnergyDiff          2 \
	alphaTstart          1 \
	alphaTmin            1e-10 \
	updateTestStepSize   yes \
	alphaTreduceFactor   0.1 \
	alphaTincreaseFactor 3 \
	nAlphaAdjustMax      3 \
	wolfeEnergy          0.0001 \
	wolfeGradient        0.9 \
	fdTest               no
electronic-scf  \
	nIterations	10000 \
	energyDiffThreshold	1e-08 \
	residualThreshold	1e-07 \
	mixFraction	0.5 \
	qMetric	0.8 \
	history	10 \
	nEigSteps	2 \
	eigDiffThreshold	1e-08 \
	mixedVariable	Density \
	qKerker	0.8 \
	qKappa	-1 \
	verbose	no \
	mixFractionMag	1.5
exchange-regularization WignerSeitzTruncated
fluid None
fluid-ex-corr (null) lda-PZ
fluid-gummel-loop 10 1.000000e-05
fluid-minimize  \
	dirUpdateScheme      PolakRibiere \
	linminMethod         DirUpdateRecommended \
	nIterations          100 \
	history              15 \
	knormThreshold       0 \
	energyDiffThreshold  0 \
	nEnergyDiff          2 \
	alphaTstart          1 \
	alphaTmin            1e-10 \
	updateTestStepSize   yes \
	alphaTreduceFactor   0.1 \
	alphaTincreaseFactor 3 \
	nAlphaAdjustMax      3 \
	wolfeEnergy          0.0001 \
	wolfeGradient        0.9 \
	fdTest               no
fluid-solvent H2O 55.338 ScalarEOS \
	epsBulk 78.4 \
	pMol 0.92466 \
	epsInf 1.77 \
	Pvap 1.06736e-10 \
	sigmaBulk 4.62e-05 \
	Rvdw 2.61727 \
	Res 1.42 \
	tauNuc 343133 \
	poleEl 15 7 1
forces-output-coords Positions
ion K   0.000000000000000   0.000000000000000   0.000000000000000 0
ion-species SG15/$ID_ONCV_PBE.upf
ion-width 0
ionic-minimize  \
	dirUpdateScheme      L-BFGS \
	linminMethod         DirUpdateRecommended \
	nIterations          0 \
	history              15 \
	knormThreshold       0.0001 \
	energyDiffThreshold  1e-06 \
	nEnergyDiff          2 \
	alphaTstart          1 \
	alphaTmin            1e-10 \
	updateTestStepSize   yes \
	alphaTreduceFactor   0.1 \
	alphaTincreaseFactor 3 \
	nAlphaAdjustMax      3 \
	wolfeEnergy          0.0001 \
	wolfeGradient        0.9 \
	fdTest               no
kpoint   0.000000000000   0.000000000000   0.000000000000  1.00000000000000
kpoint-folding 12 12 1 
latt-move-scale 1 1 1
latt-scale 4 4 1 
lattice  \
	   4.727486978767153   -2.363743489383575    0.000000000000000  \
	  -0.000000000000000    4.094123819672498    0.000000000000000  \
	   0.000000000000000    0.000000000000000   40.000000000000000 
lattice-minimize  \
	dirUpdateScheme      L-BFGS \
	linminMethod         DirUpdateRecommended \
	nIterations          0 \
	history              15 \
	knormThreshold       0 \
	energyDiffThreshold  1e-06 \
	nEnergyDiff          2 \
	alphaTstart          1 \
	alphaTmin            1e-10 \
	updateTestStepSize   yes \
	alphaTreduceFactor   0.1 \
	alphaTincreaseFactor 3 \
	nAlphaAdjustMax      3 \
	wolfeEnergy          0.0001 \
	wolfeGradient        0.9 \
	fdTest               no
lcao-params -1 1e-06 1e-05
pcm-variant GLSSA13
spintype z-spin
subspace-rotation-factor 1 yes
symmetries automatic
symmetry-threshold 0.0001



---------- Setting up symmetries ----------

Found 24 point-group symmetries of the bravais lattice
Found 24 space-group symmetries with basis
Applied RMS atom displacement 0 bohrs to make symmetries exact.

---------- Initializing the Grid ----------
R = 
[      18.9099     -9.45497            0  ]
[            0      16.3765            0  ]
[            0            0           40  ]
unit cell volume = 12387.1
G =
[   0.332269   0.191835         -0  ]
[          0   0.383671         -0  ]
[         -0         -0    0.15708  ]
Minimum fftbox size, Smin = [  80  80  164  ]
Chosen fftbox size, S = [  80  80  168  ]

---------- Exchange Correlation functional ----------
Initalized PBE GGA exchange.
Initalized PBE GGA correlation.

---------- Setting up pseudopotentials ----------
Width of ionic core gaussian charges (only for fluid interactions / plotting) set to 0

Reading pseudopotential file '/home/gridsan/aligho/DFT/build-Nov24/pseudopotentials/SG15/K_ONCV_PBE.upf':
  'K' pseudopotential, 'PBE' functional
  Generated using ONCVPSP code by D. R. Hamann
  Author: Martin Schlipf and Francois Gygi  Date: 150915.
  9 valence electrons, 3 orbitals, 6 projectors, 2222 radial grid points, with lMax = 2
  Transforming local potential to a uniform radial grid of dG=0.02 with 1489 points.
  Transforming nonlocal projectors to a uniform radial grid of dG=0.02 with 432 points.
    3S    l: 0   occupation:  2.0   eigenvalue: -1.298836
    3P    l: 1   occupation:  6.0   eigenvalue: -0.691386
    4S    l: 0   occupation:  1.0   eigenvalue: -0.085223
  Transforming atomic orbitals to a uniform radial grid of dG=0.02 with 432 points.
  Core radius for overlap checks: 2.06 bohrs.
  Reading pulay file /home/gridsan/aligho/DFT/build-Nov24/pseudopotentials/SG15/K_ONCV_PBE.pulay ... using dE_dnG = -1.597219e-05 computed for Ecut = 20.

Initialized 1 species with 1 total atoms.

Folded 1 k-points by 12x12x1 to 144 k-points.

---------- Setting up k-points, bands, fillings ----------
Reduced to 19 k-points under symmetry. 
Computing the number of bands and number of electrons
Calculating initial fillings.
nElectrons:   9.000000   nBands: 6   nStates: 38

----- Setting up reduced wavefunction bases (one per k-point) -----
average nbasis = 52924.021 , ideal nbasis = 52918.836

---------- Setting up coulomb interaction ----------
Initialized slab truncation along lattice direction 001

---------- Setting up 2D ewald sum ----------
Optimum gaussian width for ewald sums = 10.498040 bohr.
Real space sums over 289 unit cells with max indices [  8  8  0  ]
Reciprocal space sums over 81 terms with max indices [  4  4  0  ]

---------- Allocating electronic variables ----------
Initializing wave functions:  linear combination of atomic orbitals
Note: number of bands (6) exceeds available atomic orbitals (5)
K pseudo-atom occupations:   s ( 2 1 )  p ( 6 )
[d-6-8-2:34282] 18 more processes have sent help message help-mpi-common-cuda.txt / dlopen failed
[d-6-8-2:34282] Set MCA parameter "orte_base_help_aggregate" to 0 to see all help / error messages
[d-6-8-2:34282] 18 more processes have sent help message help-mpi-btl-openib-cpc-base.txt / no cpcs for port
	FillingsUpdate:  mu: -0.085663622  nElectrons: 9.000000  magneticMoment: [ Abs: 0.40000  Tot: -0.40000 ]
LCAOMinimize: Iter:   0  F: -28.3779967970647853  |grad|_K:  3.376e-06  alpha:  1.000e+00
	FillingsUpdate:  mu: -0.085662901  nElectrons: 9.000000  magneticMoment: [ Abs: 0.40000  Tot: -0.40000 ]
LCAOMinimize: Iter:   1  F: -28.3779968047798441  |grad|_K:  1.513e-08  alpha:  9.896e-01  linmin: -2.214e-03  cgtest:  2.097e-01  t[s]:     14.86
LCAOMinimize: Encountered beta<0, resetting CG.
	FillingsUpdate:  mu: -0.085662901  nElectrons: 9.000000  magneticMoment: [ Abs: 0.40000  Tot: -0.40000 ]
LCAOMinimize: Iter:   2  F: -28.3779968047800644  |grad|_K:  3.468e-09  alpha:  7.707e-01  linmin: -8.369e-03  cgtest:  1.000e+00  t[s]:     18.86
LCAOMinimize: Encountered beta<0, resetting CG.
LCAOMinimize: Converged (|Delta F|<1.000000e-06 for 2 iters).


---- Citations for features of the code used in this run ----

   Software package:
      R. Sundararaman, K. Letchworth-Weaver, K.A. Schwarz, D. Gunceler, Y. Ozhabes and T.A. Arias, 'JDFTx: software for joint density-functional theory', SoftwareX 6, 278 (2017)

   gga-PBE exchange-correlation functional:
      J.P. Perdew, K. Burke and M. Ernzerhof, Phys. Rev. Lett. 77, 3865 (1996)

   Pseudopotentials:
      M Schlipf and F Gygi, Comput. Phys. Commun. 196, 36 (2015)

   Truncated Coulomb potentials:
      R. Sundararaman and T.A. Arias, Phys. Rev. B 87, 165122 (2013)

This list may not be complete. Please suggest additional citations or
report any other bugs at https://github.com/shankar1729/jdftx/issues

Initialization completed successfully at t[s]:     19.11


-------- Electronic minimization -----------
Will mix electronic density at each iteration.
	FillingsUpdate:  mu: -0.085662901  nElectrons: 9.000000  magneticMoment: [ Abs: 0.40000  Tot: -0.40000 ]
	FillingsUpdate:  mu: -0.085741653  nElectrons: 9.000000  magneticMoment: [ Abs: 0.40000  Tot: -0.40000 ]
SCF: Cycle:  0   F: -28.378076697712871   dF: -7.989e-05   |Residual|: 9.315e-04   |deigs|: 1.746e-01  t[s]:     27.13
	FillingsUpdate:  mu: -0.085759214  nElectrons: 9.000000  magneticMoment: [ Abs: 0.40061  Tot: -0.40000 ]
SCF: Cycle:  1   F: -28.378077632281673   dF: -9.346e-07   |Residual|: 3.310e-04   |deigs|: 5.845e-03  t[s]:     33.48
	FillingsUpdate:  mu: -0.085775807  nElectrons: 9.000000  magneticMoment: [ Abs: 0.40072  Tot: -0.40000 ]
SCF: Cycle:  2   F: -28.378077853502948   dF: -2.212e-07   |Residual|: 2.294e-04   |deigs|: 1.815e-03  t[s]:     39.93
	FillingsUpdate:  mu: -0.085798906  nElectrons: 9.000000  magneticMoment: [ Abs: 0.40089  Tot: -0.40000 ]
SCF: Cycle:  3   F: -28.378078012804700   dF: -1.593e-07   |Residual|: 1.761e-04   |deigs|: 5.127e-04  t[s]:     46.47
	FillingsUpdate:  mu: -0.085830120  nElectrons: 9.000000  magneticMoment: [ Abs: 0.40085  Tot: -0.40000 ]
SCF: Cycle:  4   F: -28.378078247074765   dF: -2.343e-07   |Residual|: 1.238e-04   |deigs|: 7.377e-04  t[s]:     53.13
	FillingsUpdate:  mu: -0.085866855  nElectrons: 9.000000  magneticMoment: [ Abs: 0.40099  Tot: -0.40000 ]
SCF: Cycle:  5   F: -28.378078419154622   dF: -1.721e-07   |Residual|: 7.967e-05   |deigs|: 4.840e-04  t[s]:     59.85
	FillingsUpdate:  mu: -0.085869257  nElectrons: 9.000000  magneticMoment: [ Abs: 0.40096  Tot: -0.40000 ]
SCF: Cycle:  6   F: -28.378078521830595   dF: -1.027e-07   |Residual|: 5.280e-05   |deigs|: 4.851e-04  t[s]:     66.71
	FillingsUpdate:  mu: -0.085868750  nElectrons: 9.000000  magneticMoment: [ Abs: 0.40095  Tot: -0.40000 ]
SCF: Cycle:  7   F: -28.378078584602402   dF: -6.277e-08   |Residual|: 3.790e-05   |deigs|: 3.684e-04  t[s]:     73.73
	FillingsUpdate:  mu: -0.085857781  nElectrons: 9.000000  magneticMoment: [ Abs: 0.40092  Tot: -0.40000 ]
SCF: Cycle:  8   F: -28.378078619678082   dF: -3.508e-08   |Residual|: 3.015e-05   |deigs|: 1.964e-04  t[s]:     80.87
	FillingsUpdate:  mu: -0.085836249  nElectrons: 9.000000  magneticMoment: [ Abs: 0.40088  Tot: -0.40000 ]
SCF: Cycle:  9   F: -28.378078645071312   dF: -2.539e-08   |Residual|: 2.223e-05   |deigs|: 1.511e-04  t[s]:     88.05
	FillingsUpdate:  mu: -0.085821274  nElectrons: 9.000000  magneticMoment: [ Abs: 0.40087  Tot: -0.40000 ]
SCF: Cycle: 10   F: -28.378078647315270   dF: -2.244e-09   |Residual|: 2.081e-05   |deigs|: 1.173e-04  t[s]:     95.34
	FillingsUpdate:  mu: -0.085802468  nElectrons: 9.000000  magneticMoment: [ Abs: 0.40096  Tot: -0.40000 ]
SCF: Cycle: 11   F: -28.378078611426108   dF: +3.589e-08   |Residual|: 1.931e-05   |deigs|: 8.268e-05  t[s]:    102.62
	FillingsUpdate:  mu: -0.085780572  nElectrons: 9.000000  magneticMoment: [ Abs: 0.40103  Tot: -0.40000 ]
SCF: Cycle: 12   F: -28.378078566783188   dF: +4.464e-08   |Residual|: 1.699e-05   |deigs|: 7.241e-05  t[s]:    109.88
	FillingsUpdate:  mu: -0.085759369  nElectrons: 9.000000  magneticMoment: [ Abs: 0.40097  Tot: -0.40000 ]
SCF: Cycle: 13   F: -28.378078590760879   dF: -2.398e-08   |Residual|: 1.554e-05   |deigs|: 8.398e-05  t[s]:    117.01
	FillingsUpdate:  mu: -0.085744401  nElectrons: 9.000000  magneticMoment: [ Abs: 0.40095  Tot: -0.40000 ]
SCF: Cycle: 14   F: -28.378078556873344   dF: +3.389e-08   |Residual|: 1.430e-05   |deigs|: 9.660e-05  t[s]:    124.31
	FillingsUpdate:  mu: -0.085730456  nElectrons: 9.000000  magneticMoment: [ Abs: 0.40097  Tot: -0.40000 ]
SCF: Cycle: 15   F: -28.378078622648726   dF: -6.578e-08   |Residual|: 1.243e-05   |deigs|: 1.031e-04  t[s]:    131.61
	FillingsUpdate:  mu: -0.085710645  nElectrons: 9.000000  magneticMoment: [ Abs: 0.40094  Tot: -0.40000 ]
SCF: Cycle: 16   F: -28.378078609460417   dF: +1.319e-08   |Residual|: 1.202e-05   |deigs|: 9.252e-05  t[s]:    138.28
	FillingsUpdate:  mu: -0.085697360  nElectrons: 9.000000  magneticMoment: [ Abs: 0.40091  Tot: -0.40000 ]
SCF: Cycle: 17   F: -28.378078576085837   dF: +3.337e-08   |Residual|: 1.039e-05   |deigs|: 6.337e-05  t[s]:    145.50
	FillingsUpdate:  mu: -0.085690430  nElectrons: 9.000000  magneticMoment: [ Abs: 0.40089  Tot: -0.40000 ]
SCF: Cycle: 18   F: -28.378078678563387   dF: -1.025e-07   |Residual|: 7.609e-06   |deigs|: 3.908e-05  t[s]:    152.56
	FillingsUpdate:  mu: -0.085684805  nElectrons: 9.000000  magneticMoment: [ Abs: 0.40086  Tot: -0.40000 ]
SCF: Cycle: 19   F: -28.378078675819015   dF: +2.744e-09   |Residual|: 5.596e-06   |deigs|: 2.115e-05  t[s]:    159.26
	FillingsUpdate:  mu: -0.085681279  nElectrons: 9.000000  magneticMoment: [ Abs: 0.40087  Tot: -0.40000 ]
SCF: Cycle: 20   F: -28.378078690150467   dF: -1.433e-08   |Residual|: 3.869e-06   |deigs|: 1.126e-05  t[s]:    166.55
	FillingsUpdate:  mu: -0.085680488  nElectrons: 9.000000  magneticMoment: [ Abs: 0.40087  Tot: -0.40000 ]
SCF: Cycle: 21   F: -28.378078697513097   dF: -7.363e-09   |Residual|: 2.794e-06   |deigs|: 5.735e-06  t[s]:    173.20
	FillingsUpdate:  mu: -0.085680161  nElectrons: 9.000000  magneticMoment: [ Abs: 0.40086  Tot: -0.40000 ]
SCF: Cycle: 22   F: -28.378078698205218   dF: -6.921e-10   |Residual|: 2.021e-06   |deigs|: 2.973e-06  t[s]:    180.01
SCF: Converged (|Delta E|<1.000000e-08 for 2 iters).


# Ionic positions in lattice coordinates:
ion K   0.000000000000000   0.000000000000000   0.000000000000000 0

# Forces in Lattice coordinates:
force K   0.000000000000000  -0.000000000000000   0.000000000000000 0

# Energy components:
   Eewald =       -9.0240130501663280
       EH =       13.7628356585136871
     Eloc =      -35.9722370616500342
      Enl =       -2.7672263760364553
   Epulay =        0.0000000066859396
      Exc =       -4.2401193810905120
       KE =        9.8626827996894537
-------------------------------------
     Etot =      -28.3780774040542525
       TS =        0.0000012941509662
-------------------------------------
        F =      -28.3780786982052184

IonicMinimize: Iter:   0  F: -28.378078698205218  |grad|_K:  0.000e+00  t[s]:    180.42
IonicMinimize: Converged (|grad|_K<1.000000e-04).

#--- Lowdin population analysis ---
# oxidation-state K +0.001
# magnetic-moments K -0.400

End date and time: Sat Feb  5 23:42:33 2022  (Duration: 0-0:03:00.48)
Done!
