The alkali metal is K
scale=2
magnetization=-0.12
--------------------------------------------------------------------------
The library attempted to open the following supporting CUDA libraries,
but each of them failed.  CUDA-aware support is disabled.
libcuda.so.1: cannot open shared object file: No such file or directory
libcuda.dylib: cannot open shared object file: No such file or directory
/usr/lib64/libcuda.so.1: cannot open shared object file: No such file or directory
/usr/lib64/libcuda.dylib: cannot open shared object file: No such file or directory
If you are not interested in CUDA-aware support, then run with
--mca opal_warn_on_missing_libcuda 0 to suppress this message.  If you are interested
in CUDA-aware support, then try setting LD_LIBRARY_PATH to the location
of libcuda.so.1 to get passed this issue.
--------------------------------------------------------------------------
--------------------------------------------------------------------------
No OpenFabrics connection schemes reported that they were able to be
used on a specific port.  As such, the openib BTL (OpenFabrics
support) will be disabled for this port.

  Local host:           d-4-6-3
  Local device:         mlx5_1
  Local port:           1
  CPCs attempted:       rdmacm, udcm
--------------------------------------------------------------------------

*************** JDFTx 1.6.0 (git hash 42ebbcc2) ***************

Start date and time: Sat Feb  5 23:37:22 2022
Executable jdftx with command-line: -i Alkali.in
Running on hosts (process indices):  d-4-6-3 (0-18)
Divided in process groups (process indices):  0 (0)  1 (1)  2 (2)  3 (3)  4 (4)  5 (5)  6 (6)  7 (7)  8 (8)  9 (9)  10 (10)  11 (11)  12 (12)  13 (13)  14 (14)  15 (15)  16 (16)  17 (17)  18 (18)
Resource initialization completed at t[s]:      0.00
Run totals: 19 processes, 48 threads, 0 GPUs


Input parsed successfully to the following command list (including defaults):

basis kpoint-dependent
coords-type Lattice
core-overlap-check vector
coulomb-interaction Slab 001
davidson-band-ratio 1.1
dump End None
dump-name $INPUT.$VAR
elec-cutoff 20
elec-eigen-algo Davidson
elec-ex-corr gga-PBE
elec-initial-magnetization -0.120000 yes
elec-smearing Fermi 1e-05
electronic-minimize  \
	dirUpdateScheme      FletcherReeves \
	linminMethod         DirUpdateRecommended \
	nIterations          100 \
	history              15 \
	knormThreshold       0 \
	energyDiffThreshold  1e-08 \
	nEnergyDiff          2 \
	alphaTstart          1 \
	alphaTmin            1e-10 \
	updateTestStepSize   yes \
	alphaTreduceFactor   0.1 \
	alphaTincreaseFactor 3 \
	nAlphaAdjustMax      3 \
	wolfeEnergy          0.0001 \
	wolfeGradient        0.9 \
	fdTest               no
electronic-scf  \
	nIterations	10000 \
	energyDiffThreshold	1e-08 \
	residualThreshold	1e-07 \
	mixFraction	0.5 \
	qMetric	0.8 \
	history	10 \
	nEigSteps	2 \
	eigDiffThreshold	1e-08 \
	mixedVariable	Density \
	qKerker	0.8 \
	qKappa	-1 \
	verbose	no \
	mixFractionMag	1.5
exchange-regularization WignerSeitzTruncated
fluid None
fluid-ex-corr (null) lda-PZ
fluid-gummel-loop 10 1.000000e-05
fluid-minimize  \
	dirUpdateScheme      PolakRibiere \
	linminMethod         DirUpdateRecommended \
	nIterations          100 \
	history              15 \
	knormThreshold       0 \
	energyDiffThreshold  0 \
	nEnergyDiff          2 \
	alphaTstart          1 \
	alphaTmin            1e-10 \
	updateTestStepSize   yes \
	alphaTreduceFactor   0.1 \
	alphaTincreaseFactor 3 \
	nAlphaAdjustMax      3 \
	wolfeEnergy          0.0001 \
	wolfeGradient        0.9 \
	fdTest               no
fluid-solvent H2O 55.338 ScalarEOS \
	epsBulk 78.4 \
	pMol 0.92466 \
	epsInf 1.77 \
	Pvap 1.06736e-10 \
	sigmaBulk 4.62e-05 \
	Rvdw 2.61727 \
	Res 1.42 \
	tauNuc 343133 \
	poleEl 15 7 1
forces-output-coords Positions
ion K   0.000000000000000   0.000000000000000   0.000000000000000 0
ion-species SG15/$ID_ONCV_PBE.upf
ion-width 0
ionic-minimize  \
	dirUpdateScheme      L-BFGS \
	linminMethod         DirUpdateRecommended \
	nIterations          0 \
	history              15 \
	knormThreshold       0.0001 \
	energyDiffThreshold  1e-06 \
	nEnergyDiff          2 \
	alphaTstart          1 \
	alphaTmin            1e-10 \
	updateTestStepSize   yes \
	alphaTreduceFactor   0.1 \
	alphaTincreaseFactor 3 \
	nAlphaAdjustMax      3 \
	wolfeEnergy          0.0001 \
	wolfeGradient        0.9 \
	fdTest               no
kpoint   0.000000000000   0.000000000000   0.000000000000  1.00000000000000
kpoint-folding 12 12 1 
latt-move-scale 1 1 1
latt-scale 2 2 1 
lattice  \
	   4.727486978767153   -2.363743489383575    0.000000000000000  \
	  -0.000000000000000    4.094123819672498    0.000000000000000  \
	   0.000000000000000    0.000000000000000   40.000000000000000 
lattice-minimize  \
	dirUpdateScheme      L-BFGS \
	linminMethod         DirUpdateRecommended \
	nIterations          0 \
	history              15 \
	knormThreshold       0 \
	energyDiffThreshold  1e-06 \
	nEnergyDiff          2 \
	alphaTstart          1 \
	alphaTmin            1e-10 \
	updateTestStepSize   yes \
	alphaTreduceFactor   0.1 \
	alphaTincreaseFactor 3 \
	nAlphaAdjustMax      3 \
	wolfeEnergy          0.0001 \
	wolfeGradient        0.9 \
	fdTest               no
lcao-params -1 1e-06 1e-05
pcm-variant GLSSA13
spintype z-spin
subspace-rotation-factor 1 yes
symmetries automatic
symmetry-threshold 0.0001



---------- Setting up symmetries ----------

Found 24 point-group symmetries of the bravais lattice
Found 24 space-group symmetries with basis
Applied RMS atom displacement 0 bohrs to make symmetries exact.

---------- Initializing the Grid ----------
R = 
[      9.45497     -4.72749            0  ]
[            0      8.18825            0  ]
[            0            0           40  ]
unit cell volume = 3096.79
G =
[   0.664538   0.383671         -0  ]
[          0   0.767342         -0  ]
[         -0         -0    0.15708  ]
Minimum fftbox size, Smin = [  40  40  164  ]
Chosen fftbox size, S = [  40  40  168  ]

---------- Exchange Correlation functional ----------
Initalized PBE GGA exchange.
Initalized PBE GGA correlation.

---------- Setting up pseudopotentials ----------
Width of ionic core gaussian charges (only for fluid interactions / plotting) set to 0

Reading pseudopotential file '/home/gridsan/aligho/DFT/build-Nov24/pseudopotentials/SG15/K_ONCV_PBE.upf':
  'K' pseudopotential, 'PBE' functional
  Generated using ONCVPSP code by D. R. Hamann
  Author: Martin Schlipf and Francois Gygi  Date: 150915.
  9 valence electrons, 3 orbitals, 6 projectors, 2222 radial grid points, with lMax = 2
  Transforming local potential to a uniform radial grid of dG=0.02 with 1489 points.
  Transforming nonlocal projectors to a uniform radial grid of dG=0.02 with 432 points.
    3S    l: 0   occupation:  2.0   eigenvalue: -1.298836
    3P    l: 1   occupation:  6.0   eigenvalue: -0.691386
    4S    l: 0   occupation:  1.0   eigenvalue: -0.085223
  Transforming atomic orbitals to a uniform radial grid of dG=0.02 with 432 points.
  Core radius for overlap checks: 2.06 bohrs.
  Reading pulay file /home/gridsan/aligho/DFT/build-Nov24/pseudopotentials/SG15/K_ONCV_PBE.pulay ... using dE_dnG = -1.597219e-05 computed for Ecut = 20.

Initialized 1 species with 1 total atoms.

Folded 1 k-points by 12x12x1 to 144 k-points.

---------- Setting up k-points, bands, fillings ----------
Reduced to 19 k-points under symmetry. 
Computing the number of bands and number of electrons
Calculating initial fillings.
nElectrons:   9.000000   nBands: 6   nStates: 38

----- Setting up reduced wavefunction bases (one per k-point) -----
average nbasis = 13230.521 , ideal nbasis = 13229.709

---------- Setting up coulomb interaction ----------
Initialized slab truncation along lattice direction 001

---------- Setting up 2D ewald sum ----------
Optimum gaussian width for ewald sums = 5.249020 bohr.
Real space sums over 289 unit cells with max indices [  8  8  0  ]
Reciprocal space sums over 81 terms with max indices [  4  4  0  ]

---------- Allocating electronic variables ----------
Initializing wave functions:  linear combination of atomic orbitals
Note: number of bands (6) exceeds available atomic orbitals (5)
K pseudo-atom occupations:   s ( 2 1 )  p ( 6 )
	FillingsUpdate:  mu: -0.096279182  nElectrons: 9.000000  magneticMoment: [ Abs: 0.12000  Tot: -0.12000 ]
LCAOMinimize: Iter:   0  F: -28.3987415162086734  |grad|_K:  4.297e-05  alpha:  1.000e+00
	FillingsUpdate:  mu: -0.096266995  nElectrons: 9.000000  magneticMoment: [ Abs: 0.12000  Tot: -0.12000 ]
LCAOMinimize: Iter:   1  F: -28.3987427511307651  |grad|_K:  4.309e-07  alpha:  9.780e-01  linmin: -3.619e-02  cgtest:  5.976e-01  t[s]:      4.59
LCAOMinimize: Encountered beta<0, resetting CG.
[d-4-6-3:85783] 18 more processes have sent help message help-mpi-common-cuda.txt / dlopen failed
[d-4-6-3:85783] Set MCA parameter "orte_base_help_aggregate" to 0 to see all help / error messages
[d-4-6-3:85783] 18 more processes have sent help message help-mpi-btl-openib-cpc-base.txt / no cpcs for port
	FillingsUpdate:  mu: -0.096267011  nElectrons: 9.000000  magneticMoment: [ Abs: 0.12000  Tot: -0.12000 ]
LCAOMinimize: Iter:   2  F: -28.3987427512575330  |grad|_K:  2.553e-09  alpha:  9.959e-01  linmin: -7.181e-02  cgtest:  7.477e-01  t[s]:      5.81
LCAOMinimize: Encountered beta<0, resetting CG.
LCAOMinimize: 	Step increased F by 4.973799e-14, reducing alpha to 1.120936e-03.
LCAOMinimize: 	Step increased F by 7.105427e-15, reducing alpha to 1.120936e-04.
LCAOMinimize: 	Step increased F by 8.171241e-14, reducing alpha to 1.120936e-05.
LCAOMinimize: 	Step failed to reduce F after 3 attempts. Quitting step.
LCAOMinimize: 	Undoing step.
LCAOMinimize: 	Step failed along negative gradient direction.
LCAOMinimize: Probably at roundoff error limit. (Stopping)


---- Citations for features of the code used in this run ----

   Software package:
      R. Sundararaman, K. Letchworth-Weaver, K.A. Schwarz, D. Gunceler, Y. Ozhabes and T.A. Arias, 'JDFTx: software for joint density-functional theory', SoftwareX 6, 278 (2017)

   gga-PBE exchange-correlation functional:
      J.P. Perdew, K. Burke and M. Ernzerhof, Phys. Rev. Lett. 77, 3865 (1996)

   Pseudopotentials:
      M Schlipf and F Gygi, Comput. Phys. Commun. 196, 36 (2015)

   Truncated Coulomb potentials:
      R. Sundararaman and T.A. Arias, Phys. Rev. B 87, 165122 (2013)

This list may not be complete. Please suggest additional citations or
report any other bugs at https://github.com/shankar1729/jdftx/issues

Initialization completed successfully at t[s]:      9.19


-------- Electronic minimization -----------
Will mix electronic density at each iteration.
	FillingsUpdate:  mu: -0.096267011  nElectrons: 9.000000  magneticMoment: [ Abs: 0.12000  Tot: -0.12000 ]
	FillingsUpdate:  mu: -0.106593236  nElectrons: 9.000000  magneticMoment: [ Abs: 0.12000  Tot: -0.12000 ]
SCF: Cycle:  0   F: -28.403447624399703   dF: -4.705e-03   |Residual|: 8.057e-03   |deigs|: 1.749e-01  t[s]:     11.61
	FillingsUpdate:  mu: -0.106389763  nElectrons: 9.000000  magneticMoment: [ Abs: 0.12000  Tot: -0.12000 ]
SCF: Cycle:  1   F: -28.403548140148573   dF: -1.005e-04   |Residual|: 6.427e-03   |deigs|: 4.893e-03  t[s]:     13.43
	FillingsUpdate:  mu: -0.104370985  nElectrons: 9.000000  magneticMoment: [ Abs: 0.12493  Tot: -0.12000 ]
SCF: Cycle:  2   F: -28.403594785146613   dF: -4.664e-05   |Residual|: 2.601e-03   |deigs|: 4.228e-03  t[s]:     15.38
	FillingsUpdate:  mu: -0.103550837  nElectrons: 9.000000  magneticMoment: [ Abs: 0.12003  Tot: -0.12000 ]
SCF: Cycle:  3   F: -28.403635706371194   dF: -4.092e-05   |Residual|: 1.883e-03   |deigs|: 4.165e-03  t[s]:     17.25
	FillingsUpdate:  mu: -0.102259833  nElectrons: 9.000000  magneticMoment: [ Abs: 0.12028  Tot: -0.12000 ]
SCF: Cycle:  4   F: -28.403656362400046   dF: -2.066e-05   |Residual|: 1.569e-03   |deigs|: 4.149e-03  t[s]:     19.14
	FillingsUpdate:  mu: -0.100231531  nElectrons: 9.000000  magneticMoment: [ Abs: 0.12264  Tot: -0.12000 ]
SCF: Cycle:  5   F: -28.403666945857690   dF: -1.058e-05   |Residual|: 1.150e-03   |deigs|: 3.789e-03  t[s]:     21.09
	FillingsUpdate:  mu: -0.098704453  nElectrons: 9.000000  magneticMoment: [ Abs: 0.12333  Tot: -0.12000 ]
SCF: Cycle:  6   F: -28.403678864932996   dF: -1.192e-05   |Residual|: 8.964e-04   |deigs|: 2.337e-03  t[s]:     23.01
	FillingsUpdate:  mu: -0.098123661  nElectrons: 9.000000  magneticMoment: [ Abs: 0.12167  Tot: -0.12000 ]
SCF: Cycle:  7   F: -28.403696086026830   dF: -1.722e-05   |Residual|: 7.515e-04   |deigs|: 1.549e-03  t[s]:     24.97
	FillingsUpdate:  mu: -0.097420997  nElectrons: 9.000000  magneticMoment: [ Abs: 0.12106  Tot: -0.12000 ]
SCF: Cycle:  8   F: -28.403707298454499   dF: -1.121e-05   |Residual|: 6.035e-04   |deigs|: 7.071e-04  t[s]:     27.02
	FillingsUpdate:  mu: -0.096199843  nElectrons: 9.000000  magneticMoment: [ Abs: 0.12165  Tot: -0.12000 ]
SCF: Cycle:  9   F: -28.403703706851349   dF: +3.592e-06   |Residual|: 5.065e-04   |deigs|: 1.280e-03  t[s]:     29.15
	FillingsUpdate:  mu: -0.095103797  nElectrons: 9.000000  magneticMoment: [ Abs: 0.12180  Tot: -0.12000 ]
SCF: Cycle: 10   F: -28.403703847381017   dF: -1.405e-07   |Residual|: 4.899e-04   |deigs|: 1.169e-03  t[s]:     31.21
	FillingsUpdate:  mu: -0.094097576  nElectrons: 9.000000  magneticMoment: [ Abs: 0.12089  Tot: -0.12000 ]
SCF: Cycle: 11   F: -28.403713332096313   dF: -9.485e-06   |Residual|: 4.300e-04   |deigs|: 1.141e-03  t[s]:     33.28
	FillingsUpdate:  mu: -0.093056926  nElectrons: 9.000000  magneticMoment: [ Abs: 0.12169  Tot: -0.12000 ]
SCF: Cycle: 12   F: -28.403720489839042   dF: -7.158e-06   |Residual|: 3.917e-04   |deigs|: 1.016e-03  t[s]:     35.39
	FillingsUpdate:  mu: -0.091925225  nElectrons: 9.000000  magneticMoment: [ Abs: 0.12174  Tot: -0.12000 ]
SCF: Cycle: 13   F: -28.403724615341812   dF: -4.126e-06   |Residual|: 3.670e-04   |deigs|: 1.209e-03  t[s]:     37.44
	FillingsUpdate:  mu: -0.091063034  nElectrons: 9.000000  magneticMoment: [ Abs: 0.12071  Tot: -0.12000 ]
SCF: Cycle: 14   F: -28.403727595286956   dF: -2.980e-06   |Residual|: 3.137e-04   |deigs|: 9.170e-04  t[s]:     39.60
	FillingsUpdate:  mu: -0.090475575  nElectrons: 9.000000  magneticMoment: [ Abs: 0.12027  Tot: -0.12000 ]
SCF: Cycle: 15   F: -28.403729271624769   dF: -1.676e-06   |Residual|: 2.394e-04   |deigs|: 6.423e-04  t[s]:     41.63
	FillingsUpdate:  mu: -0.090134425  nElectrons: 9.000000  magneticMoment: [ Abs: 0.12052  Tot: -0.12000 ]
SCF: Cycle: 16   F: -28.403730533205380   dF: -1.262e-06   |Residual|: 1.228e-04   |deigs|: 3.701e-04  t[s]:     43.74
	FillingsUpdate:  mu: -0.089967604  nElectrons: 9.000000  magneticMoment: [ Abs: 0.12013  Tot: -0.12000 ]
SCF: Cycle: 17   F: -28.403730825977288   dF: -2.928e-07   |Residual|: 7.802e-05   |deigs|: 2.927e-04  t[s]:     45.78
	FillingsUpdate:  mu: -0.089963442  nElectrons: 9.000000  magneticMoment: [ Abs: 0.12004  Tot: -0.12000 ]
SCF: Cycle: 18   F: -28.403730982665468   dF: -1.567e-07   |Residual|: 4.980e-05   |deigs|: 3.097e-04  t[s]:     47.87
	FillingsUpdate:  mu: -0.089919091  nElectrons: 9.000000  magneticMoment: [ Abs: 0.12008  Tot: -0.12000 ]
SCF: Cycle: 19   F: -28.403731072413432   dF: -8.975e-08   |Residual|: 2.784e-05   |deigs|: 1.761e-04  t[s]:     50.00
	FillingsUpdate:  mu: -0.089910960  nElectrons: 9.000000  magneticMoment: [ Abs: 0.12004  Tot: -0.12000 ]
SCF: Cycle: 20   F: -28.403731117563201   dF: -4.515e-08   |Residual|: 1.233e-05   |deigs|: 1.062e-04  t[s]:     52.02
	FillingsUpdate:  mu: -0.089910582  nElectrons: 9.000000  magneticMoment: [ Abs: 0.12003  Tot: -0.12000 ]
SCF: Cycle: 21   F: -28.403731147718869   dF: -3.016e-08   |Residual|: 5.804e-06   |deigs|: 8.708e-05  t[s]:     53.98
	FillingsUpdate:  mu: -0.089911687  nElectrons: 9.000000  magneticMoment: [ Abs: 0.12003  Tot: -0.12000 ]
SCF: Cycle: 22   F: -28.403731167202533   dF: -1.948e-08   |Residual|: 3.088e-06   |deigs|: 6.229e-05  t[s]:     55.88
	FillingsUpdate:  mu: -0.089910459  nElectrons: 9.000000  magneticMoment: [ Abs: 0.12003  Tot: -0.12000 ]
SCF: Cycle: 23   F: -28.403731179905638   dF: -1.270e-08   |Residual|: 2.011e-06   |deigs|: 4.562e-05  t[s]:     57.71
	FillingsUpdate:  mu: -0.089910221  nElectrons: 9.000000  magneticMoment: [ Abs: 0.12003  Tot: -0.12000 ]
SCF: Cycle: 24   F: -28.403731188686944   dF: -8.781e-09   |Residual|: 1.501e-06   |deigs|: 3.403e-05  t[s]:     59.67
	FillingsUpdate:  mu: -0.089909057  nElectrons: 9.000000  magneticMoment: [ Abs: 0.12002  Tot: -0.12000 ]
SCF: Cycle: 25   F: -28.403731193268943   dF: -4.582e-09   |Residual|: 1.098e-06   |deigs|: 2.554e-05  t[s]:     61.58
SCF: Converged (|Delta E|<1.000000e-08 for 2 iters).


# Ionic positions in lattice coordinates:
ion K   0.000000000000000   0.000000000000000   0.000000000000000 0

# Forces in Lattice coordinates:
force K   0.000000000000000   0.000000000000000   0.000000000000000 0

# Energy components:
   Eewald =      -18.0480261003326561
       EH =        4.8671106164875857
     Eloc =      -18.0595326365802542
      Enl =       -2.7736458031118656
   Epulay =        0.0000000041876954
      Exc =       -4.2623145567419112
       KE =        9.8726782420379351
-------------------------------------
     Etot =      -28.4037302340534694
       TS =        0.0000009592154742
-------------------------------------
        F =      -28.4037311932689427

IonicMinimize: Iter:   0  F: -28.403731193268943  |grad|_K:  0.000e+00  t[s]:     61.71
IonicMinimize: Converged (|grad|_K<1.000000e-04).

#--- Lowdin population analysis ---
# oxidation-state K +0.038
# magnetic-moments K -0.106

End date and time: Sat Feb  5 23:38:24 2022  (Duration: 0-0:01:01.73)
Done!
scale=3
magnetization=-0.12
--------------------------------------------------------------------------
The library attempted to open the following supporting CUDA libraries,
but each of them failed.  CUDA-aware support is disabled.
libcuda.so.1: cannot open shared object file: No such file or directory
libcuda.dylib: cannot open shared object file: No such file or directory
/usr/lib64/libcuda.so.1: cannot open shared object file: No such file or directory
/usr/lib64/libcuda.dylib: cannot open shared object file: No such file or directory
If you are not interested in CUDA-aware support, then run with
--mca opal_warn_on_missing_libcuda 0 to suppress this message.  If you are interested
in CUDA-aware support, then try setting LD_LIBRARY_PATH to the location
of libcuda.so.1 to get passed this issue.
--------------------------------------------------------------------------
--------------------------------------------------------------------------
No OpenFabrics connection schemes reported that they were able to be
used on a specific port.  As such, the openib BTL (OpenFabrics
support) will be disabled for this port.

  Local host:           d-4-6-3
  Local device:         mlx5_1
  Local port:           1
  CPCs attempted:       rdmacm, udcm
--------------------------------------------------------------------------

*************** JDFTx 1.6.0 (git hash 42ebbcc2) ***************

Start date and time: Sat Feb  5 23:38:25 2022
Executable jdftx with command-line: -i Alkali.in
Running on hosts (process indices):  d-4-6-3 (0-18)
Divided in process groups (process indices):  0 (0)  1 (1)  2 (2)  3 (3)  4 (4)  5 (5)  6 (6)  7 (7)  8 (8)  9 (9)  10 (10)  11 (11)  12 (12)  13 (13)  14 (14)  15 (15)  16 (16)  17 (17)  18 (18)
Resource initialization completed at t[s]:      0.00
Run totals: 19 processes, 48 threads, 0 GPUs


Input parsed successfully to the following command list (including defaults):

basis kpoint-dependent
coords-type Lattice
core-overlap-check vector
coulomb-interaction Slab 001
davidson-band-ratio 1.1
dump End None
dump-name $INPUT.$VAR
elec-cutoff 20
elec-eigen-algo Davidson
elec-ex-corr gga-PBE
elec-initial-magnetization -0.120000 yes
elec-smearing Fermi 1e-05
electronic-minimize  \
	dirUpdateScheme      FletcherReeves \
	linminMethod         DirUpdateRecommended \
	nIterations          100 \
	history              15 \
	knormThreshold       0 \
	energyDiffThreshold  1e-08 \
	nEnergyDiff          2 \
	alphaTstart          1 \
	alphaTmin            1e-10 \
	updateTestStepSize   yes \
	alphaTreduceFactor   0.1 \
	alphaTincreaseFactor 3 \
	nAlphaAdjustMax      3 \
	wolfeEnergy          0.0001 \
	wolfeGradient        0.9 \
	fdTest               no
electronic-scf  \
	nIterations	10000 \
	energyDiffThreshold	1e-08 \
	residualThreshold	1e-07 \
	mixFraction	0.5 \
	qMetric	0.8 \
	history	10 \
	nEigSteps	2 \
	eigDiffThreshold	1e-08 \
	mixedVariable	Density \
	qKerker	0.8 \
	qKappa	-1 \
	verbose	no \
	mixFractionMag	1.5
exchange-regularization WignerSeitzTruncated
fluid None
fluid-ex-corr (null) lda-PZ
fluid-gummel-loop 10 1.000000e-05
fluid-minimize  \
	dirUpdateScheme      PolakRibiere \
	linminMethod         DirUpdateRecommended \
	nIterations          100 \
	history              15 \
	knormThreshold       0 \
	energyDiffThreshold  0 \
	nEnergyDiff          2 \
	alphaTstart          1 \
	alphaTmin            1e-10 \
	updateTestStepSize   yes \
	alphaTreduceFactor   0.1 \
	alphaTincreaseFactor 3 \
	nAlphaAdjustMax      3 \
	wolfeEnergy          0.0001 \
	wolfeGradient        0.9 \
	fdTest               no
fluid-solvent H2O 55.338 ScalarEOS \
	epsBulk 78.4 \
	pMol 0.92466 \
	epsInf 1.77 \
	Pvap 1.06736e-10 \
	sigmaBulk 4.62e-05 \
	Rvdw 2.61727 \
	Res 1.42 \
	tauNuc 343133 \
	poleEl 15 7 1
forces-output-coords Positions
ion K   0.000000000000000   0.000000000000000   0.000000000000000 0
ion-species SG15/$ID_ONCV_PBE.upf
ion-width 0
ionic-minimize  \
	dirUpdateScheme      L-BFGS \
	linminMethod         DirUpdateRecommended \
	nIterations          0 \
	history              15 \
	knormThreshold       0.0001 \
	energyDiffThreshold  1e-06 \
	nEnergyDiff          2 \
	alphaTstart          1 \
	alphaTmin            1e-10 \
	updateTestStepSize   yes \
	alphaTreduceFactor   0.1 \
	alphaTincreaseFactor 3 \
	nAlphaAdjustMax      3 \
	wolfeEnergy          0.0001 \
	wolfeGradient        0.9 \
	fdTest               no
kpoint   0.000000000000   0.000000000000   0.000000000000  1.00000000000000
kpoint-folding 12 12 1 
latt-move-scale 1 1 1
latt-scale 3 3 1 
lattice  \
	   4.727486978767153   -2.363743489383575    0.000000000000000  \
	  -0.000000000000000    4.094123819672498    0.000000000000000  \
	   0.000000000000000    0.000000000000000   40.000000000000000 
lattice-minimize  \
	dirUpdateScheme      L-BFGS \
	linminMethod         DirUpdateRecommended \
	nIterations          0 \
	history              15 \
	knormThreshold       0 \
	energyDiffThreshold  1e-06 \
	nEnergyDiff          2 \
	alphaTstart          1 \
	alphaTmin            1e-10 \
	updateTestStepSize   yes \
	alphaTreduceFactor   0.1 \
	alphaTincreaseFactor 3 \
	nAlphaAdjustMax      3 \
	wolfeEnergy          0.0001 \
	wolfeGradient        0.9 \
	fdTest               no
lcao-params -1 1e-06 1e-05
pcm-variant GLSSA13
spintype z-spin
subspace-rotation-factor 1 yes
symmetries automatic
symmetry-threshold 0.0001



---------- Setting up symmetries ----------

Found 24 point-group symmetries of the bravais lattice
Found 24 space-group symmetries with basis
Applied RMS atom displacement 0 bohrs to make symmetries exact.

---------- Initializing the Grid ----------
R = 
[      14.1825     -7.09123            0  ]
[            0      12.2824            0  ]
[            0            0           40  ]
unit cell volume = 6967.77
G =
[   0.443025   0.255781         -0  ]
[          0   0.511561         -0  ]
[         -0         -0    0.15708  ]
Minimum fftbox size, Smin = [  60  60  164  ]
Chosen fftbox size, S = [  60  60  168  ]

---------- Exchange Correlation functional ----------
Initalized PBE GGA exchange.
Initalized PBE GGA correlation.

---------- Setting up pseudopotentials ----------
Width of ionic core gaussian charges (only for fluid interactions / plotting) set to 0

Reading pseudopotential file '/home/gridsan/aligho/DFT/build-Nov24/pseudopotentials/SG15/K_ONCV_PBE.upf':
  'K' pseudopotential, 'PBE' functional
  Generated using ONCVPSP code by D. R. Hamann
  Author: Martin Schlipf and Francois Gygi  Date: 150915.
  9 valence electrons, 3 orbitals, 6 projectors, 2222 radial grid points, with lMax = 2
  Transforming local potential to a uniform radial grid of dG=0.02 with 1489 points.
  Transforming nonlocal projectors to a uniform radial grid of dG=0.02 with 432 points.
    3S    l: 0   occupation:  2.0   eigenvalue: -1.298836
    3P    l: 1   occupation:  6.0   eigenvalue: -0.691386
    4S    l: 0   occupation:  1.0   eigenvalue: -0.085223
  Transforming atomic orbitals to a uniform radial grid of dG=0.02 with 432 points.
  Core radius for overlap checks: 2.06 bohrs.
  Reading pulay file /home/gridsan/aligho/DFT/build-Nov24/pseudopotentials/SG15/K_ONCV_PBE.pulay ... using dE_dnG = -1.597219e-05 computed for Ecut = 20.

Initialized 1 species with 1 total atoms.

Folded 1 k-points by 12x12x1 to 144 k-points.

---------- Setting up k-points, bands, fillings ----------
Reduced to 19 k-points under symmetry. 
Computing the number of bands and number of electrons
Calculating initial fillings.
nElectrons:   9.000000   nBands: 6   nStates: 38

----- Setting up reduced wavefunction bases (one per k-point) -----
average nbasis = 29766.104 , ideal nbasis = 29766.845

---------- Setting up coulomb interaction ----------
Initialized slab truncation along lattice direction 001

---------- Setting up 2D ewald sum ----------
Optimum gaussian width for ewald sums = 7.873530 bohr.
Real space sums over 289 unit cells with max indices [  8  8  0  ]
Reciprocal space sums over 81 terms with max indices [  4  4  0  ]

---------- Allocating electronic variables ----------
Initializing wave functions:  linear combination of atomic orbitals
Note: number of bands (6) exceeds available atomic orbitals (5)
K pseudo-atom occupations:   s ( 2 1 )  p ( 6 )
[d-4-6-3:59577] 18 more processes have sent help message help-mpi-common-cuda.txt / dlopen failed
[d-4-6-3:59577] Set MCA parameter "orte_base_help_aggregate" to 0 to see all help / error messages
[d-4-6-3:59577] 18 more processes have sent help message help-mpi-btl-openib-cpc-base.txt / no cpcs for port
	FillingsUpdate:  mu: -0.086363015  nElectrons: 9.000000  magneticMoment: [ Abs: 0.12000  Tot: -0.12000 ]
LCAOMinimize: Iter:   0  F: -28.3829334938144662  |grad|_K:  1.876e-05  alpha:  1.000e+00
	FillingsUpdate:  mu: -0.086359344  nElectrons: 9.000000  magneticMoment: [ Abs: 0.12000  Tot: -0.12000 ]
LCAOMinimize: Iter:   1  F: -28.3829337317249077  |grad|_K:  1.397e-07  alpha:  9.880e-01  linmin: -1.513e-02  cgtest:  4.749e-01  t[s]:      8.85
LCAOMinimize: Encountered beta<0, resetting CG.
	FillingsUpdate:  mu: -0.086359342  nElectrons: 9.000000  magneticMoment: [ Abs: 0.12000  Tot: -0.12000 ]
LCAOMinimize: Iter:   2  F: -28.3829337317380030  |grad|_K:  5.550e-10  alpha:  1.004e+00  linmin:  4.272e-02  cgtest: -8.851e-01  t[s]:     11.25
LCAOMinimize: Converged (|Delta F|<1.000000e-06 for 2 iters).


---- Citations for features of the code used in this run ----

   Software package:
      R. Sundararaman, K. Letchworth-Weaver, K.A. Schwarz, D. Gunceler, Y. Ozhabes and T.A. Arias, 'JDFTx: software for joint density-functional theory', SoftwareX 6, 278 (2017)

   gga-PBE exchange-correlation functional:
      J.P. Perdew, K. Burke and M. Ernzerhof, Phys. Rev. Lett. 77, 3865 (1996)

   Pseudopotentials:
      M Schlipf and F Gygi, Comput. Phys. Commun. 196, 36 (2015)

   Truncated Coulomb potentials:
      R. Sundararaman and T.A. Arias, Phys. Rev. B 87, 165122 (2013)

This list may not be complete. Please suggest additional citations or
report any other bugs at https://github.com/shankar1729/jdftx/issues

Initialization completed successfully at t[s]:     11.42


-------- Electronic minimization -----------
Will mix electronic density at each iteration.
	FillingsUpdate:  mu: -0.086359342  nElectrons: 9.000000  magneticMoment: [ Abs: 0.12000  Tot: -0.12000 ]
	FillingsUpdate:  mu: -0.088290610  nElectrons: 9.000000  magneticMoment: [ Abs: 0.12000  Tot: -0.12000 ]
SCF: Cycle:  0   F: -28.384426489485012   dF: -1.493e-03   |Residual|: 3.330e-03   |deigs|: 1.746e-01  t[s]:     16.22
	FillingsUpdate:  mu: -0.088511878  nElectrons: 9.000000  magneticMoment: [ Abs: 0.12000  Tot: -0.12000 ]
SCF: Cycle:  1   F: -28.384448638263780   dF: -2.215e-05   |Residual|: 2.868e-03   |deigs|: 4.701e-03  t[s]:     19.99
	FillingsUpdate:  mu: -0.089199363  nElectrons: 9.000000  magneticMoment: [ Abs: 0.12180  Tot: -0.12000 ]
SCF: Cycle:  2   F: -28.384480251788094   dF: -3.161e-05   |Residual|: 1.312e-03   |deigs|: 3.018e-03  t[s]:     23.85
	FillingsUpdate:  mu: -0.089351416  nElectrons: 9.000000  magneticMoment: [ Abs: 0.12034  Tot: -0.12000 ]
SCF: Cycle:  3   F: -28.384489223281438   dF: -8.971e-06   |Residual|: 7.936e-04   |deigs|: 2.504e-03  t[s]:     27.74
	FillingsUpdate:  mu: -0.089292446  nElectrons: 9.000000  magneticMoment: [ Abs: 0.12014  Tot: -0.12000 ]
SCF: Cycle:  4   F: -28.384494738946692   dF: -5.516e-06   |Residual|: 5.059e-04   |deigs|: 1.596e-03  t[s]:     31.74
	FillingsUpdate:  mu: -0.089244106  nElectrons: 9.000000  magneticMoment: [ Abs: 0.12018  Tot: -0.12000 ]
SCF: Cycle:  5   F: -28.384497779201642   dF: -3.040e-06   |Residual|: 3.655e-04   |deigs|: 1.985e-03  t[s]:     35.80
	FillingsUpdate:  mu: -0.089090239  nElectrons: 9.000000  magneticMoment: [ Abs: 0.12010  Tot: -0.12000 ]
SCF: Cycle:  6   F: -28.384499303101979   dF: -1.524e-06   |Residual|: 2.749e-04   |deigs|: 1.548e-03  t[s]:     39.84
	FillingsUpdate:  mu: -0.088886953  nElectrons: 9.000000  magneticMoment: [ Abs: 0.12039  Tot: -0.12000 ]
SCF: Cycle:  7   F: -28.384499931245063   dF: -6.281e-07   |Residual|: 2.150e-04   |deigs|: 1.365e-03  t[s]:     44.01
	FillingsUpdate:  mu: -0.088710664  nElectrons: 9.000000  magneticMoment: [ Abs: 0.12062  Tot: -0.12000 ]
SCF: Cycle:  8   F: -28.384500016568818   dF: -8.532e-08   |Residual|: 1.772e-04   |deigs|: 2.240e-04  t[s]:     48.24
	FillingsUpdate:  mu: -0.088526768  nElectrons: 9.000000  magneticMoment: [ Abs: 0.12059  Tot: -0.12000 ]
SCF: Cycle:  9   F: -28.384500037543511   dF: -2.097e-08   |Residual|: 1.675e-04   |deigs|: 1.943e-04  t[s]:     52.47
	FillingsUpdate:  mu: -0.088292755  nElectrons: 9.000000  magneticMoment: [ Abs: 0.12060  Tot: -0.12000 ]
SCF: Cycle: 10   F: -28.384500284260866   dF: -2.467e-07   |Residual|: 1.442e-04   |deigs|: 3.218e-04  t[s]:     56.81
	FillingsUpdate:  mu: -0.088152170  nElectrons: 9.000000  magneticMoment: [ Abs: 0.12059  Tot: -0.12000 ]
SCF: Cycle: 11   F: -28.384500518739102   dF: -2.345e-07   |Residual|: 1.181e-04   |deigs|: 1.103e-04  t[s]:     61.22
	FillingsUpdate:  mu: -0.087990422  nElectrons: 9.000000  magneticMoment: [ Abs: 0.12048  Tot: -0.12000 ]
SCF: Cycle: 12   F: -28.384500620138628   dF: -1.014e-07   |Residual|: 1.008e-04   |deigs|: 1.853e-04  t[s]:     65.60
	FillingsUpdate:  mu: -0.087815306  nElectrons: 9.000000  magneticMoment: [ Abs: 0.12033  Tot: -0.12000 ]
SCF: Cycle: 13   F: -28.384500451230668   dF: +1.689e-07   |Residual|: 1.008e-04   |deigs|: 2.175e-04  t[s]:     69.99
	FillingsUpdate:  mu: -0.087613634  nElectrons: 9.000000  magneticMoment: [ Abs: 0.12031  Tot: -0.12000 ]
SCF: Cycle: 14   F: -28.384500459100867   dF: -7.870e-09   |Residual|: 9.545e-05   |deigs|: 2.553e-04  t[s]:     74.38
	FillingsUpdate:  mu: -0.087476043  nElectrons: 9.000000  magneticMoment: [ Abs: 0.12073  Tot: -0.12000 ]
SCF: Cycle: 15   F: -28.384500960166317   dF: -5.011e-07   |Residual|: 8.352e-05   |deigs|: 2.240e-04  t[s]:     78.68
	FillingsUpdate:  mu: -0.087433030  nElectrons: 9.000000  magneticMoment: [ Abs: 0.12045  Tot: -0.12000 ]
SCF: Cycle: 16   F: -28.384501326531009   dF: -3.664e-07   |Residual|: 6.411e-05   |deigs|: 1.293e-04  t[s]:     82.98
	FillingsUpdate:  mu: -0.087324326  nElectrons: 9.000000  magneticMoment: [ Abs: 0.12021  Tot: -0.12000 ]
SCF: Cycle: 17   F: -28.384501463743529   dF: -1.372e-07   |Residual|: 4.144e-05   |deigs|: 1.569e-04  t[s]:     87.32
	FillingsUpdate:  mu: -0.087292258  nElectrons: 9.000000  magneticMoment: [ Abs: 0.12024  Tot: -0.12000 ]
SCF: Cycle: 18   F: -28.384501538126557   dF: -7.438e-08   |Residual|: 2.585e-05   |deigs|: 1.110e-04  t[s]:     91.63
	FillingsUpdate:  mu: -0.087290848  nElectrons: 9.000000  magneticMoment: [ Abs: 0.12021  Tot: -0.12000 ]
SCF: Cycle: 19   F: -28.384501566817509   dF: -2.869e-08   |Residual|: 1.558e-05   |deigs|: 5.708e-05  t[s]:     96.00
	FillingsUpdate:  mu: -0.087289943  nElectrons: 9.000000  magneticMoment: [ Abs: 0.12022  Tot: -0.12000 ]
SCF: Cycle: 20   F: -28.384501586523893   dF: -1.971e-08   |Residual|: 8.174e-06   |deigs|: 3.590e-05  t[s]:    100.33
	FillingsUpdate:  mu: -0.087288319  nElectrons: 9.000000  magneticMoment: [ Abs: 0.12020  Tot: -0.12000 ]
SCF: Cycle: 21   F: -28.384501594701280   dF: -8.177e-09   |Residual|: 6.342e-06   |deigs|: 4.414e-05  t[s]:    104.35
	FillingsUpdate:  mu: -0.087289876  nElectrons: 9.000000  magneticMoment: [ Abs: 0.12020  Tot: -0.12000 ]
SCF: Cycle: 22   F: -28.384501599947722   dF: -5.246e-09   |Residual|: 2.901e-06   |deigs|: 5.436e-05  t[s]:    108.59
SCF: Converged (|Delta E|<1.000000e-08 for 2 iters).


# Ionic positions in lattice coordinates:
ion K   0.000000000000000   0.000000000000000   0.000000000000000 0

# Forces in Lattice coordinates:
force K   0.000000000000000   0.000000000000000   0.000000000000000 0

# Energy components:
   Eewald =      -12.0320174002217755
       EH =       10.7063439111334056
     Eloc =      -29.9005317314495684
      Enl =       -2.7720577029407862
   Epulay =       -0.0000000016982517
      Exc =       -4.2363294465901475
       KE =        9.8500917310348779
-------------------------------------
     Etot =      -28.3845006407322487
       TS =        0.0000009592154742
-------------------------------------
        F =      -28.3845015999477219

IonicMinimize: Iter:   0  F: -28.384501599947722  |grad|_K:  0.000e+00  t[s]:    108.88
IonicMinimize: Converged (|grad|_K<1.000000e-04).

#--- Lowdin population analysis ---
# oxidation-state K +0.026
# magnetic-moments K -0.114

End date and time: Sat Feb  5 23:40:14 2022  (Duration: 0-0:01:48.92)
Done!
scale=4
magnetization=-0.12
--------------------------------------------------------------------------
The library attempted to open the following supporting CUDA libraries,
but each of them failed.  CUDA-aware support is disabled.
libcuda.so.1: cannot open shared object file: No such file or directory
libcuda.dylib: cannot open shared object file: No such file or directory
/usr/lib64/libcuda.so.1: cannot open shared object file: No such file or directory
/usr/lib64/libcuda.dylib: cannot open shared object file: No such file or directory
If you are not interested in CUDA-aware support, then run with
--mca opal_warn_on_missing_libcuda 0 to suppress this message.  If you are interested
in CUDA-aware support, then try setting LD_LIBRARY_PATH to the location
of libcuda.so.1 to get passed this issue.
--------------------------------------------------------------------------
--------------------------------------------------------------------------
No OpenFabrics connection schemes reported that they were able to be
used on a specific port.  As such, the openib BTL (OpenFabrics
support) will be disabled for this port.

  Local host:           d-4-6-3
  Local device:         mlx5_1
  Local port:           1
  CPCs attempted:       rdmacm, udcm
--------------------------------------------------------------------------

*************** JDFTx 1.6.0 (git hash 42ebbcc2) ***************

Start date and time: Sat Feb  5 23:40:15 2022
Executable jdftx with command-line: -i Alkali.in
Running on hosts (process indices):  d-4-6-3 (0-18)
Divided in process groups (process indices):  0 (0)  1 (1)  2 (2)  3 (3)  4 (4)  5 (5)  6 (6)  7 (7)  8 (8)  9 (9)  10 (10)  11 (11)  12 (12)  13 (13)  14 (14)  15 (15)  16 (16)  17 (17)  18 (18)
Resource initialization completed at t[s]:      0.00
Run totals: 19 processes, 48 threads, 0 GPUs


Input parsed successfully to the following command list (including defaults):

basis kpoint-dependent
coords-type Lattice
core-overlap-check vector
coulomb-interaction Slab 001
davidson-band-ratio 1.1
dump End None
dump-name $INPUT.$VAR
elec-cutoff 20
elec-eigen-algo Davidson
elec-ex-corr gga-PBE
elec-initial-magnetization -0.120000 yes
elec-smearing Fermi 1e-05
electronic-minimize  \
	dirUpdateScheme      FletcherReeves \
	linminMethod         DirUpdateRecommended \
	nIterations          100 \
	history              15 \
	knormThreshold       0 \
	energyDiffThreshold  1e-08 \
	nEnergyDiff          2 \
	alphaTstart          1 \
	alphaTmin            1e-10 \
	updateTestStepSize   yes \
	alphaTreduceFactor   0.1 \
	alphaTincreaseFactor 3 \
	nAlphaAdjustMax      3 \
	wolfeEnergy          0.0001 \
	wolfeGradient        0.9 \
	fdTest               no
electronic-scf  \
	nIterations	10000 \
	energyDiffThreshold	1e-08 \
	residualThreshold	1e-07 \
	mixFraction	0.5 \
	qMetric	0.8 \
	history	10 \
	nEigSteps	2 \
	eigDiffThreshold	1e-08 \
	mixedVariable	Density \
	qKerker	0.8 \
	qKappa	-1 \
	verbose	no \
	mixFractionMag	1.5
exchange-regularization WignerSeitzTruncated
fluid None
fluid-ex-corr (null) lda-PZ
fluid-gummel-loop 10 1.000000e-05
fluid-minimize  \
	dirUpdateScheme      PolakRibiere \
	linminMethod         DirUpdateRecommended \
	nIterations          100 \
	history              15 \
	knormThreshold       0 \
	energyDiffThreshold  0 \
	nEnergyDiff          2 \
	alphaTstart          1 \
	alphaTmin            1e-10 \
	updateTestStepSize   yes \
	alphaTreduceFactor   0.1 \
	alphaTincreaseFactor 3 \
	nAlphaAdjustMax      3 \
	wolfeEnergy          0.0001 \
	wolfeGradient        0.9 \
	fdTest               no
fluid-solvent H2O 55.338 ScalarEOS \
	epsBulk 78.4 \
	pMol 0.92466 \
	epsInf 1.77 \
	Pvap 1.06736e-10 \
	sigmaBulk 4.62e-05 \
	Rvdw 2.61727 \
	Res 1.42 \
	tauNuc 343133 \
	poleEl 15 7 1
forces-output-coords Positions
ion K   0.000000000000000   0.000000000000000   0.000000000000000 0
ion-species SG15/$ID_ONCV_PBE.upf
ion-width 0
ionic-minimize  \
	dirUpdateScheme      L-BFGS \
	linminMethod         DirUpdateRecommended \
	nIterations          0 \
	history              15 \
	knormThreshold       0.0001 \
	energyDiffThreshold  1e-06 \
	nEnergyDiff          2 \
	alphaTstart          1 \
	alphaTmin            1e-10 \
	updateTestStepSize   yes \
	alphaTreduceFactor   0.1 \
	alphaTincreaseFactor 3 \
	nAlphaAdjustMax      3 \
	wolfeEnergy          0.0001 \
	wolfeGradient        0.9 \
	fdTest               no
kpoint   0.000000000000   0.000000000000   0.000000000000  1.00000000000000
kpoint-folding 12 12 1 
latt-move-scale 1 1 1
latt-scale 4 4 1 
lattice  \
	   4.727486978767153   -2.363743489383575    0.000000000000000  \
	  -0.000000000000000    4.094123819672498    0.000000000000000  \
	   0.000000000000000    0.000000000000000   40.000000000000000 
lattice-minimize  \
	dirUpdateScheme      L-BFGS \
	linminMethod         DirUpdateRecommended \
	nIterations          0 \
	history              15 \
	knormThreshold       0 \
	energyDiffThreshold  1e-06 \
	nEnergyDiff          2 \
	alphaTstart          1 \
	alphaTmin            1e-10 \
	updateTestStepSize   yes \
	alphaTreduceFactor   0.1 \
	alphaTincreaseFactor 3 \
	nAlphaAdjustMax      3 \
	wolfeEnergy          0.0001 \
	wolfeGradient        0.9 \
	fdTest               no
lcao-params -1 1e-06 1e-05
pcm-variant GLSSA13
spintype z-spin
subspace-rotation-factor 1 yes
symmetries automatic
symmetry-threshold 0.0001



---------- Setting up symmetries ----------

Found 24 point-group symmetries of the bravais lattice
Found 24 space-group symmetries with basis
Applied RMS atom displacement 0 bohrs to make symmetries exact.

---------- Initializing the Grid ----------
R = 
[      18.9099     -9.45497            0  ]
[            0      16.3765            0  ]
[            0            0           40  ]
unit cell volume = 12387.1
G =
[   0.332269   0.191835         -0  ]
[          0   0.383671         -0  ]
[         -0         -0    0.15708  ]
Minimum fftbox size, Smin = [  80  80  164  ]
Chosen fftbox size, S = [  80  80  168  ]

---------- Exchange Correlation functional ----------
Initalized PBE GGA exchange.
Initalized PBE GGA correlation.

---------- Setting up pseudopotentials ----------
Width of ionic core gaussian charges (only for fluid interactions / plotting) set to 0

Reading pseudopotential file '/home/gridsan/aligho/DFT/build-Nov24/pseudopotentials/SG15/K_ONCV_PBE.upf':
  'K' pseudopotential, 'PBE' functional
  Generated using ONCVPSP code by D. R. Hamann
  Author: Martin Schlipf and Francois Gygi  Date: 150915.
  9 valence electrons, 3 orbitals, 6 projectors, 2222 radial grid points, with lMax = 2
  Transforming local potential to a uniform radial grid of dG=0.02 with 1489 points.
  Transforming nonlocal projectors to a uniform radial grid of dG=0.02 with 432 points.
    3S    l: 0   occupation:  2.0   eigenvalue: -1.298836
    3P    l: 1   occupation:  6.0   eigenvalue: -0.691386
    4S    l: 0   occupation:  1.0   eigenvalue: -0.085223
  Transforming atomic orbitals to a uniform radial grid of dG=0.02 with 432 points.
  Core radius for overlap checks: 2.06 bohrs.
  Reading pulay file /home/gridsan/aligho/DFT/build-Nov24/pseudopotentials/SG15/K_ONCV_PBE.pulay ... using dE_dnG = -1.597219e-05 computed for Ecut = 20.

Initialized 1 species with 1 total atoms.

Folded 1 k-points by 12x12x1 to 144 k-points.

---------- Setting up k-points, bands, fillings ----------
Reduced to 19 k-points under symmetry. 
Computing the number of bands and number of electrons
Calculating initial fillings.
nElectrons:   9.000000   nBands: 6   nStates: 38

----- Setting up reduced wavefunction bases (one per k-point) -----
average nbasis = 52924.021 , ideal nbasis = 52918.836

---------- Setting up coulomb interaction ----------
Initialized slab truncation along lattice direction 001

---------- Setting up 2D ewald sum ----------
Optimum gaussian width for ewald sums = 10.498040 bohr.
Real space sums over 289 unit cells with max indices [  8  8  0  ]
Reciprocal space sums over 81 terms with max indices [  4  4  0  ]

---------- Allocating electronic variables ----------
Initializing wave functions:  linear combination of atomic orbitals
Note: number of bands (6) exceeds available atomic orbitals (5)
K pseudo-atom occupations:   s ( 2 1 )  p ( 6 )
[d-4-6-3:97395] 18 more processes have sent help message help-mpi-common-cuda.txt / dlopen failed
[d-4-6-3:97395] Set MCA parameter "orte_base_help_aggregate" to 0 to see all help / error messages
[d-4-6-3:97395] 18 more processes have sent help message help-mpi-btl-openib-cpc-base.txt / no cpcs for port
	FillingsUpdate:  mu: -0.085751897  nElectrons: 9.000000  magneticMoment: [ Abs: 0.12000  Tot: -0.12000 ]
LCAOMinimize: Iter:   0  F: -28.3773989127272266  |grad|_K:  3.883e-06  alpha:  1.000e+00
	FillingsUpdate:  mu: -0.085751085  nElectrons: 9.000000  magneticMoment: [ Abs: 0.12000  Tot: -0.12000 ]
LCAOMinimize: Iter:   1  F: -28.3773989229213157  |grad|_K:  1.613e-08  alpha:  9.886e-01  linmin: -6.906e-03  cgtest:  3.019e-01  t[s]:     15.16
LCAOMinimize: Encountered beta<0, resetting CG.
LCAOMinimize: 	Step increased F by 1.669775e-13, reducing alpha to 5.320828e-02.
	FillingsUpdate:  mu: -0.085751085  nElectrons: 9.000000  magneticMoment: [ Abs: 0.12000  Tot: -0.12000 ]
LCAOMinimize: Iter:   2  F: -28.3773989229214152  |grad|_K:  1.527e-08  alpha:  5.321e-02  linmin: -1.410e-02  cgtest:  1.000e+00  t[s]:     21.62
LCAOMinimize: Encountered beta<0, resetting CG.
LCAOMinimize: Converged (|Delta F|<1.000000e-06 for 2 iters).


---- Citations for features of the code used in this run ----

   Software package:
      R. Sundararaman, K. Letchworth-Weaver, K.A. Schwarz, D. Gunceler, Y. Ozhabes and T.A. Arias, 'JDFTx: software for joint density-functional theory', SoftwareX 6, 278 (2017)

   gga-PBE exchange-correlation functional:
      J.P. Perdew, K. Burke and M. Ernzerhof, Phys. Rev. Lett. 77, 3865 (1996)

   Pseudopotentials:
      M Schlipf and F Gygi, Comput. Phys. Commun. 196, 36 (2015)

   Truncated Coulomb potentials:
      R. Sundararaman and T.A. Arias, Phys. Rev. B 87, 165122 (2013)

This list may not be complete. Please suggest additional citations or
report any other bugs at https://github.com/shankar1729/jdftx/issues

Initialization completed successfully at t[s]:     21.89


-------- Electronic minimization -----------
Will mix electronic density at each iteration.
	FillingsUpdate:  mu: -0.085751085  nElectrons: 9.000000  magneticMoment: [ Abs: 0.12000  Tot: -0.12000 ]
	FillingsUpdate:  mu: -0.085822049  nElectrons: 9.000000  magneticMoment: [ Abs: 0.12000  Tot: -0.12000 ]
SCF: Cycle:  0   F: -28.377480711018723   dF: -8.179e-05   |Residual|: 5.702e-04   |deigs|: 1.761e-01  t[s]:     30.15
	FillingsUpdate:  mu: -0.085858892  nElectrons: 9.000000  magneticMoment: [ Abs: 0.12016  Tot: -0.12000 ]
SCF: Cycle:  1   F: -28.377481651763457   dF: -9.407e-07   |Residual|: 4.070e-04   |deigs|: 4.518e-03  t[s]:     36.69
	FillingsUpdate:  mu: -0.085916005  nElectrons: 9.000000  magneticMoment: [ Abs: 0.12022  Tot: -0.12000 ]
SCF: Cycle:  2   F: -28.377481979490096   dF: -3.277e-07   |Residual|: 3.142e-04   |deigs|: 1.763e-03  t[s]:     43.21
	FillingsUpdate:  mu: -0.086011420  nElectrons: 9.000000  magneticMoment: [ Abs: 0.12035  Tot: -0.12000 ]
SCF: Cycle:  3   F: -28.377482305033787   dF: -3.255e-07   |Residual|: 2.101e-04   |deigs|: 6.878e-04  t[s]:     49.99
	FillingsUpdate:  mu: -0.086101646  nElectrons: 9.000000  magneticMoment: [ Abs: 0.12033  Tot: -0.12000 ]
SCF: Cycle:  4   F: -28.377482627714798   dF: -3.227e-07   |Residual|: 1.305e-04   |deigs|: 6.266e-04  t[s]:     56.81
	FillingsUpdate:  mu: -0.086134604  nElectrons: 9.000000  magneticMoment: [ Abs: 0.12041  Tot: -0.12000 ]
SCF: Cycle:  5   F: -28.377482812848651   dF: -1.851e-07   |Residual|: 9.821e-05   |deigs|: 5.907e-04  t[s]:     63.76
	FillingsUpdate:  mu: -0.086136191  nElectrons: 9.000000  magneticMoment: [ Abs: 0.12035  Tot: -0.12000 ]
SCF: Cycle:  6   F: -28.377482970629185   dF: -1.578e-07   |Residual|: 5.803e-05   |deigs|: 5.132e-04  t[s]:     70.80
	FillingsUpdate:  mu: -0.086127308  nElectrons: 9.000000  magneticMoment: [ Abs: 0.12032  Tot: -0.12000 ]
SCF: Cycle:  7   F: -28.377483042316168   dF: -7.169e-08   |Residual|: 4.400e-05   |deigs|: 4.120e-04  t[s]:     77.86
	FillingsUpdate:  mu: -0.086110697  nElectrons: 9.000000  magneticMoment: [ Abs: 0.12030  Tot: -0.12000 ]
SCF: Cycle:  8   F: -28.377483080431649   dF: -3.812e-08   |Residual|: 2.776e-05   |deigs|: 2.095e-04  t[s]:     85.18
	FillingsUpdate:  mu: -0.086099101  nElectrons: 9.000000  magneticMoment: [ Abs: 0.12027  Tot: -0.12000 ]
SCF: Cycle:  9   F: -28.377483098937802   dF: -1.851e-08   |Residual|: 2.241e-05   |deigs|: 8.978e-05  t[s]:     92.54
	FillingsUpdate:  mu: -0.086089553  nElectrons: 9.000000  magneticMoment: [ Abs: 0.12029  Tot: -0.12000 ]
SCF: Cycle: 10   F: -28.377483092879082   dF: +6.059e-09   |Residual|: 1.945e-05   |deigs|: 4.156e-05  t[s]:    100.03
	FillingsUpdate:  mu: -0.086073974  nElectrons: 9.000000  magneticMoment: [ Abs: 0.12033  Tot: -0.12000 ]
SCF: Cycle: 11   F: -28.377483074462681   dF: +1.842e-08   |Residual|: 1.749e-05   |deigs|: 4.475e-05  t[s]:    107.56
	FillingsUpdate:  mu: -0.086060455  nElectrons: 9.000000  magneticMoment: [ Abs: 0.12030  Tot: -0.12000 ]
SCF: Cycle: 12   F: -28.377483071553346   dF: +2.909e-09   |Residual|: 1.565e-05   |deigs|: 6.978e-05  t[s]:    115.09
	FillingsUpdate:  mu: -0.086045851  nElectrons: 9.000000  magneticMoment: [ Abs: 0.12028  Tot: -0.12000 ]
SCF: Cycle: 13   F: -28.377483081226135   dF: -9.673e-09   |Residual|: 1.363e-05   |deigs|: 9.022e-05  t[s]:    122.53
	FillingsUpdate:  mu: -0.086034939  nElectrons: 9.000000  magneticMoment: [ Abs: 0.12028  Tot: -0.12000 ]
SCF: Cycle: 14   F: -28.377483073645287   dF: +7.581e-09   |Residual|: 1.290e-05   |deigs|: 1.004e-04  t[s]:    129.97
	FillingsUpdate:  mu: -0.086015918  nElectrons: 9.000000  magneticMoment: [ Abs: 0.12027  Tot: -0.12000 ]
SCF: Cycle: 15   F: -28.377483058649464   dF: +1.500e-08   |Residual|: 1.193e-05   |deigs|: 9.563e-05  t[s]:    137.45
	FillingsUpdate:  mu: -0.085999353  nElectrons: 9.000000  magneticMoment: [ Abs: 0.12028  Tot: -0.12000 ]
SCF: Cycle: 16   F: -28.377483064308489   dF: -5.659e-09   |Residual|: 1.097e-05   |deigs|: 8.741e-05  t[s]:    144.80
	FillingsUpdate:  mu: -0.085988440  nElectrons: 9.000000  magneticMoment: [ Abs: 0.12026  Tot: -0.12000 ]
SCF: Cycle: 17   F: -28.377483067768370   dF: -3.460e-09   |Residual|: 9.427e-06   |deigs|: 6.057e-05  t[s]:    152.25
SCF: Converged (|Delta E|<1.000000e-08 for 2 iters).


# Ionic positions in lattice coordinates:
ion K   0.000000000000000   0.000000000000000   0.000000000000000 0

# Forces in Lattice coordinates:
force K  -0.000000000000000   0.000000000000000   0.000000000000000 0

# Energy components:
   Eewald =       -9.0240130501663280
       EH =       13.7551723580947485
     Eloc =      -35.9640063739588669
      Enl =       -2.7673771445624524
   Epulay =        0.0000000066859396
      Exc =       -4.2386460957066490
       KE =        9.8613881910613408
-------------------------------------
     Etot =      -28.3774821085522682
       TS =        0.0000009592161026
-------------------------------------
        F =      -28.3774830677683703

IonicMinimize: Iter:   0  F: -28.377483067768370  |grad|_K:  0.000e+00  t[s]:    152.67
IonicMinimize: Converged (|grad|_K<1.000000e-04).

#--- Lowdin population analysis ---
# oxidation-state K +0.001
# magnetic-moments K -0.120

End date and time: Sat Feb  5 23:42:47 2022  (Duration: 0-0:02:32.73)
Done!
