The alkali metal is K
scale=2
magnetization=-0.94
--------------------------------------------------------------------------
The library attempted to open the following supporting CUDA libraries,
but each of them failed.  CUDA-aware support is disabled.
libcuda.so.1: cannot open shared object file: No such file or directory
libcuda.dylib: cannot open shared object file: No such file or directory
/usr/lib64/libcuda.so.1: cannot open shared object file: No such file or directory
/usr/lib64/libcuda.dylib: cannot open shared object file: No such file or directory
If you are not interested in CUDA-aware support, then run with
--mca opal_warn_on_missing_libcuda 0 to suppress this message.  If you are interested
in CUDA-aware support, then try setting LD_LIBRARY_PATH to the location
of libcuda.so.1 to get passed this issue.
--------------------------------------------------------------------------
--------------------------------------------------------------------------
No OpenFabrics connection schemes reported that they were able to be
used on a specific port.  As such, the openib BTL (OpenFabrics
support) will be disabled for this port.

  Local host:           d-3-13-4
  Local device:         mlx5_1
  Local port:           1
  CPCs attempted:       rdmacm, udcm
--------------------------------------------------------------------------

*************** JDFTx 1.6.0 (git hash 42ebbcc2) ***************

Start date and time: Sat Feb  5 23:30:08 2022
Executable jdftx with command-line: -i Alkali.in
Running on hosts (process indices):  d-3-13-4 (0-18)
Divided in process groups (process indices):  0 (0)  1 (1)  2 (2)  3 (3)  4 (4)  5 (5)  6 (6)  7 (7)  8 (8)  9 (9)  10 (10)  11 (11)  12 (12)  13 (13)  14 (14)  15 (15)  16 (16)  17 (17)  18 (18)
Resource initialization completed at t[s]:      0.00
Run totals: 19 processes, 48 threads, 0 GPUs


Input parsed successfully to the following command list (including defaults):

basis kpoint-dependent
coords-type Lattice
core-overlap-check vector
coulomb-interaction Slab 001
davidson-band-ratio 1.1
dump End None
dump-name $INPUT.$VAR
elec-cutoff 20
elec-eigen-algo Davidson
elec-ex-corr gga-PBE
elec-initial-magnetization -0.940000 yes
elec-smearing Fermi 1e-05
electronic-minimize  \
	dirUpdateScheme      FletcherReeves \
	linminMethod         DirUpdateRecommended \
	nIterations          100 \
	history              15 \
	knormThreshold       0 \
	energyDiffThreshold  1e-08 \
	nEnergyDiff          2 \
	alphaTstart          1 \
	alphaTmin            1e-10 \
	updateTestStepSize   yes \
	alphaTreduceFactor   0.1 \
	alphaTincreaseFactor 3 \
	nAlphaAdjustMax      3 \
	wolfeEnergy          0.0001 \
	wolfeGradient        0.9 \
	fdTest               no
electronic-scf  \
	nIterations	10000 \
	energyDiffThreshold	1e-08 \
	residualThreshold	1e-07 \
	mixFraction	0.5 \
	qMetric	0.8 \
	history	10 \
	nEigSteps	2 \
	eigDiffThreshold	1e-08 \
	mixedVariable	Density \
	qKerker	0.8 \
	qKappa	-1 \
	verbose	no \
	mixFractionMag	1.5
exchange-regularization WignerSeitzTruncated
fluid None
fluid-ex-corr (null) lda-PZ
fluid-gummel-loop 10 1.000000e-05
fluid-minimize  \
	dirUpdateScheme      PolakRibiere \
	linminMethod         DirUpdateRecommended \
	nIterations          100 \
	history              15 \
	knormThreshold       0 \
	energyDiffThreshold  0 \
	nEnergyDiff          2 \
	alphaTstart          1 \
	alphaTmin            1e-10 \
	updateTestStepSize   yes \
	alphaTreduceFactor   0.1 \
	alphaTincreaseFactor 3 \
	nAlphaAdjustMax      3 \
	wolfeEnergy          0.0001 \
	wolfeGradient        0.9 \
	fdTest               no
fluid-solvent H2O 55.338 ScalarEOS \
	epsBulk 78.4 \
	pMol 0.92466 \
	epsInf 1.77 \
	Pvap 1.06736e-10 \
	sigmaBulk 4.62e-05 \
	Rvdw 2.61727 \
	Res 1.42 \
	tauNuc 343133 \
	poleEl 15 7 1
forces-output-coords Positions
ion K   0.000000000000000   0.000000000000000   0.000000000000000 0
ion-species SG15/$ID_ONCV_PBE.upf
ion-width 0
ionic-minimize  \
	dirUpdateScheme      L-BFGS \
	linminMethod         DirUpdateRecommended \
	nIterations          0 \
	history              15 \
	knormThreshold       0.0001 \
	energyDiffThreshold  1e-06 \
	nEnergyDiff          2 \
	alphaTstart          1 \
	alphaTmin            1e-10 \
	updateTestStepSize   yes \
	alphaTreduceFactor   0.1 \
	alphaTincreaseFactor 3 \
	nAlphaAdjustMax      3 \
	wolfeEnergy          0.0001 \
	wolfeGradient        0.9 \
	fdTest               no
kpoint   0.000000000000   0.000000000000   0.000000000000  1.00000000000000
kpoint-folding 12 12 1 
latt-move-scale 1 1 1
latt-scale 2 2 1 
lattice  \
	   4.727486978767153   -2.363743489383575    0.000000000000000  \
	  -0.000000000000000    4.094123819672498    0.000000000000000  \
	   0.000000000000000    0.000000000000000   40.000000000000000 
lattice-minimize  \
	dirUpdateScheme      L-BFGS \
	linminMethod         DirUpdateRecommended \
	nIterations          0 \
	history              15 \
	knormThreshold       0 \
	energyDiffThreshold  1e-06 \
	nEnergyDiff          2 \
	alphaTstart          1 \
	alphaTmin            1e-10 \
	updateTestStepSize   yes \
	alphaTreduceFactor   0.1 \
	alphaTincreaseFactor 3 \
	nAlphaAdjustMax      3 \
	wolfeEnergy          0.0001 \
	wolfeGradient        0.9 \
	fdTest               no
lcao-params -1 1e-06 1e-05
pcm-variant GLSSA13
spintype z-spin
subspace-rotation-factor 1 yes
symmetries automatic
symmetry-threshold 0.0001



---------- Setting up symmetries ----------

Found 24 point-group symmetries of the bravais lattice
Found 24 space-group symmetries with basis
Applied RMS atom displacement 0 bohrs to make symmetries exact.

---------- Initializing the Grid ----------
R = 
[      9.45497     -4.72749            0  ]
[            0      8.18825            0  ]
[            0            0           40  ]
unit cell volume = 3096.79
G =
[   0.664538   0.383671         -0  ]
[          0   0.767342         -0  ]
[         -0         -0    0.15708  ]
Minimum fftbox size, Smin = [  40  40  164  ]
Chosen fftbox size, S = [  40  40  168  ]

---------- Exchange Correlation functional ----------
Initalized PBE GGA exchange.
Initalized PBE GGA correlation.

---------- Setting up pseudopotentials ----------
Width of ionic core gaussian charges (only for fluid interactions / plotting) set to 0

Reading pseudopotential file '/home/gridsan/aligho/DFT/build-Nov24/pseudopotentials/SG15/K_ONCV_PBE.upf':
  'K' pseudopotential, 'PBE' functional
  Generated using ONCVPSP code by D. R. Hamann
  Author: Martin Schlipf and Francois Gygi  Date: 150915.
  9 valence electrons, 3 orbitals, 6 projectors, 2222 radial grid points, with lMax = 2
  Transforming local potential to a uniform radial grid of dG=0.02 with 1489 points.
  Transforming nonlocal projectors to a uniform radial grid of dG=0.02 with 432 points.
    3S    l: 0   occupation:  2.0   eigenvalue: -1.298836
    3P    l: 1   occupation:  6.0   eigenvalue: -0.691386
    4S    l: 0   occupation:  1.0   eigenvalue: -0.085223
  Transforming atomic orbitals to a uniform radial grid of dG=0.02 with 432 points.
  Core radius for overlap checks: 2.06 bohrs.
  Reading pulay file /home/gridsan/aligho/DFT/build-Nov24/pseudopotentials/SG15/K_ONCV_PBE.pulay ... using dE_dnG = -1.597219e-05 computed for Ecut = 20.

Initialized 1 species with 1 total atoms.

Folded 1 k-points by 12x12x1 to 144 k-points.

---------- Setting up k-points, bands, fillings ----------
Reduced to 19 k-points under symmetry. 
Computing the number of bands and number of electrons
Calculating initial fillings.
nElectrons:   9.000000   nBands: 6   nStates: 38

----- Setting up reduced wavefunction bases (one per k-point) -----
average nbasis = 13230.521 , ideal nbasis = 13229.709

---------- Setting up coulomb interaction ----------
Initialized slab truncation along lattice direction 001

---------- Setting up 2D ewald sum ----------
Optimum gaussian width for ewald sums = 5.249020 bohr.
Real space sums over 289 unit cells with max indices [  8  8  0  ]
Reciprocal space sums over 81 terms with max indices [  4  4  0  ]

---------- Allocating electronic variables ----------
Initializing wave functions:  linear combination of atomic orbitals
Note: number of bands (6) exceeds available atomic orbitals (5)
K pseudo-atom occupations:   s ( 2 1 )  p ( 6 )
	FillingsUpdate:  mu: -0.094394959  nElectrons: 9.000000  magneticMoment: [ Abs: 0.94000  Tot: -0.94000 ]
LCAOMinimize: Iter:   0  F: -28.3795232092977905  |grad|_K:  4.956e-06  alpha:  1.000e+00
[d-3-13-4:48710] 18 more processes have sent help message help-mpi-common-cuda.txt / dlopen failed
[d-3-13-4:48710] Set MCA parameter "orte_base_help_aggregate" to 0 to see all help / error messages
[d-3-13-4:48710] 18 more processes have sent help message help-mpi-btl-openib-cpc-base.txt / no cpcs for port
	FillingsUpdate:  mu: -0.094393813  nElectrons: 9.000000  magneticMoment: [ Abs: 0.94000  Tot: -0.94000 ]
LCAOMinimize: Iter:   1  F: -28.3795232259082475  |grad|_K:  4.359e-08  alpha:  9.887e-01  linmin: -3.207e-03  cgtest:  8.639e-02  t[s]:      4.85
LCAOMinimize: Encountered beta<0, resetting CG.
	FillingsUpdate:  mu: -0.094393839  nElectrons: 9.000000  magneticMoment: [ Abs: 0.94000  Tot: -0.94000 ]
LCAOMinimize: Iter:   2  F: -28.3795232259094625  |grad|_K:  2.030e-08  alpha:  1.459e+00  linmin:  5.280e-02  cgtest: -9.996e-01  t[s]:      6.03
LCAOMinimize: Converged (|Delta F|<1.000000e-06 for 2 iters).


---- Citations for features of the code used in this run ----

   Software package:
      R. Sundararaman, K. Letchworth-Weaver, K.A. Schwarz, D. Gunceler, Y. Ozhabes and T.A. Arias, 'JDFTx: software for joint density-functional theory', SoftwareX 6, 278 (2017)

   gga-PBE exchange-correlation functional:
      J.P. Perdew, K. Burke and M. Ernzerhof, Phys. Rev. Lett. 77, 3865 (1996)

   Pseudopotentials:
      M Schlipf and F Gygi, Comput. Phys. Commun. 196, 36 (2015)

   Truncated Coulomb potentials:
      R. Sundararaman and T.A. Arias, Phys. Rev. B 87, 165122 (2013)

This list may not be complete. Please suggest additional citations or
report any other bugs at https://github.com/shankar1729/jdftx/issues

Initialization completed successfully at t[s]:      6.12


-------- Electronic minimization -----------
Will mix electronic density at each iteration.
	FillingsUpdate:  mu: -0.094393839  nElectrons: 9.000000  magneticMoment: [ Abs: 0.94000  Tot: -0.94000 ]
	FillingsUpdate:  mu: -0.106549895  nElectrons: 9.000000  magneticMoment: [ Abs: 0.94000  Tot: -0.94000 ]
SCF: Cycle:  0   F: -28.390722897092175   dF: -1.120e-02   |Residual|: 1.746e-02   |deigs|: 1.732e-01  t[s]:      8.50
	FillingsUpdate:  mu: -0.106598567  nElectrons: 9.000000  magneticMoment: [ Abs: 0.94000  Tot: -0.94000 ]
SCF: Cycle:  1   F: -28.391622725229496   dF: -8.998e-04   |Residual|: 1.359e-02   |deigs|: 7.253e-03  t[s]:     10.31
	FillingsUpdate:  mu: -0.106840735  nElectrons: 9.000000  magneticMoment: [ Abs: 0.94237  Tot: -0.94000 ]
SCF: Cycle:  2   F: -28.391783947116270   dF: -1.612e-04   |Residual|: 8.619e-03   |deigs|: 4.609e-03  t[s]:     12.18
	FillingsUpdate:  mu: -0.106308780  nElectrons: 9.000000  magneticMoment: [ Abs: 0.94000  Tot: -0.94000 ]
SCF: Cycle:  3   F: -28.391926059596493   dF: -1.421e-04   |Residual|: 4.941e-03   |deigs|: 4.675e-03  t[s]:     14.06
	FillingsUpdate:  mu: -0.105296541  nElectrons: 9.000000  magneticMoment: [ Abs: 0.94001  Tot: -0.94000 ]
SCF: Cycle:  4   F: -28.391992070879290   dF: -6.601e-05   |Residual|: 2.556e-03   |deigs|: 3.037e-03  t[s]:     15.98
	FillingsUpdate:  mu: -0.103156257  nElectrons: 9.000000  magneticMoment: [ Abs: 0.94007  Tot: -0.94000 ]
SCF: Cycle:  5   F: -28.392023034452244   dF: -3.096e-05   |Residual|: 2.120e-03   |deigs|: 2.210e-03  t[s]:     18.00
	FillingsUpdate:  mu: -0.101525159  nElectrons: 9.000000  magneticMoment: [ Abs: 0.94358  Tot: -0.94000 ]
SCF: Cycle:  6   F: -28.392061022051493   dF: -3.799e-05   |Residual|: 1.556e-03   |deigs|: 2.874e-03  t[s]:     19.94
	FillingsUpdate:  mu: -0.100270882  nElectrons: 9.000000  magneticMoment: [ Abs: 0.94409  Tot: -0.94000 ]
SCF: Cycle:  7   F: -28.392085909639093   dF: -2.489e-05   |Residual|: 1.280e-03   |deigs|: 3.054e-03  t[s]:     21.92
	FillingsUpdate:  mu: -0.098763747  nElectrons: 9.000000  magneticMoment: [ Abs: 0.94255  Tot: -0.94000 ]
SCF: Cycle:  8   F: -28.392109355349845   dF: -2.345e-05   |Residual|: 9.993e-04   |deigs|: 1.724e-03  t[s]:     23.90
	FillingsUpdate:  mu: -0.098481399  nElectrons: 9.000000  magneticMoment: [ Abs: 0.94011  Tot: -0.94000 ]
SCF: Cycle:  9   F: -28.392128560455895   dF: -1.921e-05   |Residual|: 7.378e-04   |deigs|: 6.390e-04  t[s]:     25.92
	FillingsUpdate:  mu: -0.097394090  nElectrons: 9.000000  magneticMoment: [ Abs: 0.94183  Tot: -0.94000 ]
SCF: Cycle: 10   F: -28.392139945591627   dF: -1.139e-05   |Residual|: 6.890e-04   |deigs|: 1.042e-03  t[s]:     27.94
	FillingsUpdate:  mu: -0.096547086  nElectrons: 9.000000  magneticMoment: [ Abs: 0.94323  Tot: -0.94000 ]
SCF: Cycle: 11   F: -28.392146801400965   dF: -6.856e-06   |Residual|: 5.706e-04   |deigs|: 9.505e-04  t[s]:     29.95
	FillingsUpdate:  mu: -0.096363006  nElectrons: 9.000000  magneticMoment: [ Abs: 0.94329  Tot: -0.94000 ]
SCF: Cycle: 12   F: -28.392149819649916   dF: -3.018e-06   |Residual|: 4.912e-04   |deigs|: 6.750e-04  t[s]:     32.06
	FillingsUpdate:  mu: -0.095431687  nElectrons: 9.000000  magneticMoment: [ Abs: 0.94383  Tot: -0.94000 ]
SCF: Cycle: 13   F: -28.392152475923133   dF: -2.656e-06   |Residual|: 4.210e-04   |deigs|: 1.163e-03  t[s]:     34.17
	FillingsUpdate:  mu: -0.093959792  nElectrons: 9.000000  magneticMoment: [ Abs: 0.94319  Tot: -0.94000 ]
SCF: Cycle: 14   F: -28.392154788261958   dF: -2.312e-06   |Residual|: 4.073e-04   |deigs|: 1.681e-03  t[s]:     36.20
	FillingsUpdate:  mu: -0.092772989  nElectrons: 9.000000  magneticMoment: [ Abs: 0.94217  Tot: -0.94000 ]
SCF: Cycle: 15   F: -28.392157174752032   dF: -2.386e-06   |Residual|: 3.737e-04   |deigs|: 1.148e-03  t[s]:     38.29
	FillingsUpdate:  mu: -0.091599795  nElectrons: 9.000000  magneticMoment: [ Abs: 0.94173  Tot: -0.94000 ]
SCF: Cycle: 16   F: -28.392167115910244   dF: -9.941e-06   |Residual|: 3.836e-04   |deigs|: 1.370e-03  t[s]:     40.37
	FillingsUpdate:  mu: -0.092312781  nElectrons: 9.000000  magneticMoment: [ Abs: 0.94109  Tot: -0.94000 ]
SCF: Cycle: 17   F: -28.392168776001608   dF: -1.660e-06   |Residual|: 2.514e-04   |deigs|: 8.094e-04  t[s]:     42.49
	FillingsUpdate:  mu: -0.092177141  nElectrons: 9.000000  magneticMoment: [ Abs: 0.94074  Tot: -0.94000 ]
SCF: Cycle: 18   F: -28.392169682375357   dF: -9.064e-07   |Residual|: 2.013e-04   |deigs|: 2.879e-04  t[s]:     44.49
	FillingsUpdate:  mu: -0.091769207  nElectrons: 9.000000  magneticMoment: [ Abs: 0.94113  Tot: -0.94000 ]
SCF: Cycle: 19   F: -28.392170582312737   dF: -8.999e-07   |Residual|: 1.163e-04   |deigs|: 5.344e-04  t[s]:     46.52
	FillingsUpdate:  mu: -0.091744250  nElectrons: 9.000000  magneticMoment: [ Abs: 0.94123  Tot: -0.94000 ]
SCF: Cycle: 20   F: -28.392170868527860   dF: -2.862e-07   |Residual|: 7.438e-05   |deigs|: 2.246e-04  t[s]:     48.54
	FillingsUpdate:  mu: -0.091784153  nElectrons: 9.000000  magneticMoment: [ Abs: 0.94097  Tot: -0.94000 ]
SCF: Cycle: 21   F: -28.392171015565779   dF: -1.470e-07   |Residual|: 4.794e-05   |deigs|: 2.287e-04  t[s]:     50.55
	FillingsUpdate:  mu: -0.091853377  nElectrons: 9.000000  magneticMoment: [ Abs: 0.94082  Tot: -0.94000 ]
SCF: Cycle: 22   F: -28.392171108146989   dF: -9.258e-08   |Residual|: 3.348e-05   |deigs|: 2.088e-04  t[s]:     52.57
	FillingsUpdate:  mu: -0.091841661  nElectrons: 9.000000  magneticMoment: [ Abs: 0.94065  Tot: -0.94000 ]
SCF: Cycle: 23   F: -28.392171205048275   dF: -9.690e-08   |Residual|: 3.010e-05   |deigs|: 1.616e-04  t[s]:     54.65
	FillingsUpdate:  mu: -0.091781177  nElectrons: 9.000000  magneticMoment: [ Abs: 0.94047  Tot: -0.94000 ]
SCF: Cycle: 24   F: -28.392171235235331   dF: -3.019e-08   |Residual|: 2.418e-05   |deigs|: 1.441e-04  t[s]:     56.70
	FillingsUpdate:  mu: -0.091767305  nElectrons: 9.000000  magneticMoment: [ Abs: 0.94025  Tot: -0.94000 ]
SCF: Cycle: 25   F: -28.392171263078538   dF: -2.784e-08   |Residual|: 1.828e-05   |deigs|: 8.659e-05  t[s]:     58.73
	FillingsUpdate:  mu: -0.091772363  nElectrons: 9.000000  magneticMoment: [ Abs: 0.94015  Tot: -0.94000 ]
SCF: Cycle: 26   F: -28.392171279094192   dF: -1.602e-08   |Residual|: 1.312e-05   |deigs|: 6.116e-05  t[s]:     60.74
	FillingsUpdate:  mu: -0.091776429  nElectrons: 9.000000  magneticMoment: [ Abs: 0.94011  Tot: -0.94000 ]
SCF: Cycle: 27   F: -28.392171289530488   dF: -1.044e-08   |Residual|: 8.231e-06   |deigs|: 3.740e-05  t[s]:     62.83
	FillingsUpdate:  mu: -0.091780001  nElectrons: 9.000000  magneticMoment: [ Abs: 0.94009  Tot: -0.94000 ]
SCF: Cycle: 28   F: -28.392171297629876   dF: -8.099e-09   |Residual|: 4.046e-06   |deigs|: 2.164e-05  t[s]:     64.87
	FillingsUpdate:  mu: -0.091778345  nElectrons: 9.000000  magneticMoment: [ Abs: 0.94008  Tot: -0.94000 ]
SCF: Cycle: 29   F: -28.392171300380415   dF: -2.751e-09   |Residual|: 2.093e-06   |deigs|: 1.508e-05  t[s]:     66.88
SCF: Converged (|Delta E|<1.000000e-08 for 2 iters).


# Ionic positions in lattice coordinates:
ion K   0.000000000000000   0.000000000000000   0.000000000000000 0

# Forces in Lattice coordinates:
force K  -0.000000000000000   0.000000000000000   0.000000000000000 0

# Energy components:
   Eewald =      -18.0480261003326561
       EH =        4.9044796404824194
     Eloc =      -18.0970595917164623
      Enl =       -2.7811911448567956
   Epulay =        0.0000000041876954
      Exc =       -4.2714774415523200
       KE =        9.9011036633767482
-------------------------------------
     Etot =      -28.3921709704113745
       TS =        0.0000003299690406
-------------------------------------
        F =      -28.3921713003804150

IonicMinimize: Iter:   0  F: -28.392171300380415  |grad|_K:  0.000e+00  t[s]:     67.00
IonicMinimize: Converged (|grad|_K<1.000000e-04).

#--- Lowdin population analysis ---
# oxidation-state K +0.203
# magnetic-moments K -0.738

End date and time: Sat Feb  5 23:31:15 2022  (Duration: 0-0:01:07.03)
Done!
scale=3
magnetization=-0.94
--------------------------------------------------------------------------
The library attempted to open the following supporting CUDA libraries,
but each of them failed.  CUDA-aware support is disabled.
libcuda.so.1: cannot open shared object file: No such file or directory
libcuda.dylib: cannot open shared object file: No such file or directory
/usr/lib64/libcuda.so.1: cannot open shared object file: No such file or directory
/usr/lib64/libcuda.dylib: cannot open shared object file: No such file or directory
If you are not interested in CUDA-aware support, then run with
--mca opal_warn_on_missing_libcuda 0 to suppress this message.  If you are interested
in CUDA-aware support, then try setting LD_LIBRARY_PATH to the location
of libcuda.so.1 to get passed this issue.
--------------------------------------------------------------------------
--------------------------------------------------------------------------
No OpenFabrics connection schemes reported that they were able to be
used on a specific port.  As such, the openib BTL (OpenFabrics
support) will be disabled for this port.

  Local host:           d-3-13-4
  Local device:         mlx5_1
  Local port:           1
  CPCs attempted:       rdmacm, udcm
--------------------------------------------------------------------------

*************** JDFTx 1.6.0 (git hash 42ebbcc2) ***************

Start date and time: Sat Feb  5 23:31:16 2022
Executable jdftx with command-line: -i Alkali.in
Running on hosts (process indices):  d-3-13-4 (0-18)
Divided in process groups (process indices):  0 (0)  1 (1)  2 (2)  3 (3)  4 (4)  5 (5)  6 (6)  7 (7)  8 (8)  9 (9)  10 (10)  11 (11)  12 (12)  13 (13)  14 (14)  15 (15)  16 (16)  17 (17)  18 (18)
Resource initialization completed at t[s]:      0.00
Run totals: 19 processes, 48 threads, 0 GPUs


Input parsed successfully to the following command list (including defaults):

basis kpoint-dependent
coords-type Lattice
core-overlap-check vector
coulomb-interaction Slab 001
davidson-band-ratio 1.1
dump End None
dump-name $INPUT.$VAR
elec-cutoff 20
elec-eigen-algo Davidson
elec-ex-corr gga-PBE
elec-initial-magnetization -0.940000 yes
elec-smearing Fermi 1e-05
electronic-minimize  \
	dirUpdateScheme      FletcherReeves \
	linminMethod         DirUpdateRecommended \
	nIterations          100 \
	history              15 \
	knormThreshold       0 \
	energyDiffThreshold  1e-08 \
	nEnergyDiff          2 \
	alphaTstart          1 \
	alphaTmin            1e-10 \
	updateTestStepSize   yes \
	alphaTreduceFactor   0.1 \
	alphaTincreaseFactor 3 \
	nAlphaAdjustMax      3 \
	wolfeEnergy          0.0001 \
	wolfeGradient        0.9 \
	fdTest               no
electronic-scf  \
	nIterations	10000 \
	energyDiffThreshold	1e-08 \
	residualThreshold	1e-07 \
	mixFraction	0.5 \
	qMetric	0.8 \
	history	10 \
	nEigSteps	2 \
	eigDiffThreshold	1e-08 \
	mixedVariable	Density \
	qKerker	0.8 \
	qKappa	-1 \
	verbose	no \
	mixFractionMag	1.5
exchange-regularization WignerSeitzTruncated
fluid None
fluid-ex-corr (null) lda-PZ
fluid-gummel-loop 10 1.000000e-05
fluid-minimize  \
	dirUpdateScheme      PolakRibiere \
	linminMethod         DirUpdateRecommended \
	nIterations          100 \
	history              15 \
	knormThreshold       0 \
	energyDiffThreshold  0 \
	nEnergyDiff          2 \
	alphaTstart          1 \
	alphaTmin            1e-10 \
	updateTestStepSize   yes \
	alphaTreduceFactor   0.1 \
	alphaTincreaseFactor 3 \
	nAlphaAdjustMax      3 \
	wolfeEnergy          0.0001 \
	wolfeGradient        0.9 \
	fdTest               no
fluid-solvent H2O 55.338 ScalarEOS \
	epsBulk 78.4 \
	pMol 0.92466 \
	epsInf 1.77 \
	Pvap 1.06736e-10 \
	sigmaBulk 4.62e-05 \
	Rvdw 2.61727 \
	Res 1.42 \
	tauNuc 343133 \
	poleEl 15 7 1
forces-output-coords Positions
ion K   0.000000000000000   0.000000000000000   0.000000000000000 0
ion-species SG15/$ID_ONCV_PBE.upf
ion-width 0
ionic-minimize  \
	dirUpdateScheme      L-BFGS \
	linminMethod         DirUpdateRecommended \
	nIterations          0 \
	history              15 \
	knormThreshold       0.0001 \
	energyDiffThreshold  1e-06 \
	nEnergyDiff          2 \
	alphaTstart          1 \
	alphaTmin            1e-10 \
	updateTestStepSize   yes \
	alphaTreduceFactor   0.1 \
	alphaTincreaseFactor 3 \
	nAlphaAdjustMax      3 \
	wolfeEnergy          0.0001 \
	wolfeGradient        0.9 \
	fdTest               no
kpoint   0.000000000000   0.000000000000   0.000000000000  1.00000000000000
kpoint-folding 12 12 1 
latt-move-scale 1 1 1
latt-scale 3 3 1 
lattice  \
	   4.727486978767153   -2.363743489383575    0.000000000000000  \
	  -0.000000000000000    4.094123819672498    0.000000000000000  \
	   0.000000000000000    0.000000000000000   40.000000000000000 
lattice-minimize  \
	dirUpdateScheme      L-BFGS \
	linminMethod         DirUpdateRecommended \
	nIterations          0 \
	history              15 \
	knormThreshold       0 \
	energyDiffThreshold  1e-06 \
	nEnergyDiff          2 \
	alphaTstart          1 \
	alphaTmin            1e-10 \
	updateTestStepSize   yes \
	alphaTreduceFactor   0.1 \
	alphaTincreaseFactor 3 \
	nAlphaAdjustMax      3 \
	wolfeEnergy          0.0001 \
	wolfeGradient        0.9 \
	fdTest               no
lcao-params -1 1e-06 1e-05
pcm-variant GLSSA13
spintype z-spin
subspace-rotation-factor 1 yes
symmetries automatic
symmetry-threshold 0.0001



---------- Setting up symmetries ----------

Found 24 point-group symmetries of the bravais lattice
Found 24 space-group symmetries with basis
Applied RMS atom displacement 0 bohrs to make symmetries exact.

---------- Initializing the Grid ----------
R = 
[      14.1825     -7.09123            0  ]
[            0      12.2824            0  ]
[            0            0           40  ]
unit cell volume = 6967.77
G =
[   0.443025   0.255781         -0  ]
[          0   0.511561         -0  ]
[         -0         -0    0.15708  ]
Minimum fftbox size, Smin = [  60  60  164  ]
Chosen fftbox size, S = [  60  60  168  ]

---------- Exchange Correlation functional ----------
Initalized PBE GGA exchange.
Initalized PBE GGA correlation.

---------- Setting up pseudopotentials ----------
Width of ionic core gaussian charges (only for fluid interactions / plotting) set to 0

Reading pseudopotential file '/home/gridsan/aligho/DFT/build-Nov24/pseudopotentials/SG15/K_ONCV_PBE.upf':
  'K' pseudopotential, 'PBE' functional
  Generated using ONCVPSP code by D. R. Hamann
  Author: Martin Schlipf and Francois Gygi  Date: 150915.
  9 valence electrons, 3 orbitals, 6 projectors, 2222 radial grid points, with lMax = 2
  Transforming local potential to a uniform radial grid of dG=0.02 with 1489 points.
  Transforming nonlocal projectors to a uniform radial grid of dG=0.02 with 432 points.
    3S    l: 0   occupation:  2.0   eigenvalue: -1.298836
    3P    l: 1   occupation:  6.0   eigenvalue: -0.691386
    4S    l: 0   occupation:  1.0   eigenvalue: -0.085223
  Transforming atomic orbitals to a uniform radial grid of dG=0.02 with 432 points.
  Core radius for overlap checks: 2.06 bohrs.
  Reading pulay file /home/gridsan/aligho/DFT/build-Nov24/pseudopotentials/SG15/K_ONCV_PBE.pulay ... using dE_dnG = -1.597219e-05 computed for Ecut = 20.

Initialized 1 species with 1 total atoms.

Folded 1 k-points by 12x12x1 to 144 k-points.

---------- Setting up k-points, bands, fillings ----------
Reduced to 19 k-points under symmetry. 
Computing the number of bands and number of electrons
Calculating initial fillings.
nElectrons:   9.000000   nBands: 6   nStates: 38

----- Setting up reduced wavefunction bases (one per k-point) -----
average nbasis = 29766.104 , ideal nbasis = 29766.845

---------- Setting up coulomb interaction ----------
Initialized slab truncation along lattice direction 001

---------- Setting up 2D ewald sum ----------
Optimum gaussian width for ewald sums = 7.873530 bohr.
Real space sums over 289 unit cells with max indices [  8  8  0  ]
Reciprocal space sums over 81 terms with max indices [  4  4  0  ]

---------- Allocating electronic variables ----------
Initializing wave functions:  linear combination of atomic orbitals
Note: number of bands (6) exceeds available atomic orbitals (5)
K pseudo-atom occupations:   s ( 2 1 )  p ( 6 )
[d-3-13-4:66565] 18 more processes have sent help message help-mpi-common-cuda.txt / dlopen failed
[d-3-13-4:66565] Set MCA parameter "orte_base_help_aggregate" to 0 to see all help / error messages
[d-3-13-4:66565] 18 more processes have sent help message help-mpi-btl-openib-cpc-base.txt / no cpcs for port
	FillingsUpdate:  mu: -0.086534424  nElectrons: 9.000000  magneticMoment: [ Abs: 0.94000  Tot: -0.94000 ]
LCAOMinimize: Iter:   0  F: -28.3816230666168856  |grad|_K:  3.013e-06  alpha:  1.000e+00
	FillingsUpdate:  mu: -0.086534270  nElectrons: 9.000000  magneticMoment: [ Abs: 0.94000  Tot: -0.94000 ]
LCAOMinimize: Iter:   1  F: -28.3816230728178205  |grad|_K:  1.426e-08  alpha:  9.984e-01  linmin:  3.446e-04  cgtest: -6.113e-03  t[s]:      8.70
LCAOMinimize: 	Step increased F by 1.882938e-13, reducing alpha to 2.168833e-01.
	FillingsUpdate:  mu: -0.086534271  nElectrons: 9.000000  magneticMoment: [ Abs: 0.94000  Tot: -0.94000 ]
LCAOMinimize: Iter:   2  F: -28.3816230728183143  |grad|_K:  1.114e-08  alpha:  2.169e-01  linmin: -8.270e-02  cgtest:  1.000e+00  t[s]:     12.40
LCAOMinimize: Encountered beta<0, resetting CG.
LCAOMinimize: Converged (|Delta F|<1.000000e-06 for 2 iters).


---- Citations for features of the code used in this run ----

   Software package:
      R. Sundararaman, K. Letchworth-Weaver, K.A. Schwarz, D. Gunceler, Y. Ozhabes and T.A. Arias, 'JDFTx: software for joint density-functional theory', SoftwareX 6, 278 (2017)

   gga-PBE exchange-correlation functional:
      J.P. Perdew, K. Burke and M. Ernzerhof, Phys. Rev. Lett. 77, 3865 (1996)

   Pseudopotentials:
      M Schlipf and F Gygi, Comput. Phys. Commun. 196, 36 (2015)

   Truncated Coulomb potentials:
      R. Sundararaman and T.A. Arias, Phys. Rev. B 87, 165122 (2013)

This list may not be complete. Please suggest additional citations or
report any other bugs at https://github.com/shankar1729/jdftx/issues

Initialization completed successfully at t[s]:     12.57


-------- Electronic minimization -----------
Will mix electronic density at each iteration.
	FillingsUpdate:  mu: -0.086534271  nElectrons: 9.000000  magneticMoment: [ Abs: 0.94000  Tot: -0.94000 ]
	FillingsUpdate:  mu: -0.087107818  nElectrons: 9.000000  magneticMoment: [ Abs: 0.94000  Tot: -0.94000 ]
SCF: Cycle:  0   F: -28.382513868623995   dF: -8.908e-04   |Residual|: 2.919e-03   |deigs|: 1.728e-01  t[s]:     17.33
	FillingsUpdate:  mu: -0.087068047  nElectrons: 9.000000  magneticMoment: [ Abs: 0.94121  Tot: -0.94000 ]
SCF: Cycle:  1   F: -28.382534229164847   dF: -2.036e-05   |Residual|: 1.577e-03   |deigs|: 5.289e-03  t[s]:     21.05
	FillingsUpdate:  mu: -0.087152634  nElectrons: 9.000000  magneticMoment: [ Abs: 0.94194  Tot: -0.94000 ]
SCF: Cycle:  2   F: -28.382545348616809   dF: -1.112e-05   |Residual|: 1.248e-03   |deigs|: 3.975e-03  t[s]:     24.82
	FillingsUpdate:  mu: -0.086688737  nElectrons: 9.000000  magneticMoment: [ Abs: 0.94250  Tot: -0.94000 ]
SCF: Cycle:  3   F: -28.382554516860470   dF: -9.168e-06   |Residual|: 9.137e-04   |deigs|: 1.549e-03  t[s]:     28.68
	FillingsUpdate:  mu: -0.087177229  nElectrons: 9.000000  magneticMoment: [ Abs: 0.94203  Tot: -0.94000 ]
SCF: Cycle:  4   F: -28.382569443778820   dF: -1.493e-05   |Residual|: 6.357e-04   |deigs|: 1.122e-03  t[s]:     32.58
	FillingsUpdate:  mu: -0.087925889  nElectrons: 9.000000  magneticMoment: [ Abs: 0.94222  Tot: -0.94000 ]
SCF: Cycle:  5   F: -28.382581153454336   dF: -1.171e-05   |Residual|: 3.924e-04   |deigs|: 9.231e-04  t[s]:     36.58
	FillingsUpdate:  mu: -0.087780663  nElectrons: 9.000000  magneticMoment: [ Abs: 0.94191  Tot: -0.94000 ]
SCF: Cycle:  6   F: -28.382586555259582   dF: -5.402e-06   |Residual|: 2.727e-04   |deigs|: 1.714e-03  t[s]:     40.60
	FillingsUpdate:  mu: -0.087673059  nElectrons: 9.000000  magneticMoment: [ Abs: 0.94226  Tot: -0.94000 ]
SCF: Cycle:  7   F: -28.382588384334525   dF: -1.829e-06   |Residual|: 2.067e-04   |deigs|: 7.919e-04  t[s]:     44.71
	FillingsUpdate:  mu: -0.087343133  nElectrons: 9.000000  magneticMoment: [ Abs: 0.94234  Tot: -0.94000 ]
SCF: Cycle:  8   F: -28.382590757320621   dF: -2.373e-06   |Residual|: 1.609e-04   |deigs|: 4.085e-04  t[s]:     48.89
	FillingsUpdate:  mu: -0.087168173  nElectrons: 9.000000  magneticMoment: [ Abs: 0.94265  Tot: -0.94000 ]
SCF: Cycle:  9   F: -28.382590528056593   dF: +2.293e-07   |Residual|: 1.508e-04   |deigs|: 2.336e-04  t[s]:     53.10
	FillingsUpdate:  mu: -0.087116404  nElectrons: 9.000000  magneticMoment: [ Abs: 0.94227  Tot: -0.94000 ]
SCF: Cycle: 10   F: -28.382590810222204   dF: -2.822e-07   |Residual|: 1.233e-04   |deigs|: 1.970e-04  t[s]:     57.36
	FillingsUpdate:  mu: -0.087095407  nElectrons: 9.000000  magneticMoment: [ Abs: 0.94320  Tot: -0.94000 ]
SCF: Cycle: 11   F: -28.382590399760694   dF: +4.105e-07   |Residual|: 1.063e-04   |deigs|: 2.106e-04  t[s]:     61.62
	FillingsUpdate:  mu: -0.087158352  nElectrons: 9.000000  magneticMoment: [ Abs: 0.94276  Tot: -0.94000 ]
SCF: Cycle: 12   F: -28.382591860924798   dF: -1.461e-06   |Residual|: 8.372e-05   |deigs|: 1.593e-04  t[s]:     65.93
	FillingsUpdate:  mu: -0.087025731  nElectrons: 9.000000  magneticMoment: [ Abs: 0.94287  Tot: -0.94000 ]
SCF: Cycle: 13   F: -28.382592557783692   dF: -6.969e-07   |Residual|: 8.212e-05   |deigs|: 1.629e-04  t[s]:     70.08
	FillingsUpdate:  mu: -0.086889205  nElectrons: 9.000000  magneticMoment: [ Abs: 0.94289  Tot: -0.94000 ]
SCF: Cycle: 14   F: -28.382592519755022   dF: +3.803e-08   |Residual|: 8.527e-05   |deigs|: 3.407e-04  t[s]:     74.36
	FillingsUpdate:  mu: -0.086614517  nElectrons: 9.000000  magneticMoment: [ Abs: 0.94268  Tot: -0.94000 ]
SCF: Cycle: 15   F: -28.382592395397722   dF: +1.244e-07   |Residual|: 7.147e-05   |deigs|: 3.801e-04  t[s]:     78.68
	FillingsUpdate:  mu: -0.086530262  nElectrons: 9.000000  magneticMoment: [ Abs: 0.94259  Tot: -0.94000 ]
SCF: Cycle: 16   F: -28.382592659128282   dF: -2.637e-07   |Residual|: 6.018e-05   |deigs|: 2.124e-04  t[s]:     82.92
	FillingsUpdate:  mu: -0.086397830  nElectrons: 9.000000  magneticMoment: [ Abs: 0.94231  Tot: -0.94000 ]
SCF: Cycle: 17   F: -28.382592993623987   dF: -3.345e-07   |Residual|: 5.516e-05   |deigs|: 1.517e-04  t[s]:     87.15
	FillingsUpdate:  mu: -0.086373818  nElectrons: 9.000000  magneticMoment: [ Abs: 0.94208  Tot: -0.94000 ]
SCF: Cycle: 18   F: -28.382593242617162   dF: -2.490e-07   |Residual|: 3.862e-05   |deigs|: 5.305e-05  t[s]:     91.54
	FillingsUpdate:  mu: -0.086391051  nElectrons: 9.000000  magneticMoment: [ Abs: 0.94213  Tot: -0.94000 ]
SCF: Cycle: 19   F: -28.382593268643710   dF: -2.603e-08   |Residual|: 2.765e-05   |deigs|: 3.050e-05  t[s]:     95.80
	FillingsUpdate:  mu: -0.086413199  nElectrons: 9.000000  magneticMoment: [ Abs: 0.94207  Tot: -0.94000 ]
SCF: Cycle: 20   F: -28.382593459501209   dF: -1.909e-07   |Residual|: 1.986e-05   |deigs|: 5.418e-05  t[s]:    100.09
	FillingsUpdate:  mu: -0.086421229  nElectrons: 9.000000  magneticMoment: [ Abs: 0.94207  Tot: -0.94000 ]
SCF: Cycle: 21   F: -28.382593532137712   dF: -7.264e-08   |Residual|: 1.545e-05   |deigs|: 1.730e-05  t[s]:    104.14
	FillingsUpdate:  mu: -0.086421372  nElectrons: 9.000000  magneticMoment: [ Abs: 0.94207  Tot: -0.94000 ]
SCF: Cycle: 22   F: -28.382593531523423   dF: +6.143e-10   |Residual|: 9.201e-06   |deigs|: 7.731e-06  t[s]:    108.32
	FillingsUpdate:  mu: -0.086423052  nElectrons: 9.000000  magneticMoment: [ Abs: 0.94210  Tot: -0.94000 ]
SCF: Cycle: 23   F: -28.382593552535347   dF: -2.101e-08   |Residual|: 6.537e-06   |deigs|: 1.049e-05  t[s]:    112.56
	FillingsUpdate:  mu: -0.086424650  nElectrons: 9.000000  magneticMoment: [ Abs: 0.94213  Tot: -0.94000 ]
SCF: Cycle: 24   F: -28.382593566320107   dF: -1.378e-08   |Residual|: 4.908e-06   |deigs|: 7.810e-06  t[s]:    116.81
	FillingsUpdate:  mu: -0.086425419  nElectrons: 9.000000  magneticMoment: [ Abs: 0.94213  Tot: -0.94000 ]
SCF: Cycle: 25   F: -28.382593567171959   dF: -8.519e-10   |Residual|: 3.634e-06   |deigs|: 7.409e-06  t[s]:    120.98
	FillingsUpdate:  mu: -0.086424379  nElectrons: 9.000000  magneticMoment: [ Abs: 0.94211  Tot: -0.94000 ]
SCF: Cycle: 26   F: -28.382593575560847   dF: -8.389e-09   |Residual|: 2.239e-06   |deigs|: 2.631e-06  t[s]:    125.30
SCF: Converged (|Delta E|<1.000000e-08 for 2 iters).


# Ionic positions in lattice coordinates:
ion K   0.000000000000000   0.000000000000000   0.000000000000000 0

# Forces in Lattice coordinates:
force K   0.000000000000000   0.000000000000000   0.000000000000000 0

# Energy components:
   Eewald =      -12.0320174002217755
       EH =       10.7729643261504222
     Eloc =      -29.9743842161926040
      Enl =       -2.7687270957329804
   Epulay =       -0.0000000016982517
      Exc =       -4.2457944133706649
       KE =        9.8653659211251110
-------------------------------------
     Etot =      -28.3825928799407450
       TS =        0.0000006956201006
-------------------------------------
        F =      -28.3825935755608469

IonicMinimize: Iter:   0  F: -28.382593575560847  |grad|_K:  0.000e+00  t[s]:    125.57
IonicMinimize: Converged (|grad|_K<1.000000e-04).

#--- Lowdin population analysis ---
# oxidation-state K +0.018
# magnetic-moments K -0.923

End date and time: Sat Feb  5 23:33:22 2022  (Duration: 0-0:02:05.61)
Done!
scale=4
magnetization=-0.94
--------------------------------------------------------------------------
The library attempted to open the following supporting CUDA libraries,
but each of them failed.  CUDA-aware support is disabled.
libcuda.so.1: cannot open shared object file: No such file or directory
libcuda.dylib: cannot open shared object file: No such file or directory
/usr/lib64/libcuda.so.1: cannot open shared object file: No such file or directory
/usr/lib64/libcuda.dylib: cannot open shared object file: No such file or directory
If you are not interested in CUDA-aware support, then run with
--mca opal_warn_on_missing_libcuda 0 to suppress this message.  If you are interested
in CUDA-aware support, then try setting LD_LIBRARY_PATH to the location
of libcuda.so.1 to get passed this issue.
--------------------------------------------------------------------------
--------------------------------------------------------------------------
No OpenFabrics connection schemes reported that they were able to be
used on a specific port.  As such, the openib BTL (OpenFabrics
support) will be disabled for this port.

  Local host:           d-3-13-4
  Local device:         mlx5_1
  Local port:           1
  CPCs attempted:       rdmacm, udcm
--------------------------------------------------------------------------

*************** JDFTx 1.6.0 (git hash 42ebbcc2) ***************

Start date and time: Sat Feb  5 23:33:23 2022
Executable jdftx with command-line: -i Alkali.in
Running on hosts (process indices):  d-3-13-4 (0-18)
Divided in process groups (process indices):  0 (0)  1 (1)  2 (2)  3 (3)  4 (4)  5 (5)  6 (6)  7 (7)  8 (8)  9 (9)  10 (10)  11 (11)  12 (12)  13 (13)  14 (14)  15 (15)  16 (16)  17 (17)  18 (18)
Resource initialization completed at t[s]:      0.00
Run totals: 19 processes, 48 threads, 0 GPUs


Input parsed successfully to the following command list (including defaults):

basis kpoint-dependent
coords-type Lattice
core-overlap-check vector
coulomb-interaction Slab 001
davidson-band-ratio 1.1
dump End None
dump-name $INPUT.$VAR
elec-cutoff 20
elec-eigen-algo Davidson
elec-ex-corr gga-PBE
elec-initial-magnetization -0.940000 yes
elec-smearing Fermi 1e-05
electronic-minimize  \
	dirUpdateScheme      FletcherReeves \
	linminMethod         DirUpdateRecommended \
	nIterations          100 \
	history              15 \
	knormThreshold       0 \
	energyDiffThreshold  1e-08 \
	nEnergyDiff          2 \
	alphaTstart          1 \
	alphaTmin            1e-10 \
	updateTestStepSize   yes \
	alphaTreduceFactor   0.1 \
	alphaTincreaseFactor 3 \
	nAlphaAdjustMax      3 \
	wolfeEnergy          0.0001 \
	wolfeGradient        0.9 \
	fdTest               no
electronic-scf  \
	nIterations	10000 \
	energyDiffThreshold	1e-08 \
	residualThreshold	1e-07 \
	mixFraction	0.5 \
	qMetric	0.8 \
	history	10 \
	nEigSteps	2 \
	eigDiffThreshold	1e-08 \
	mixedVariable	Density \
	qKerker	0.8 \
	qKappa	-1 \
	verbose	no \
	mixFractionMag	1.5
exchange-regularization WignerSeitzTruncated
fluid None
fluid-ex-corr (null) lda-PZ
fluid-gummel-loop 10 1.000000e-05
fluid-minimize  \
	dirUpdateScheme      PolakRibiere \
	linminMethod         DirUpdateRecommended \
	nIterations          100 \
	history              15 \
	knormThreshold       0 \
	energyDiffThreshold  0 \
	nEnergyDiff          2 \
	alphaTstart          1 \
	alphaTmin            1e-10 \
	updateTestStepSize   yes \
	alphaTreduceFactor   0.1 \
	alphaTincreaseFactor 3 \
	nAlphaAdjustMax      3 \
	wolfeEnergy          0.0001 \
	wolfeGradient        0.9 \
	fdTest               no
fluid-solvent H2O 55.338 ScalarEOS \
	epsBulk 78.4 \
	pMol 0.92466 \
	epsInf 1.77 \
	Pvap 1.06736e-10 \
	sigmaBulk 4.62e-05 \
	Rvdw 2.61727 \
	Res 1.42 \
	tauNuc 343133 \
	poleEl 15 7 1
forces-output-coords Positions
ion K   0.000000000000000   0.000000000000000   0.000000000000000 0
ion-species SG15/$ID_ONCV_PBE.upf
ion-width 0
ionic-minimize  \
	dirUpdateScheme      L-BFGS \
	linminMethod         DirUpdateRecommended \
	nIterations          0 \
	history              15 \
	knormThreshold       0.0001 \
	energyDiffThreshold  1e-06 \
	nEnergyDiff          2 \
	alphaTstart          1 \
	alphaTmin            1e-10 \
	updateTestStepSize   yes \
	alphaTreduceFactor   0.1 \
	alphaTincreaseFactor 3 \
	nAlphaAdjustMax      3 \
	wolfeEnergy          0.0001 \
	wolfeGradient        0.9 \
	fdTest               no
kpoint   0.000000000000   0.000000000000   0.000000000000  1.00000000000000
kpoint-folding 12 12 1 
latt-move-scale 1 1 1
latt-scale 4 4 1 
lattice  \
	   4.727486978767153   -2.363743489383575    0.000000000000000  \
	  -0.000000000000000    4.094123819672498    0.000000000000000  \
	   0.000000000000000    0.000000000000000   40.000000000000000 
lattice-minimize  \
	dirUpdateScheme      L-BFGS \
	linminMethod         DirUpdateRecommended \
	nIterations          0 \
	history              15 \
	knormThreshold       0 \
	energyDiffThreshold  1e-06 \
	nEnergyDiff          2 \
	alphaTstart          1 \
	alphaTmin            1e-10 \
	updateTestStepSize   yes \
	alphaTreduceFactor   0.1 \
	alphaTincreaseFactor 3 \
	nAlphaAdjustMax      3 \
	wolfeEnergy          0.0001 \
	wolfeGradient        0.9 \
	fdTest               no
lcao-params -1 1e-06 1e-05
pcm-variant GLSSA13
spintype z-spin
subspace-rotation-factor 1 yes
symmetries automatic
symmetry-threshold 0.0001



---------- Setting up symmetries ----------

Found 24 point-group symmetries of the bravais lattice
Found 24 space-group symmetries with basis
Applied RMS atom displacement 0 bohrs to make symmetries exact.

---------- Initializing the Grid ----------
R = 
[      18.9099     -9.45497            0  ]
[            0      16.3765            0  ]
[            0            0           40  ]
unit cell volume = 12387.1
G =
[   0.332269   0.191835         -0  ]
[          0   0.383671         -0  ]
[         -0         -0    0.15708  ]
Minimum fftbox size, Smin = [  80  80  164  ]
Chosen fftbox size, S = [  80  80  168  ]

---------- Exchange Correlation functional ----------
Initalized PBE GGA exchange.
Initalized PBE GGA correlation.

---------- Setting up pseudopotentials ----------
Width of ionic core gaussian charges (only for fluid interactions / plotting) set to 0

Reading pseudopotential file '/home/gridsan/aligho/DFT/build-Nov24/pseudopotentials/SG15/K_ONCV_PBE.upf':
  'K' pseudopotential, 'PBE' functional
  Generated using ONCVPSP code by D. R. Hamann
  Author: Martin Schlipf and Francois Gygi  Date: 150915.
  9 valence electrons, 3 orbitals, 6 projectors, 2222 radial grid points, with lMax = 2
  Transforming local potential to a uniform radial grid of dG=0.02 with 1489 points.
  Transforming nonlocal projectors to a uniform radial grid of dG=0.02 with 432 points.
    3S    l: 0   occupation:  2.0   eigenvalue: -1.298836
    3P    l: 1   occupation:  6.0   eigenvalue: -0.691386
    4S    l: 0   occupation:  1.0   eigenvalue: -0.085223
  Transforming atomic orbitals to a uniform radial grid of dG=0.02 with 432 points.
  Core radius for overlap checks: 2.06 bohrs.
  Reading pulay file /home/gridsan/aligho/DFT/build-Nov24/pseudopotentials/SG15/K_ONCV_PBE.pulay ... using dE_dnG = -1.597219e-05 computed for Ecut = 20.

Initialized 1 species with 1 total atoms.

Folded 1 k-points by 12x12x1 to 144 k-points.

---------- Setting up k-points, bands, fillings ----------
Reduced to 19 k-points under symmetry. 
Computing the number of bands and number of electrons
Calculating initial fillings.
nElectrons:   9.000000   nBands: 6   nStates: 38

----- Setting up reduced wavefunction bases (one per k-point) -----
average nbasis = 52924.021 , ideal nbasis = 52918.836

---------- Setting up coulomb interaction ----------
Initialized slab truncation along lattice direction 001

---------- Setting up 2D ewald sum ----------
Optimum gaussian width for ewald sums = 10.498040 bohr.
Real space sums over 289 unit cells with max indices [  8  8  0  ]
Reciprocal space sums over 81 terms with max indices [  4  4  0  ]

---------- Allocating electronic variables ----------
Initializing wave functions:  linear combination of atomic orbitals
Note: number of bands (6) exceeds available atomic orbitals (5)
K pseudo-atom occupations:   s ( 2 1 )  p ( 6 )
[d-3-13-4:62809] 18 more processes have sent help message help-mpi-common-cuda.txt / dlopen failed
[d-3-13-4:62809] Set MCA parameter "orte_base_help_aggregate" to 0 to see all help / error messages
[d-3-13-4:62809] 18 more processes have sent help message help-mpi-btl-openib-cpc-base.txt / no cpcs for port
	FillingsUpdate:  mu: -0.083111217  nElectrons: 9.000000  magneticMoment: [ Abs: 0.94000  Tot: -0.94000 ]
LCAOMinimize: Iter:   0  F: -28.3810578028794573  |grad|_K:  5.322e-07  alpha:  1.000e+00
	FillingsUpdate:  mu: -0.083111110  nElectrons: 9.000000  magneticMoment: [ Abs: 0.94000  Tot: -0.94000 ]
LCAOMinimize: Iter:   1  F: -28.3810578030720180  |grad|_K:  2.670e-09  alpha:  9.958e-01  linmin:  1.462e-03  cgtest: -3.998e-02  t[s]:     14.96
LCAOMinimize: 	Wrong curvature in test step, increasing alphaT to 2.987471e+00.
	FillingsUpdate:  mu: -0.083111111  nElectrons: 9.000000  magneticMoment: [ Abs: 0.94000  Tot: -0.94000 ]
LCAOMinimize: Iter:   2  F: -28.3810578030724940  |grad|_K:  1.068e-10  alpha: -1.037e-02  linmin:  1.261e-03  cgtest:  1.327e-02  t[s]:     18.95
LCAOMinimize: Converged (|Delta F|<1.000000e-06 for 2 iters).


---- Citations for features of the code used in this run ----

   Software package:
      R. Sundararaman, K. Letchworth-Weaver, K.A. Schwarz, D. Gunceler, Y. Ozhabes and T.A. Arias, 'JDFTx: software for joint density-functional theory', SoftwareX 6, 278 (2017)

   gga-PBE exchange-correlation functional:
      J.P. Perdew, K. Burke and M. Ernzerhof, Phys. Rev. Lett. 77, 3865 (1996)

   Pseudopotentials:
      M Schlipf and F Gygi, Comput. Phys. Commun. 196, 36 (2015)

   Truncated Coulomb potentials:
      R. Sundararaman and T.A. Arias, Phys. Rev. B 87, 165122 (2013)

This list may not be complete. Please suggest additional citations or
report any other bugs at https://github.com/shankar1729/jdftx/issues

Initialization completed successfully at t[s]:     19.21


-------- Electronic minimization -----------
Will mix electronic density at each iteration.
	FillingsUpdate:  mu: -0.083111111  nElectrons: 9.000000  magneticMoment: [ Abs: 0.94000  Tot: -0.94000 ]
	FillingsUpdate:  mu: -0.083334491  nElectrons: 9.000000  magneticMoment: [ Abs: 0.94000  Tot: -0.94000 ]
SCF: Cycle:  0   F: -28.381193850262449   dF: -1.360e-04   |Residual|: 2.160e-03   |deigs|: 1.618e-01  t[s]:     27.41
	FillingsUpdate:  mu: -0.083317343  nElectrons: 9.000000  magneticMoment: [ Abs: 0.94262  Tot: -0.94000 ]
SCF: Cycle:  1   F: -28.381196371274662   dF: -2.521e-06   |Residual|: 6.401e-04   |deigs|: 1.508e-02  t[s]:     33.82
	FillingsUpdate:  mu: -0.083198413  nElectrons: 9.000000  magneticMoment: [ Abs: 0.94235  Tot: -0.94000 ]
SCF: Cycle:  2   F: -28.381197180879756   dF: -8.096e-07   |Residual|: 4.736e-04   |deigs|: 3.047e-03  t[s]:     40.37
	FillingsUpdate:  mu: -0.083023064  nElectrons: 9.000000  magneticMoment: [ Abs: 0.94274  Tot: -0.94000 ]
SCF: Cycle:  3   F: -28.381197660543247   dF: -4.797e-07   |Residual|: 3.594e-04   |deigs|: 1.432e-03  t[s]:     47.00
	FillingsUpdate:  mu: -0.082746957  nElectrons: 9.000000  magneticMoment: [ Abs: 0.94244  Tot: -0.94000 ]
SCF: Cycle:  4   F: -28.381197271883636   dF: +3.887e-07   |Residual|: 2.094e-04   |deigs|: 6.600e-04  t[s]:     53.68
	FillingsUpdate:  mu: -0.082603907  nElectrons: 9.000000  magneticMoment: [ Abs: 0.94239  Tot: -0.94000 ]
SCF: Cycle:  5   F: -28.381197712091172   dF: -4.402e-07   |Residual|: 1.427e-04   |deigs|: 4.225e-04  t[s]:     60.51
	FillingsUpdate:  mu: -0.082511956  nElectrons: 9.000000  magneticMoment: [ Abs: 0.94240  Tot: -0.94000 ]
SCF: Cycle:  6   F: -28.381198105849020   dF: -3.938e-07   |Residual|: 9.457e-05   |deigs|: 2.719e-04  t[s]:     67.47
	FillingsUpdate:  mu: -0.082475301  nElectrons: 9.000000  magneticMoment: [ Abs: 0.94250  Tot: -0.94000 ]
SCF: Cycle:  7   F: -28.381198237232823   dF: -1.314e-07   |Residual|: 7.115e-05   |deigs|: 1.766e-04  t[s]:     74.51
	FillingsUpdate:  mu: -0.082457047  nElectrons: 9.000000  magneticMoment: [ Abs: 0.94243  Tot: -0.94000 ]
SCF: Cycle:  8   F: -28.381198254439269   dF: -1.721e-08   |Residual|: 5.381e-05   |deigs|: 1.461e-04  t[s]:     81.77
	FillingsUpdate:  mu: -0.082466772  nElectrons: 9.000000  magneticMoment: [ Abs: 0.94245  Tot: -0.94000 ]
SCF: Cycle:  9   F: -28.381198362331382   dF: -1.079e-07   |Residual|: 4.401e-05   |deigs|: 1.395e-04  t[s]:     89.05
	FillingsUpdate:  mu: -0.082453593  nElectrons: 9.000000  magneticMoment: [ Abs: 0.94251  Tot: -0.94000 ]
SCF: Cycle: 10   F: -28.381198349801000   dF: +1.253e-08   |Residual|: 3.838e-05   |deigs|: 9.013e-05  t[s]:     96.48
	FillingsUpdate:  mu: -0.082426764  nElectrons: 9.000000  magneticMoment: [ Abs: 0.94257  Tot: -0.94000 ]
SCF: Cycle: 11   F: -28.381198137600300   dF: +2.122e-07   |Residual|: 3.465e-05   |deigs|: 6.643e-05  t[s]:    103.86
	FillingsUpdate:  mu: -0.082392275  nElectrons: 9.000000  magneticMoment: [ Abs: 0.94260  Tot: -0.94000 ]
SCF: Cycle: 12   F: -28.381198252303129   dF: -1.147e-07   |Residual|: 2.767e-05   |deigs|: 6.267e-05  t[s]:    111.14
	FillingsUpdate:  mu: -0.082347837  nElectrons: 9.000000  magneticMoment: [ Abs: 0.94261  Tot: -0.94000 ]
SCF: Cycle: 13   F: -28.381198233221340   dF: +1.908e-08   |Residual|: 2.546e-05   |deigs|: 5.298e-05  t[s]:    118.53
	FillingsUpdate:  mu: -0.082317124  nElectrons: 9.000000  magneticMoment: [ Abs: 0.94261  Tot: -0.94000 ]
SCF: Cycle: 14   F: -28.381198282835062   dF: -4.961e-08   |Residual|: 2.369e-05   |deigs|: 5.213e-05  t[s]:    125.95
	FillingsUpdate:  mu: -0.082289102  nElectrons: 9.000000  magneticMoment: [ Abs: 0.94260  Tot: -0.94000 ]
SCF: Cycle: 15   F: -28.381198289730872   dF: -6.896e-09   |Residual|: 2.261e-05   |deigs|: 4.790e-05  t[s]:    133.33
	FillingsUpdate:  mu: -0.082282173  nElectrons: 9.000000  magneticMoment: [ Abs: 0.94260  Tot: -0.94000 ]
SCF: Cycle: 16   F: -28.381198293983225   dF: -4.252e-09   |Residual|: 1.762e-05   |deigs|: 5.657e-05  t[s]:    140.72
SCF: Converged (|Delta E|<1.000000e-08 for 2 iters).


# Ionic positions in lattice coordinates:
ion K   0.000000000000000   0.000000000000000   0.000000000000000 0

# Forces in Lattice coordinates:
force K   0.000000000000000   0.000000000000000   0.000000000000000 0

# Energy components:
   Eewald =       -9.0240130501663280
       EH =       13.7957834427645700
     Eloc =      -36.0076702735242122
      Enl =       -2.7665130345978195
   Epulay =        0.0000000066859396
      Exc =       -4.2471313259212033
       KE =        9.8683466364053238
-------------------------------------
     Etot =      -28.3811975983537330
       TS =        0.0000006956294904
-------------------------------------
        F =      -28.3811982939832248

IonicMinimize: Iter:   0  F: -28.381198293983225  |grad|_K:  0.000e+00  t[s]:    141.13
IonicMinimize: Converged (|grad|_K<1.000000e-04).

#--- Lowdin population analysis ---
# oxidation-state K +0.001
# magnetic-moments K -0.939

End date and time: Sat Feb  5 23:35:44 2022  (Duration: 0-0:02:21.19)
Done!
