The alkali metal is K
scale=2
magnetization=-0.86
--------------------------------------------------------------------------
The library attempted to open the following supporting CUDA libraries,
but each of them failed.  CUDA-aware support is disabled.
libcuda.so.1: cannot open shared object file: No such file or directory
libcuda.dylib: cannot open shared object file: No such file or directory
/usr/lib64/libcuda.so.1: cannot open shared object file: No such file or directory
/usr/lib64/libcuda.dylib: cannot open shared object file: No such file or directory
If you are not interested in CUDA-aware support, then run with
--mca opal_warn_on_missing_libcuda 0 to suppress this message.  If you are interested
in CUDA-aware support, then try setting LD_LIBRARY_PATH to the location
of libcuda.so.1 to get passed this issue.
--------------------------------------------------------------------------
--------------------------------------------------------------------------
No OpenFabrics connection schemes reported that they were able to be
used on a specific port.  As such, the openib BTL (OpenFabrics
support) will be disabled for this port.

  Local host:           d-4-7-2
  Local device:         mlx5_1
  Local port:           1
  CPCs attempted:       rdmacm, udcm
--------------------------------------------------------------------------

*************** JDFTx 1.6.0 (git hash 42ebbcc2) ***************

Start date and time: Sat Feb  5 23:30:08 2022
Executable jdftx with command-line: -i Alkali.in
Running on hosts (process indices):  d-4-7-2 (0-18)
Divided in process groups (process indices):  0 (0)  1 (1)  2 (2)  3 (3)  4 (4)  5 (5)  6 (6)  7 (7)  8 (8)  9 (9)  10 (10)  11 (11)  12 (12)  13 (13)  14 (14)  15 (15)  16 (16)  17 (17)  18 (18)
Resource initialization completed at t[s]:      0.00
Run totals: 19 processes, 48 threads, 0 GPUs


Input parsed successfully to the following command list (including defaults):

basis kpoint-dependent
coords-type Lattice
core-overlap-check vector
coulomb-interaction Slab 001
davidson-band-ratio 1.1
dump End None
dump-name $INPUT.$VAR
elec-cutoff 20
elec-eigen-algo Davidson
elec-ex-corr gga-PBE
elec-initial-magnetization -0.860000 yes
elec-smearing Fermi 1e-05
electronic-minimize  \
	dirUpdateScheme      FletcherReeves \
	linminMethod         DirUpdateRecommended \
	nIterations          100 \
	history              15 \
	knormThreshold       0 \
	energyDiffThreshold  1e-08 \
	nEnergyDiff          2 \
	alphaTstart          1 \
	alphaTmin            1e-10 \
	updateTestStepSize   yes \
	alphaTreduceFactor   0.1 \
	alphaTincreaseFactor 3 \
	nAlphaAdjustMax      3 \
	wolfeEnergy          0.0001 \
	wolfeGradient        0.9 \
	fdTest               no
electronic-scf  \
	nIterations	10000 \
	energyDiffThreshold	1e-08 \
	residualThreshold	1e-07 \
	mixFraction	0.5 \
	qMetric	0.8 \
	history	10 \
	nEigSteps	2 \
	eigDiffThreshold	1e-08 \
	mixedVariable	Density \
	qKerker	0.8 \
	qKappa	-1 \
	verbose	no \
	mixFractionMag	1.5
exchange-regularization WignerSeitzTruncated
fluid None
fluid-ex-corr (null) lda-PZ
fluid-gummel-loop 10 1.000000e-05
fluid-minimize  \
	dirUpdateScheme      PolakRibiere \
	linminMethod         DirUpdateRecommended \
	nIterations          100 \
	history              15 \
	knormThreshold       0 \
	energyDiffThreshold  0 \
	nEnergyDiff          2 \
	alphaTstart          1 \
	alphaTmin            1e-10 \
	updateTestStepSize   yes \
	alphaTreduceFactor   0.1 \
	alphaTincreaseFactor 3 \
	nAlphaAdjustMax      3 \
	wolfeEnergy          0.0001 \
	wolfeGradient        0.9 \
	fdTest               no
fluid-solvent H2O 55.338 ScalarEOS \
	epsBulk 78.4 \
	pMol 0.92466 \
	epsInf 1.77 \
	Pvap 1.06736e-10 \
	sigmaBulk 4.62e-05 \
	Rvdw 2.61727 \
	Res 1.42 \
	tauNuc 343133 \
	poleEl 15 7 1
forces-output-coords Positions
ion K   0.000000000000000   0.000000000000000   0.000000000000000 0
ion-species SG15/$ID_ONCV_PBE.upf
ion-width 0
ionic-minimize  \
	dirUpdateScheme      L-BFGS \
	linminMethod         DirUpdateRecommended \
	nIterations          0 \
	history              15 \
	knormThreshold       0.0001 \
	energyDiffThreshold  1e-06 \
	nEnergyDiff          2 \
	alphaTstart          1 \
	alphaTmin            1e-10 \
	updateTestStepSize   yes \
	alphaTreduceFactor   0.1 \
	alphaTincreaseFactor 3 \
	nAlphaAdjustMax      3 \
	wolfeEnergy          0.0001 \
	wolfeGradient        0.9 \
	fdTest               no
kpoint   0.000000000000   0.000000000000   0.000000000000  1.00000000000000
kpoint-folding 12 12 1 
latt-move-scale 1 1 1
latt-scale 2 2 1 
lattice  \
	   4.727486978767153   -2.363743489383575    0.000000000000000  \
	  -0.000000000000000    4.094123819672498    0.000000000000000  \
	   0.000000000000000    0.000000000000000   40.000000000000000 
lattice-minimize  \
	dirUpdateScheme      L-BFGS \
	linminMethod         DirUpdateRecommended \
	nIterations          0 \
	history              15 \
	knormThreshold       0 \
	energyDiffThreshold  1e-06 \
	nEnergyDiff          2 \
	alphaTstart          1 \
	alphaTmin            1e-10 \
	updateTestStepSize   yes \
	alphaTreduceFactor   0.1 \
	alphaTincreaseFactor 3 \
	nAlphaAdjustMax      3 \
	wolfeEnergy          0.0001 \
	wolfeGradient        0.9 \
	fdTest               no
lcao-params -1 1e-06 1e-05
pcm-variant GLSSA13
spintype z-spin
subspace-rotation-factor 1 yes
symmetries automatic
symmetry-threshold 0.0001



---------- Setting up symmetries ----------

Found 24 point-group symmetries of the bravais lattice
Found 24 space-group symmetries with basis
Applied RMS atom displacement 0 bohrs to make symmetries exact.

---------- Initializing the Grid ----------
R = 
[      9.45497     -4.72749            0  ]
[            0      8.18825            0  ]
[            0            0           40  ]
unit cell volume = 3096.79
G =
[   0.664538   0.383671         -0  ]
[          0   0.767342         -0  ]
[         -0         -0    0.15708  ]
Minimum fftbox size, Smin = [  40  40  164  ]
Chosen fftbox size, S = [  40  40  168  ]

---------- Exchange Correlation functional ----------
Initalized PBE GGA exchange.
Initalized PBE GGA correlation.

---------- Setting up pseudopotentials ----------
Width of ionic core gaussian charges (only for fluid interactions / plotting) set to 0

Reading pseudopotential file '/home/gridsan/aligho/DFT/build-Nov24/pseudopotentials/SG15/K_ONCV_PBE.upf':
  'K' pseudopotential, 'PBE' functional
  Generated using ONCVPSP code by D. R. Hamann
  Author: Martin Schlipf and Francois Gygi  Date: 150915.
  9 valence electrons, 3 orbitals, 6 projectors, 2222 radial grid points, with lMax = 2
  Transforming local potential to a uniform radial grid of dG=0.02 with 1489 points.
  Transforming nonlocal projectors to a uniform radial grid of dG=0.02 with 432 points.
    3S    l: 0   occupation:  2.0   eigenvalue: -1.298836
    3P    l: 1   occupation:  6.0   eigenvalue: -0.691386
    4S    l: 0   occupation:  1.0   eigenvalue: -0.085223
  Transforming atomic orbitals to a uniform radial grid of dG=0.02 with 432 points.
  Core radius for overlap checks: 2.06 bohrs.
  Reading pulay file /home/gridsan/aligho/DFT/build-Nov24/pseudopotentials/SG15/K_ONCV_PBE.pulay ... using dE_dnG = -1.597219e-05 computed for Ecut = 20.

Initialized 1 species with 1 total atoms.

Folded 1 k-points by 12x12x1 to 144 k-points.

---------- Setting up k-points, bands, fillings ----------
Reduced to 19 k-points under symmetry. 
Computing the number of bands and number of electrons
Calculating initial fillings.
nElectrons:   9.000000   nBands: 6   nStates: 38

----- Setting up reduced wavefunction bases (one per k-point) -----
average nbasis = 13230.521 , ideal nbasis = 13229.709

---------- Setting up coulomb interaction ----------
Initialized slab truncation along lattice direction 001

---------- Setting up 2D ewald sum ----------
Optimum gaussian width for ewald sums = 5.249020 bohr.
Real space sums over 289 unit cells with max indices [  8  8  0  ]
Reciprocal space sums over 81 terms with max indices [  4  4  0  ]

---------- Allocating electronic variables ----------
Initializing wave functions:  linear combination of atomic orbitals
Note: number of bands (6) exceeds available atomic orbitals (5)
K pseudo-atom occupations:   s ( 2 1 )  p ( 6 )
	FillingsUpdate:  mu: -0.092025883  nElectrons: 9.000000  magneticMoment: [ Abs: 0.86000  Tot: -0.86000 ]
LCAOMinimize: Iter:   0  F: -28.3826595395468573  |grad|_K:  1.026e-05  alpha:  1.000e+00
	FillingsUpdate:  mu: -0.092023278  nElectrons: 9.000000  magneticMoment: [ Abs: 0.86000  Tot: -0.86000 ]
LCAOMinimize: Iter:   1  F: -28.3826596105097977  |grad|_K:  8.743e-08  alpha:  9.853e-01  linmin: -9.603e-03  cgtest:  2.037e-01  t[s]:      4.71
LCAOMinimize: Encountered beta<0, resetting CG.
[d-4-7-2:73075] 18 more processes have sent help message help-mpi-common-cuda.txt / dlopen failed
[d-4-7-2:73075] Set MCA parameter "orte_base_help_aggregate" to 0 to see all help / error messages
[d-4-7-2:73075] 18 more processes have sent help message help-mpi-btl-openib-cpc-base.txt / no cpcs for port
	FillingsUpdate:  mu: -0.092023305  nElectrons: 9.000000  magneticMoment: [ Abs: 0.86000  Tot: -0.86000 ]
LCAOMinimize: Iter:   2  F: -28.3826596105153612  |grad|_K:  1.012e-09  alpha:  9.895e-01  linmin: -7.591e-02  cgtest:  8.629e-01  t[s]:      5.91
LCAOMinimize: Encountered beta<0, resetting CG.
LCAOMinimize: Converged (|Delta F|<1.000000e-06 for 2 iters).


---- Citations for features of the code used in this run ----

   Software package:
      R. Sundararaman, K. Letchworth-Weaver, K.A. Schwarz, D. Gunceler, Y. Ozhabes and T.A. Arias, 'JDFTx: software for joint density-functional theory', SoftwareX 6, 278 (2017)

   gga-PBE exchange-correlation functional:
      J.P. Perdew, K. Burke and M. Ernzerhof, Phys. Rev. Lett. 77, 3865 (1996)

   Pseudopotentials:
      M Schlipf and F Gygi, Comput. Phys. Commun. 196, 36 (2015)

   Truncated Coulomb potentials:
      R. Sundararaman and T.A. Arias, Phys. Rev. B 87, 165122 (2013)

This list may not be complete. Please suggest additional citations or
report any other bugs at https://github.com/shankar1729/jdftx/issues

Initialization completed successfully at t[s]:      6.00


-------- Electronic minimization -----------
Will mix electronic density at each iteration.
	FillingsUpdate:  mu: -0.092023305  nElectrons: 9.000000  magneticMoment: [ Abs: 0.86000  Tot: -0.86000 ]
	FillingsUpdate:  mu: -0.106029417  nElectrons: 9.000000  magneticMoment: [ Abs: 0.86000  Tot: -0.86000 ]
SCF: Cycle:  0   F: -28.393084296703648   dF: -1.042e-02   |Residual|: 1.643e-02   |deigs|: 1.730e-01  t[s]:      8.44
	FillingsUpdate:  mu: -0.108440239  nElectrons: 9.000000  magneticMoment: [ Abs: 0.86000  Tot: -0.86000 ]
SCF: Cycle:  1   F: -28.393684431504564   dF: -6.001e-04   |Residual|: 1.226e-02   |deigs|: 7.791e-03  t[s]:     10.23
	FillingsUpdate:  mu: -0.107399302  nElectrons: 9.000000  magneticMoment: [ Abs: 0.86297  Tot: -0.86000 ]
SCF: Cycle:  2   F: -28.393847516023097   dF: -1.631e-04   |Residual|: 7.836e-03   |deigs|: 4.718e-03  t[s]:     12.11
	FillingsUpdate:  mu: -0.108584605  nElectrons: 9.000000  magneticMoment: [ Abs: 0.86000  Tot: -0.86000 ]
SCF: Cycle:  3   F: -28.393960220680516   dF: -1.127e-04   |Residual|: 4.324e-03   |deigs|: 4.987e-03  t[s]:     13.97
	FillingsUpdate:  mu: -0.104216527  nElectrons: 9.000000  magneticMoment: [ Abs: 0.86002  Tot: -0.86000 ]
SCF: Cycle:  4   F: -28.394029889622804   dF: -6.967e-05   |Residual|: 2.397e-03   |deigs|: 4.084e-03  t[s]:     15.84
	FillingsUpdate:  mu: -0.102929985  nElectrons: 9.000000  magneticMoment: [ Abs: 0.86006  Tot: -0.86000 ]
SCF: Cycle:  5   F: -28.394057883616767   dF: -2.799e-05   |Residual|: 1.989e-03   |deigs|: 2.087e-03  t[s]:     17.73
	FillingsUpdate:  mu: -0.100446819  nElectrons: 9.000000  magneticMoment: [ Abs: 0.86317  Tot: -0.86000 ]
SCF: Cycle:  6   F: -28.394075290413461   dF: -1.741e-05   |Residual|: 1.463e-03   |deigs|: 2.964e-03  t[s]:     19.66
	FillingsUpdate:  mu: -0.097713644  nElectrons: 9.000000  magneticMoment: [ Abs: 0.86659  Tot: -0.86000 ]
SCF: Cycle:  7   F: -28.394090282711961   dF: -1.499e-05   |Residual|: 1.177e-03   |deigs|: 3.492e-03  t[s]:     21.63
	FillingsUpdate:  mu: -0.097487855  nElectrons: 9.000000  magneticMoment: [ Abs: 0.86166  Tot: -0.86000 ]
SCF: Cycle:  8   F: -28.394121705577131   dF: -3.142e-05   |Residual|: 9.142e-04   |deigs|: 9.595e-04  t[s]:     23.66
	FillingsUpdate:  mu: -0.096916516  nElectrons: 9.000000  magneticMoment: [ Abs: 0.86011  Tot: -0.86000 ]
SCF: Cycle:  9   F: -28.394134914438894   dF: -1.321e-05   |Residual|: 7.816e-04   |deigs|: 7.427e-04  t[s]:     25.72
	FillingsUpdate:  mu: -0.095722472  nElectrons: 9.000000  magneticMoment: [ Abs: 0.86215  Tot: -0.86000 ]
SCF: Cycle: 10   F: -28.394140198389508   dF: -5.284e-06   |Residual|: 6.386e-04   |deigs|: 1.173e-03  t[s]:     27.79
	FillingsUpdate:  mu: -0.094864714  nElectrons: 9.000000  magneticMoment: [ Abs: 0.86328  Tot: -0.86000 ]
SCF: Cycle: 11   F: -28.394144597338400   dF: -4.399e-06   |Residual|: 5.355e-04   |deigs|: 9.262e-04  t[s]:     29.82
	FillingsUpdate:  mu: -0.094395508  nElectrons: 9.000000  magneticMoment: [ Abs: 0.86336  Tot: -0.86000 ]
SCF: Cycle: 12   F: -28.394148561493267   dF: -3.964e-06   |Residual|: 5.119e-04   |deigs|: 7.579e-04  t[s]:     31.84
	FillingsUpdate:  mu: -0.093328445  nElectrons: 9.000000  magneticMoment: [ Abs: 0.86362  Tot: -0.86000 ]
SCF: Cycle: 13   F: -28.394152447594720   dF: -3.886e-06   |Residual|: 4.429e-04   |deigs|: 1.262e-03  t[s]:     33.92
	FillingsUpdate:  mu: -0.091897293  nElectrons: 9.000000  magneticMoment: [ Abs: 0.86251  Tot: -0.86000 ]
SCF: Cycle: 14   F: -28.394154682894825   dF: -2.235e-06   |Residual|: 4.092e-04   |deigs|: 1.430e-03  t[s]:     35.99
	FillingsUpdate:  mu: -0.090967217  nElectrons: 9.000000  magneticMoment: [ Abs: 0.86106  Tot: -0.86000 ]
SCF: Cycle: 15   F: -28.394156358324324   dF: -1.675e-06   |Residual|: 4.210e-04   |deigs|: 1.248e-03  t[s]:     38.11
	FillingsUpdate:  mu: -0.090042876  nElectrons: 9.000000  magneticMoment: [ Abs: 0.86162  Tot: -0.86000 ]
SCF: Cycle: 16   F: -28.394159146173706   dF: -2.788e-06   |Residual|: 2.887e-04   |deigs|: 1.060e-03  t[s]:     40.11
	FillingsUpdate:  mu: -0.089044392  nElectrons: 9.000000  magneticMoment: [ Abs: 0.86178  Tot: -0.86000 ]
SCF: Cycle: 17   F: -28.394161319203068   dF: -2.173e-06   |Residual|: 2.065e-04   |deigs|: 9.703e-04  t[s]:     42.12
	FillingsUpdate:  mu: -0.088785643  nElectrons: 9.000000  magneticMoment: [ Abs: 0.86190  Tot: -0.86000 ]
SCF: Cycle: 18   F: -28.394165154902332   dF: -3.836e-06   |Residual|: 4.582e-04   |deigs|: 3.543e-04  t[s]:     44.14
	FillingsUpdate:  mu: -0.088966673  nElectrons: 9.000000  magneticMoment: [ Abs: 0.86198  Tot: -0.86000 ]
SCF: Cycle: 19   F: -28.394165772288748   dF: -6.174e-07   |Residual|: 3.823e-04   |deigs|: 2.394e-04  t[s]:     46.08
	FillingsUpdate:  mu: -0.089747113  nElectrons: 9.000000  magneticMoment: [ Abs: 0.86148  Tot: -0.86000 ]
SCF: Cycle: 20   F: -28.394165693602297   dF: +7.869e-08   |Residual|: 1.729e-04   |deigs|: 7.881e-04  t[s]:     48.12
	FillingsUpdate:  mu: -0.089625909  nElectrons: 9.000000  magneticMoment: [ Abs: 0.86097  Tot: -0.86000 ]
SCF: Cycle: 21   F: -28.394166876616637   dF: -1.183e-06   |Residual|: 1.235e-04   |deigs|: 3.158e-04  t[s]:     50.14
	FillingsUpdate:  mu: -0.089780079  nElectrons: 9.000000  magneticMoment: [ Abs: 0.86038  Tot: -0.86000 ]
SCF: Cycle: 22   F: -28.394167136656339   dF: -2.600e-07   |Residual|: 7.758e-05   |deigs|: 2.654e-04  t[s]:     52.19
	FillingsUpdate:  mu: -0.089829854  nElectrons: 9.000000  magneticMoment: [ Abs: 0.86046  Tot: -0.86000 ]
SCF: Cycle: 23   F: -28.394167201082020   dF: -6.443e-08   |Residual|: 4.663e-05   |deigs|: 1.016e-04  t[s]:     54.32
	FillingsUpdate:  mu: -0.089797941  nElectrons: 9.000000  magneticMoment: [ Abs: 0.86059  Tot: -0.86000 ]
SCF: Cycle: 24   F: -28.394167296507248   dF: -9.543e-08   |Residual|: 4.613e-05   |deigs|: 6.545e-05  t[s]:     56.40
	FillingsUpdate:  mu: -0.089768232  nElectrons: 9.000000  magneticMoment: [ Abs: 0.86065  Tot: -0.86000 ]
SCF: Cycle: 25   F: -28.394167379232201   dF: -8.272e-08   |Residual|: 3.369e-05   |deigs|: 7.058e-05  t[s]:     58.50
	FillingsUpdate:  mu: -0.089745643  nElectrons: 9.000000  magneticMoment: [ Abs: 0.86056  Tot: -0.86000 ]
SCF: Cycle: 26   F: -28.394167416622324   dF: -3.739e-08   |Residual|: 2.255e-05   |deigs|: 4.351e-05  t[s]:     60.51
	FillingsUpdate:  mu: -0.089703163  nElectrons: 9.000000  magneticMoment: [ Abs: 0.86037  Tot: -0.86000 ]
SCF: Cycle: 27   F: -28.394167439121738   dF: -2.250e-08   |Residual|: 1.948e-05   |deigs|: 4.841e-05  t[s]:     62.53
	FillingsUpdate:  mu: -0.089667414  nElectrons: 9.000000  magneticMoment: [ Abs: 0.86019  Tot: -0.86000 ]
SCF: Cycle: 28   F: -28.394167461128632   dF: -2.201e-08   |Residual|: 1.128e-05   |deigs|: 4.285e-05  t[s]:     64.56
	FillingsUpdate:  mu: -0.089664710  nElectrons: 9.000000  magneticMoment: [ Abs: 0.86012  Tot: -0.86000 ]
SCF: Cycle: 29   F: -28.394167467570416   dF: -6.442e-09   |Residual|: 6.126e-06   |deigs|: 6.343e-06  t[s]:     66.60
	FillingsUpdate:  mu: -0.089666357  nElectrons: 9.000000  magneticMoment: [ Abs: 0.86008  Tot: -0.86000 ]
SCF: Cycle: 30   F: -28.394167472950443   dF: -5.380e-09   |Residual|: 3.540e-06   |deigs|: 6.420e-06  t[s]:     68.76
SCF: Converged (|Delta E|<1.000000e-08 for 2 iters).


# Ionic positions in lattice coordinates:
ion K   0.000000000000000   0.000000000000000   0.000000000000000 0

# Forces in Lattice coordinates:
force K   0.000000000000000   0.000000000000000   0.000000000000000 0

# Energy components:
   Eewald =      -18.0480261003326561
       EH =        4.8932179574550716
     Eloc =      -18.0856406660602893
      Enl =       -2.7798167443604491
   Epulay =        0.0000000041876954
      Exc =       -4.2698798225630528
       KE =        9.8959787649976292
-------------------------------------
     Etot =      -28.3941666066760519
       TS =        0.0000008662743924
-------------------------------------
        F =      -28.3941674729504427

IonicMinimize: Iter:   0  F: -28.394167472950443  |grad|_K:  0.000e+00  t[s]:     68.88
IonicMinimize: Converged (|grad|_K<1.000000e-04).

#--- Lowdin population analysis ---
# oxidation-state K +0.177
# magnetic-moments K -0.686

End date and time: Sat Feb  5 23:31:17 2022  (Duration: 0-0:01:08.91)
Done!
scale=3
magnetization=-0.86
--------------------------------------------------------------------------
The library attempted to open the following supporting CUDA libraries,
but each of them failed.  CUDA-aware support is disabled.
libcuda.so.1: cannot open shared object file: No such file or directory
libcuda.dylib: cannot open shared object file: No such file or directory
/usr/lib64/libcuda.so.1: cannot open shared object file: No such file or directory
/usr/lib64/libcuda.dylib: cannot open shared object file: No such file or directory
If you are not interested in CUDA-aware support, then run with
--mca opal_warn_on_missing_libcuda 0 to suppress this message.  If you are interested
in CUDA-aware support, then try setting LD_LIBRARY_PATH to the location
of libcuda.so.1 to get passed this issue.
--------------------------------------------------------------------------
--------------------------------------------------------------------------
No OpenFabrics connection schemes reported that they were able to be
used on a specific port.  As such, the openib BTL (OpenFabrics
support) will be disabled for this port.

  Local host:           d-4-7-2
  Local device:         mlx5_1
  Local port:           1
  CPCs attempted:       rdmacm, udcm
--------------------------------------------------------------------------

*************** JDFTx 1.6.0 (git hash 42ebbcc2) ***************

Start date and time: Sat Feb  5 23:31:18 2022
Executable jdftx with command-line: -i Alkali.in
Running on hosts (process indices):  d-4-7-2 (0-18)
Divided in process groups (process indices):  0 (0)  1 (1)  2 (2)  3 (3)  4 (4)  5 (5)  6 (6)  7 (7)  8 (8)  9 (9)  10 (10)  11 (11)  12 (12)  13 (13)  14 (14)  15 (15)  16 (16)  17 (17)  18 (18)
Resource initialization completed at t[s]:      0.00
Run totals: 19 processes, 48 threads, 0 GPUs


Input parsed successfully to the following command list (including defaults):

basis kpoint-dependent
coords-type Lattice
core-overlap-check vector
coulomb-interaction Slab 001
davidson-band-ratio 1.1
dump End None
dump-name $INPUT.$VAR
elec-cutoff 20
elec-eigen-algo Davidson
elec-ex-corr gga-PBE
elec-initial-magnetization -0.860000 yes
elec-smearing Fermi 1e-05
electronic-minimize  \
	dirUpdateScheme      FletcherReeves \
	linminMethod         DirUpdateRecommended \
	nIterations          100 \
	history              15 \
	knormThreshold       0 \
	energyDiffThreshold  1e-08 \
	nEnergyDiff          2 \
	alphaTstart          1 \
	alphaTmin            1e-10 \
	updateTestStepSize   yes \
	alphaTreduceFactor   0.1 \
	alphaTincreaseFactor 3 \
	nAlphaAdjustMax      3 \
	wolfeEnergy          0.0001 \
	wolfeGradient        0.9 \
	fdTest               no
electronic-scf  \
	nIterations	10000 \
	energyDiffThreshold	1e-08 \
	residualThreshold	1e-07 \
	mixFraction	0.5 \
	qMetric	0.8 \
	history	10 \
	nEigSteps	2 \
	eigDiffThreshold	1e-08 \
	mixedVariable	Density \
	qKerker	0.8 \
	qKappa	-1 \
	verbose	no \
	mixFractionMag	1.5
exchange-regularization WignerSeitzTruncated
fluid None
fluid-ex-corr (null) lda-PZ
fluid-gummel-loop 10 1.000000e-05
fluid-minimize  \
	dirUpdateScheme      PolakRibiere \
	linminMethod         DirUpdateRecommended \
	nIterations          100 \
	history              15 \
	knormThreshold       0 \
	energyDiffThreshold  0 \
	nEnergyDiff          2 \
	alphaTstart          1 \
	alphaTmin            1e-10 \
	updateTestStepSize   yes \
	alphaTreduceFactor   0.1 \
	alphaTincreaseFactor 3 \
	nAlphaAdjustMax      3 \
	wolfeEnergy          0.0001 \
	wolfeGradient        0.9 \
	fdTest               no
fluid-solvent H2O 55.338 ScalarEOS \
	epsBulk 78.4 \
	pMol 0.92466 \
	epsInf 1.77 \
	Pvap 1.06736e-10 \
	sigmaBulk 4.62e-05 \
	Rvdw 2.61727 \
	Res 1.42 \
	tauNuc 343133 \
	poleEl 15 7 1
forces-output-coords Positions
ion K   0.000000000000000   0.000000000000000   0.000000000000000 0
ion-species SG15/$ID_ONCV_PBE.upf
ion-width 0
ionic-minimize  \
	dirUpdateScheme      L-BFGS \
	linminMethod         DirUpdateRecommended \
	nIterations          0 \
	history              15 \
	knormThreshold       0.0001 \
	energyDiffThreshold  1e-06 \
	nEnergyDiff          2 \
	alphaTstart          1 \
	alphaTmin            1e-10 \
	updateTestStepSize   yes \
	alphaTreduceFactor   0.1 \
	alphaTincreaseFactor 3 \
	nAlphaAdjustMax      3 \
	wolfeEnergy          0.0001 \
	wolfeGradient        0.9 \
	fdTest               no
kpoint   0.000000000000   0.000000000000   0.000000000000  1.00000000000000
kpoint-folding 12 12 1 
latt-move-scale 1 1 1
latt-scale 3 3 1 
lattice  \
	   4.727486978767153   -2.363743489383575    0.000000000000000  \
	  -0.000000000000000    4.094123819672498    0.000000000000000  \
	   0.000000000000000    0.000000000000000   40.000000000000000 
lattice-minimize  \
	dirUpdateScheme      L-BFGS \
	linminMethod         DirUpdateRecommended \
	nIterations          0 \
	history              15 \
	knormThreshold       0 \
	energyDiffThreshold  1e-06 \
	nEnergyDiff          2 \
	alphaTstart          1 \
	alphaTmin            1e-10 \
	updateTestStepSize   yes \
	alphaTreduceFactor   0.1 \
	alphaTincreaseFactor 3 \
	nAlphaAdjustMax      3 \
	wolfeEnergy          0.0001 \
	wolfeGradient        0.9 \
	fdTest               no
lcao-params -1 1e-06 1e-05
pcm-variant GLSSA13
spintype z-spin
subspace-rotation-factor 1 yes
symmetries automatic
symmetry-threshold 0.0001



---------- Setting up symmetries ----------

Found 24 point-group symmetries of the bravais lattice
Found 24 space-group symmetries with basis
Applied RMS atom displacement 0 bohrs to make symmetries exact.

---------- Initializing the Grid ----------
R = 
[      14.1825     -7.09123            0  ]
[            0      12.2824            0  ]
[            0            0           40  ]
unit cell volume = 6967.77
G =
[   0.443025   0.255781         -0  ]
[          0   0.511561         -0  ]
[         -0         -0    0.15708  ]
Minimum fftbox size, Smin = [  60  60  164  ]
Chosen fftbox size, S = [  60  60  168  ]

---------- Exchange Correlation functional ----------
Initalized PBE GGA exchange.
Initalized PBE GGA correlation.

---------- Setting up pseudopotentials ----------
Width of ionic core gaussian charges (only for fluid interactions / plotting) set to 0

Reading pseudopotential file '/home/gridsan/aligho/DFT/build-Nov24/pseudopotentials/SG15/K_ONCV_PBE.upf':
  'K' pseudopotential, 'PBE' functional
  Generated using ONCVPSP code by D. R. Hamann
  Author: Martin Schlipf and Francois Gygi  Date: 150915.
  9 valence electrons, 3 orbitals, 6 projectors, 2222 radial grid points, with lMax = 2
  Transforming local potential to a uniform radial grid of dG=0.02 with 1489 points.
  Transforming nonlocal projectors to a uniform radial grid of dG=0.02 with 432 points.
    3S    l: 0   occupation:  2.0   eigenvalue: -1.298836
    3P    l: 1   occupation:  6.0   eigenvalue: -0.691386
    4S    l: 0   occupation:  1.0   eigenvalue: -0.085223
  Transforming atomic orbitals to a uniform radial grid of dG=0.02 with 432 points.
  Core radius for overlap checks: 2.06 bohrs.
  Reading pulay file /home/gridsan/aligho/DFT/build-Nov24/pseudopotentials/SG15/K_ONCV_PBE.pulay ... using dE_dnG = -1.597219e-05 computed for Ecut = 20.

Initialized 1 species with 1 total atoms.

Folded 1 k-points by 12x12x1 to 144 k-points.

---------- Setting up k-points, bands, fillings ----------
Reduced to 19 k-points under symmetry. 
Computing the number of bands and number of electrons
Calculating initial fillings.
nElectrons:   9.000000   nBands: 6   nStates: 38

----- Setting up reduced wavefunction bases (one per k-point) -----
average nbasis = 29766.104 , ideal nbasis = 29766.845

---------- Setting up coulomb interaction ----------
Initialized slab truncation along lattice direction 001

---------- Setting up 2D ewald sum ----------
Optimum gaussian width for ewald sums = 7.873530 bohr.
Real space sums over 289 unit cells with max indices [  8  8  0  ]
Reciprocal space sums over 81 terms with max indices [  4  4  0  ]

---------- Allocating electronic variables ----------
Initializing wave functions:  linear combination of atomic orbitals
Note: number of bands (6) exceeds available atomic orbitals (5)
K pseudo-atom occupations:   s ( 2 1 )  p ( 6 )
[d-4-7-2:04222] 18 more processes have sent help message help-mpi-common-cuda.txt / dlopen failed
[d-4-7-2:04222] Set MCA parameter "orte_base_help_aggregate" to 0 to see all help / error messages
[d-4-7-2:04222] 18 more processes have sent help message help-mpi-btl-openib-cpc-base.txt / no cpcs for port
	FillingsUpdate:  mu: -0.087454030  nElectrons: 9.000000  magneticMoment: [ Abs: 0.86000  Tot: -0.86000 ]
LCAOMinimize: Iter:   0  F: -28.3817430519796474  |grad|_K:  5.852e-06  alpha:  1.000e+00
	FillingsUpdate:  mu: -0.087453578  nElectrons: 9.000000  magneticMoment: [ Abs: 0.86000  Tot: -0.86000 ]
LCAOMinimize: Iter:   1  F: -28.3817430753282949  |grad|_K:  3.362e-08  alpha:  9.968e-01  linmin: -3.671e-03  cgtest:  7.568e-02  t[s]:      8.82
LCAOMinimize: Encountered beta<0, resetting CG.
LCAOMinimize: 	Step increased F by 2.131628e-14, reducing alpha to 6.474511e-02.
LCAOMinimize: 	Step increased F by 2.913225e-13, reducing alpha to 6.474511e-03.
LCAOMinimize: 	Step increased F by 2.167155e-13, reducing alpha to 6.474511e-04.
LCAOMinimize: 	Step failed to reduce F after 3 attempts. Quitting step.
LCAOMinimize: 	Undoing step.
LCAOMinimize: 	Step failed along negative gradient direction.
LCAOMinimize: Probably at roundoff error limit. (Stopping)


---- Citations for features of the code used in this run ----

   Software package:
      R. Sundararaman, K. Letchworth-Weaver, K.A. Schwarz, D. Gunceler, Y. Ozhabes and T.A. Arias, 'JDFTx: software for joint density-functional theory', SoftwareX 6, 278 (2017)

   gga-PBE exchange-correlation functional:
      J.P. Perdew, K. Burke and M. Ernzerhof, Phys. Rev. Lett. 77, 3865 (1996)

   Pseudopotentials:
      M Schlipf and F Gygi, Comput. Phys. Commun. 196, 36 (2015)

   Truncated Coulomb potentials:
      R. Sundararaman and T.A. Arias, Phys. Rev. B 87, 165122 (2013)

This list may not be complete. Please suggest additional citations or
report any other bugs at https://github.com/shankar1729/jdftx/issues

Initialization completed successfully at t[s]:     15.46


-------- Electronic minimization -----------
Will mix electronic density at each iteration.
	FillingsUpdate:  mu: -0.087453578  nElectrons: 9.000000  magneticMoment: [ Abs: 0.86000  Tot: -0.86000 ]
	FillingsUpdate:  mu: -0.088052845  nElectrons: 9.000000  magneticMoment: [ Abs: 0.86000  Tot: -0.86000 ]
SCF: Cycle:  0   F: -28.382712490763936   dF: -9.694e-04   |Residual|: 3.050e-03   |deigs|: 1.734e-01  t[s]:     20.21
	FillingsUpdate:  mu: -0.088250220  nElectrons: 9.000000  magneticMoment: [ Abs: 0.86074  Tot: -0.86000 ]
SCF: Cycle:  1   F: -28.382738689637733   dF: -2.620e-05   |Residual|: 1.855e-03   |deigs|: 5.201e-03  t[s]:     23.95
	FillingsUpdate:  mu: -0.088451337  nElectrons: 9.000000  magneticMoment: [ Abs: 0.86168  Tot: -0.86000 ]
SCF: Cycle:  2   F: -28.382755370122741   dF: -1.668e-05   |Residual|: 1.465e-03   |deigs|: 3.157e-03  t[s]:     27.76
	FillingsUpdate:  mu: -0.088770552  nElectrons: 9.000000  magneticMoment: [ Abs: 0.86218  Tot: -0.86000 ]
SCF: Cycle:  3   F: -28.382772231670138   dF: -1.686e-05   |Residual|: 1.101e-03   |deigs|: 2.630e-03  t[s]:     31.64
	FillingsUpdate:  mu: -0.088872929  nElectrons: 9.000000  magneticMoment: [ Abs: 0.86170  Tot: -0.86000 ]
SCF: Cycle:  4   F: -28.382786817064115   dF: -1.459e-05   |Residual|: 7.190e-04   |deigs|: 1.156e-03  t[s]:     35.65
	FillingsUpdate:  mu: -0.088843508  nElectrons: 9.000000  magneticMoment: [ Abs: 0.86194  Tot: -0.86000 ]
SCF: Cycle:  5   F: -28.382796611955037   dF: -9.795e-06   |Residual|: 3.789e-04   |deigs|: 8.899e-04  t[s]:     39.65
	FillingsUpdate:  mu: -0.088773496  nElectrons: 9.000000  magneticMoment: [ Abs: 0.86161  Tot: -0.86000 ]
SCF: Cycle:  6   F: -28.382799931319337   dF: -3.319e-06   |Residual|: 2.776e-04   |deigs|: 1.814e-03  t[s]:     43.65
	FillingsUpdate:  mu: -0.088653105  nElectrons: 9.000000  magneticMoment: [ Abs: 0.86196  Tot: -0.86000 ]
SCF: Cycle:  7   F: -28.382802647862587   dF: -2.717e-06   |Residual|: 2.103e-04   |deigs|: 6.118e-04  t[s]:     47.78
	FillingsUpdate:  mu: -0.088433807  nElectrons: 9.000000  magneticMoment: [ Abs: 0.86208  Tot: -0.86000 ]
SCF: Cycle:  8   F: -28.382803274839002   dF: -6.270e-07   |Residual|: 1.712e-04   |deigs|: 2.387e-04  t[s]:     51.99
	FillingsUpdate:  mu: -0.088251751  nElectrons: 9.000000  magneticMoment: [ Abs: 0.86235  Tot: -0.86000 ]
SCF: Cycle:  9   F: -28.382803657505782   dF: -3.827e-07   |Residual|: 1.569e-04   |deigs|: 1.969e-04  t[s]:     56.27
	FillingsUpdate:  mu: -0.088123035  nElectrons: 9.000000  magneticMoment: [ Abs: 0.86199  Tot: -0.86000 ]
SCF: Cycle: 10   F: -28.382804228915752   dF: -5.714e-07   |Residual|: 1.381e-04   |deigs|: 2.279e-04  t[s]:     60.56
	FillingsUpdate:  mu: -0.087992315  nElectrons: 9.000000  magneticMoment: [ Abs: 0.86277  Tot: -0.86000 ]
SCF: Cycle: 11   F: -28.382804277170145   dF: -4.825e-08   |Residual|: 1.051e-04   |deigs|: 1.619e-04  t[s]:     64.84
	FillingsUpdate:  mu: -0.087935800  nElectrons: 9.000000  magneticMoment: [ Abs: 0.86261  Tot: -0.86000 ]
SCF: Cycle: 12   F: -28.382805147218107   dF: -8.700e-07   |Residual|: 8.660e-05   |deigs|: 8.309e-05  t[s]:     69.12
	FillingsUpdate:  mu: -0.087774533  nElectrons: 9.000000  magneticMoment: [ Abs: 0.86267  Tot: -0.86000 ]
SCF: Cycle: 13   F: -28.382805359134956   dF: -2.119e-07   |Residual|: 8.890e-05   |deigs|: 1.846e-04  t[s]:     73.42
	FillingsUpdate:  mu: -0.087520271  nElectrons: 9.000000  magneticMoment: [ Abs: 0.86265  Tot: -0.86000 ]
SCF: Cycle: 14   F: -28.382805109675679   dF: +2.495e-07   |Residual|: 9.038e-05   |deigs|: 2.791e-04  t[s]:     77.78
	FillingsUpdate:  mu: -0.087382241  nElectrons: 9.000000  magneticMoment: [ Abs: 0.86266  Tot: -0.86000 ]
SCF: Cycle: 15   F: -28.382805382749510   dF: -2.731e-07   |Residual|: 7.658e-05   |deigs|: 4.028e-04  t[s]:     82.03
	FillingsUpdate:  mu: -0.087322084  nElectrons: 9.000000  magneticMoment: [ Abs: 0.86209  Tot: -0.86000 ]
SCF: Cycle: 16   F: -28.382805733992882   dF: -3.512e-07   |Residual|: 6.371e-05   |deigs|: 2.701e-04  t[s]:     86.28
	FillingsUpdate:  mu: -0.087224151  nElectrons: 9.000000  magneticMoment: [ Abs: 0.86177  Tot: -0.86000 ]
SCF: Cycle: 17   F: -28.382806014915055   dF: -2.809e-07   |Residual|: 5.173e-05   |deigs|: 1.318e-04  t[s]:     90.55
	FillingsUpdate:  mu: -0.087203781  nElectrons: 9.000000  magneticMoment: [ Abs: 0.86174  Tot: -0.86000 ]
SCF: Cycle: 18   F: -28.382806242199990   dF: -2.273e-07   |Residual|: 3.784e-05   |deigs|: 4.258e-05  t[s]:     94.81
	FillingsUpdate:  mu: -0.087192268  nElectrons: 9.000000  magneticMoment: [ Abs: 0.86178  Tot: -0.86000 ]
SCF: Cycle: 19   F: -28.382806253599849   dF: -1.140e-08   |Residual|: 2.341e-05   |deigs|: 2.287e-05  t[s]:     99.03
	FillingsUpdate:  mu: -0.087183922  nElectrons: 9.000000  magneticMoment: [ Abs: 0.86177  Tot: -0.86000 ]
SCF: Cycle: 20   F: -28.382806388455187   dF: -1.349e-07   |Residual|: 1.385e-05   |deigs|: 1.805e-05  t[s]:    103.38
	FillingsUpdate:  mu: -0.087183413  nElectrons: 9.000000  magneticMoment: [ Abs: 0.86176  Tot: -0.86000 ]
SCF: Cycle: 21   F: -28.382806419707485   dF: -3.125e-08   |Residual|: 9.867e-06   |deigs|: 1.030e-05  t[s]:    107.37
	FillingsUpdate:  mu: -0.087181940  nElectrons: 9.000000  magneticMoment: [ Abs: 0.86178  Tot: -0.86000 ]
SCF: Cycle: 22   F: -28.382806429813435   dF: -1.011e-08   |Residual|: 6.015e-06   |deigs|: 9.095e-06  t[s]:    111.69
	FillingsUpdate:  mu: -0.087184149  nElectrons: 9.000000  magneticMoment: [ Abs: 0.86180  Tot: -0.86000 ]
SCF: Cycle: 23   F: -28.382806448442636   dF: -1.863e-08   |Residual|: 4.394e-06   |deigs|: 6.844e-06  t[s]:    115.91
	FillingsUpdate:  mu: -0.087185831  nElectrons: 9.000000  magneticMoment: [ Abs: 0.86180  Tot: -0.86000 ]
SCF: Cycle: 24   F: -28.382806456044555   dF: -7.602e-09   |Residual|: 3.297e-06   |deigs|: 5.106e-06  t[s]:    119.94
	FillingsUpdate:  mu: -0.087188816  nElectrons: 9.000000  magneticMoment: [ Abs: 0.86177  Tot: -0.86000 ]
SCF: Cycle: 25   F: -28.382806459966780   dF: -3.922e-09   |Residual|: 2.960e-06   |deigs|: 6.808e-06  t[s]:    124.18
SCF: Converged (|Delta E|<1.000000e-08 for 2 iters).


# Ionic positions in lattice coordinates:
ion K   0.000000000000000   0.000000000000000   0.000000000000000 0

# Forces in Lattice coordinates:
force K   0.000000000000000  -0.000000000000000   0.000000000000000 0

# Energy components:
   Eewald =      -12.0320174002217755
       EH =       10.7605980988251417
     Eloc =      -29.9606464106961674
      Enl =       -2.7693864108959234
   Epulay =       -0.0000000016982517
      Exc =       -4.2439006743370360
       KE =        9.8625471542144325
-------------------------------------
     Etot =      -28.3828056448095793
       TS =        0.0000008151572001
-------------------------------------
        F =      -28.3828064599667798

IonicMinimize: Iter:   0  F: -28.382806459966780  |grad|_K:  0.000e+00  t[s]:    124.44
IonicMinimize: Converged (|grad|_K<1.000000e-04).

#--- Lowdin population analysis ---
# oxidation-state K +0.021
# magnetic-moments K -0.841

End date and time: Sat Feb  5 23:33:23 2022  (Duration: 0-0:02:04.49)
Done!
scale=4
magnetization=-0.86
--------------------------------------------------------------------------
The library attempted to open the following supporting CUDA libraries,
but each of them failed.  CUDA-aware support is disabled.
libcuda.so.1: cannot open shared object file: No such file or directory
libcuda.dylib: cannot open shared object file: No such file or directory
/usr/lib64/libcuda.so.1: cannot open shared object file: No such file or directory
/usr/lib64/libcuda.dylib: cannot open shared object file: No such file or directory
If you are not interested in CUDA-aware support, then run with
--mca opal_warn_on_missing_libcuda 0 to suppress this message.  If you are interested
in CUDA-aware support, then try setting LD_LIBRARY_PATH to the location
of libcuda.so.1 to get passed this issue.
--------------------------------------------------------------------------
--------------------------------------------------------------------------
No OpenFabrics connection schemes reported that they were able to be
used on a specific port.  As such, the openib BTL (OpenFabrics
support) will be disabled for this port.

  Local host:           d-4-7-2
  Local device:         mlx5_1
  Local port:           1
  CPCs attempted:       rdmacm, udcm
--------------------------------------------------------------------------

*************** JDFTx 1.6.0 (git hash 42ebbcc2) ***************

Start date and time: Sat Feb  5 23:33:24 2022
Executable jdftx with command-line: -i Alkali.in
Running on hosts (process indices):  d-4-7-2 (0-18)
Divided in process groups (process indices):  0 (0)  1 (1)  2 (2)  3 (3)  4 (4)  5 (5)  6 (6)  7 (7)  8 (8)  9 (9)  10 (10)  11 (11)  12 (12)  13 (13)  14 (14)  15 (15)  16 (16)  17 (17)  18 (18)
Resource initialization completed at t[s]:      0.00
Run totals: 19 processes, 48 threads, 0 GPUs


Input parsed successfully to the following command list (including defaults):

basis kpoint-dependent
coords-type Lattice
core-overlap-check vector
coulomb-interaction Slab 001
davidson-band-ratio 1.1
dump End None
dump-name $INPUT.$VAR
elec-cutoff 20
elec-eigen-algo Davidson
elec-ex-corr gga-PBE
elec-initial-magnetization -0.860000 yes
elec-smearing Fermi 1e-05
electronic-minimize  \
	dirUpdateScheme      FletcherReeves \
	linminMethod         DirUpdateRecommended \
	nIterations          100 \
	history              15 \
	knormThreshold       0 \
	energyDiffThreshold  1e-08 \
	nEnergyDiff          2 \
	alphaTstart          1 \
	alphaTmin            1e-10 \
	updateTestStepSize   yes \
	alphaTreduceFactor   0.1 \
	alphaTincreaseFactor 3 \
	nAlphaAdjustMax      3 \
	wolfeEnergy          0.0001 \
	wolfeGradient        0.9 \
	fdTest               no
electronic-scf  \
	nIterations	10000 \
	energyDiffThreshold	1e-08 \
	residualThreshold	1e-07 \
	mixFraction	0.5 \
	qMetric	0.8 \
	history	10 \
	nEigSteps	2 \
	eigDiffThreshold	1e-08 \
	mixedVariable	Density \
	qKerker	0.8 \
	qKappa	-1 \
	verbose	no \
	mixFractionMag	1.5
exchange-regularization WignerSeitzTruncated
fluid None
fluid-ex-corr (null) lda-PZ
fluid-gummel-loop 10 1.000000e-05
fluid-minimize  \
	dirUpdateScheme      PolakRibiere \
	linminMethod         DirUpdateRecommended \
	nIterations          100 \
	history              15 \
	knormThreshold       0 \
	energyDiffThreshold  0 \
	nEnergyDiff          2 \
	alphaTstart          1 \
	alphaTmin            1e-10 \
	updateTestStepSize   yes \
	alphaTreduceFactor   0.1 \
	alphaTincreaseFactor 3 \
	nAlphaAdjustMax      3 \
	wolfeEnergy          0.0001 \
	wolfeGradient        0.9 \
	fdTest               no
fluid-solvent H2O 55.338 ScalarEOS \
	epsBulk 78.4 \
	pMol 0.92466 \
	epsInf 1.77 \
	Pvap 1.06736e-10 \
	sigmaBulk 4.62e-05 \
	Rvdw 2.61727 \
	Res 1.42 \
	tauNuc 343133 \
	poleEl 15 7 1
forces-output-coords Positions
ion K   0.000000000000000   0.000000000000000   0.000000000000000 0
ion-species SG15/$ID_ONCV_PBE.upf
ion-width 0
ionic-minimize  \
	dirUpdateScheme      L-BFGS \
	linminMethod         DirUpdateRecommended \
	nIterations          0 \
	history              15 \
	knormThreshold       0.0001 \
	energyDiffThreshold  1e-06 \
	nEnergyDiff          2 \
	alphaTstart          1 \
	alphaTmin            1e-10 \
	updateTestStepSize   yes \
	alphaTreduceFactor   0.1 \
	alphaTincreaseFactor 3 \
	nAlphaAdjustMax      3 \
	wolfeEnergy          0.0001 \
	wolfeGradient        0.9 \
	fdTest               no
kpoint   0.000000000000   0.000000000000   0.000000000000  1.00000000000000
kpoint-folding 12 12 1 
latt-move-scale 1 1 1
latt-scale 4 4 1 
lattice  \
	   4.727486978767153   -2.363743489383575    0.000000000000000  \
	  -0.000000000000000    4.094123819672498    0.000000000000000  \
	   0.000000000000000    0.000000000000000   40.000000000000000 
lattice-minimize  \
	dirUpdateScheme      L-BFGS \
	linminMethod         DirUpdateRecommended \
	nIterations          0 \
	history              15 \
	knormThreshold       0 \
	energyDiffThreshold  1e-06 \
	nEnergyDiff          2 \
	alphaTstart          1 \
	alphaTmin            1e-10 \
	updateTestStepSize   yes \
	alphaTreduceFactor   0.1 \
	alphaTincreaseFactor 3 \
	nAlphaAdjustMax      3 \
	wolfeEnergy          0.0001 \
	wolfeGradient        0.9 \
	fdTest               no
lcao-params -1 1e-06 1e-05
pcm-variant GLSSA13
spintype z-spin
subspace-rotation-factor 1 yes
symmetries automatic
symmetry-threshold 0.0001



---------- Setting up symmetries ----------

Found 24 point-group symmetries of the bravais lattice
Found 24 space-group symmetries with basis
Applied RMS atom displacement 0 bohrs to make symmetries exact.

---------- Initializing the Grid ----------
R = 
[      18.9099     -9.45497            0  ]
[            0      16.3765            0  ]
[            0            0           40  ]
unit cell volume = 12387.1
G =
[   0.332269   0.191835         -0  ]
[          0   0.383671         -0  ]
[         -0         -0    0.15708  ]
Minimum fftbox size, Smin = [  80  80  164  ]
Chosen fftbox size, S = [  80  80  168  ]

---------- Exchange Correlation functional ----------
Initalized PBE GGA exchange.
Initalized PBE GGA correlation.

---------- Setting up pseudopotentials ----------
Width of ionic core gaussian charges (only for fluid interactions / plotting) set to 0

Reading pseudopotential file '/home/gridsan/aligho/DFT/build-Nov24/pseudopotentials/SG15/K_ONCV_PBE.upf':
  'K' pseudopotential, 'PBE' functional
  Generated using ONCVPSP code by D. R. Hamann
  Author: Martin Schlipf and Francois Gygi  Date: 150915.
  9 valence electrons, 3 orbitals, 6 projectors, 2222 radial grid points, with lMax = 2
  Transforming local potential to a uniform radial grid of dG=0.02 with 1489 points.
  Transforming nonlocal projectors to a uniform radial grid of dG=0.02 with 432 points.
    3S    l: 0   occupation:  2.0   eigenvalue: -1.298836
    3P    l: 1   occupation:  6.0   eigenvalue: -0.691386
    4S    l: 0   occupation:  1.0   eigenvalue: -0.085223
  Transforming atomic orbitals to a uniform radial grid of dG=0.02 with 432 points.
  Core radius for overlap checks: 2.06 bohrs.
  Reading pulay file /home/gridsan/aligho/DFT/build-Nov24/pseudopotentials/SG15/K_ONCV_PBE.pulay ... using dE_dnG = -1.597219e-05 computed for Ecut = 20.

Initialized 1 species with 1 total atoms.

Folded 1 k-points by 12x12x1 to 144 k-points.

---------- Setting up k-points, bands, fillings ----------
Reduced to 19 k-points under symmetry. 
Computing the number of bands and number of electrons
Calculating initial fillings.
nElectrons:   9.000000   nBands: 6   nStates: 38

----- Setting up reduced wavefunction bases (one per k-point) -----
average nbasis = 52924.021 , ideal nbasis = 52918.836

---------- Setting up coulomb interaction ----------
Initialized slab truncation along lattice direction 001

---------- Setting up 2D ewald sum ----------
Optimum gaussian width for ewald sums = 10.498040 bohr.
Real space sums over 289 unit cells with max indices [  8  8  0  ]
Reciprocal space sums over 81 terms with max indices [  4  4  0  ]

---------- Allocating electronic variables ----------
Initializing wave functions:  linear combination of atomic orbitals
Note: number of bands (6) exceeds available atomic orbitals (5)
K pseudo-atom occupations:   s ( 2 1 )  p ( 6 )
[d-4-7-2:87775] 18 more processes have sent help message help-mpi-common-cuda.txt / dlopen failed
[d-4-7-2:87775] Set MCA parameter "orte_base_help_aggregate" to 0 to see all help / error messages
[d-4-7-2:87775] 18 more processes have sent help message help-mpi-btl-openib-cpc-base.txt / no cpcs for port
	FillingsUpdate:  mu: -0.084727052  nElectrons: 9.000000  magneticMoment: [ Abs: 0.86000  Tot: -0.86000 ]
LCAOMinimize: Iter:   0  F: -28.3803947743653637  |grad|_K:  1.156e-06  alpha:  1.000e+00
	FillingsUpdate:  mu: -0.084726815  nElectrons: 9.000000  magneticMoment: [ Abs: 0.86000  Tot: -0.86000 ]
LCAOMinimize: Iter:   1  F: -28.3803947752729044  |grad|_K:  5.817e-09  alpha:  9.940e-01  linmin:  4.461e-03  cgtest: -1.239e-01  t[s]:     15.09
	FillingsUpdate:  mu: -0.084726815  nElectrons: 9.000000  magneticMoment: [ Abs: 0.86000  Tot: -0.86000 ]
LCAOMinimize: Iter:   2  F: -28.3803947752730217  |grad|_K:  4.834e-09  alpha:  1.712e-01  linmin: -6.736e-02  cgtest:  9.997e-01  t[s]:     19.06
LCAOMinimize: Encountered beta<0, resetting CG.
LCAOMinimize: Converged (|Delta F|<1.000000e-06 for 2 iters).


---- Citations for features of the code used in this run ----

   Software package:
      R. Sundararaman, K. Letchworth-Weaver, K.A. Schwarz, D. Gunceler, Y. Ozhabes and T.A. Arias, 'JDFTx: software for joint density-functional theory', SoftwareX 6, 278 (2017)

   gga-PBE exchange-correlation functional:
      J.P. Perdew, K. Burke and M. Ernzerhof, Phys. Rev. Lett. 77, 3865 (1996)

   Pseudopotentials:
      M Schlipf and F Gygi, Comput. Phys. Commun. 196, 36 (2015)

   Truncated Coulomb potentials:
      R. Sundararaman and T.A. Arias, Phys. Rev. B 87, 165122 (2013)

This list may not be complete. Please suggest additional citations or
report any other bugs at https://github.com/shankar1729/jdftx/issues

Initialization completed successfully at t[s]:     19.32


-------- Electronic minimization -----------
Will mix electronic density at each iteration.
	FillingsUpdate:  mu: -0.084726815  nElectrons: 9.000000  magneticMoment: [ Abs: 0.86000  Tot: -0.86000 ]
	FillingsUpdate:  mu: -0.084880876  nElectrons: 9.000000  magneticMoment: [ Abs: 0.86000  Tot: -0.86000 ]
SCF: Cycle:  0   F: -28.380513194282489   dF: -1.184e-04   |Residual|: 1.921e-03   |deigs|: 1.642e-01  t[s]:     27.50
	FillingsUpdate:  mu: -0.084876032  nElectrons: 9.000000  magneticMoment: [ Abs: 0.86213  Tot: -0.86000 ]
SCF: Cycle:  1   F: -28.380515266073701   dF: -2.072e-06   |Residual|: 5.347e-04   |deigs|: 1.431e-02  t[s]:     33.88
	FillingsUpdate:  mu: -0.084801566  nElectrons: 9.000000  magneticMoment: [ Abs: 0.86199  Tot: -0.86000 ]
SCF: Cycle:  2   F: -28.380515956605869   dF: -6.905e-07   |Residual|: 3.792e-04   |deigs|: 2.033e-03  t[s]:     40.43
	FillingsUpdate:  mu: -0.084723431  nElectrons: 9.000000  magneticMoment: [ Abs: 0.86232  Tot: -0.86000 ]
SCF: Cycle:  3   F: -28.380516333600919   dF: -3.770e-07   |Residual|: 2.929e-04   |deigs|: 1.407e-03  t[s]:     47.08
	FillingsUpdate:  mu: -0.084521585  nElectrons: 9.000000  magneticMoment: [ Abs: 0.86215  Tot: -0.86000 ]
SCF: Cycle:  4   F: -28.380516381649464   dF: -4.805e-08   |Residual|: 1.750e-04   |deigs|: 5.569e-04  t[s]:     53.77
	FillingsUpdate:  mu: -0.084391040  nElectrons: 9.000000  magneticMoment: [ Abs: 0.86212  Tot: -0.86000 ]
SCF: Cycle:  5   F: -28.380516515214598   dF: -1.336e-07   |Residual|: 1.197e-04   |deigs|: 3.515e-04  t[s]:     60.64
	FillingsUpdate:  mu: -0.084342793  nElectrons: 9.000000  magneticMoment: [ Abs: 0.86208  Tot: -0.86000 ]
SCF: Cycle:  6   F: -28.380516726469267   dF: -2.113e-07   |Residual|: 8.096e-05   |deigs|: 3.359e-04  t[s]:     67.56
	FillingsUpdate:  mu: -0.084313381  nElectrons: 9.000000  magneticMoment: [ Abs: 0.86216  Tot: -0.86000 ]
SCF: Cycle:  7   F: -28.380516828144536   dF: -1.017e-07   |Residual|: 6.128e-05   |deigs|: 2.519e-04  t[s]:     74.70
	FillingsUpdate:  mu: -0.084303585  nElectrons: 9.000000  magneticMoment: [ Abs: 0.86212  Tot: -0.86000 ]
SCF: Cycle:  8   F: -28.380516851324629   dF: -2.318e-08   |Residual|: 5.009e-05   |deigs|: 1.459e-04  t[s]:     81.91
	FillingsUpdate:  mu: -0.084289636  nElectrons: 9.000000  magneticMoment: [ Abs: 0.86214  Tot: -0.86000 ]
SCF: Cycle:  9   F: -28.380516844867810   dF: +6.457e-09   |Residual|: 3.932e-05   |deigs|: 1.227e-04  t[s]:     89.19
	FillingsUpdate:  mu: -0.084259874  nElectrons: 9.000000  magneticMoment: [ Abs: 0.86215  Tot: -0.86000 ]
SCF: Cycle: 10   F: -28.380516762286653   dF: +8.258e-08   |Residual|: 3.424e-05   |deigs|: 1.152e-04  t[s]:     96.64
	FillingsUpdate:  mu: -0.084227068  nElectrons: 9.000000  magneticMoment: [ Abs: 0.86222  Tot: -0.86000 ]
SCF: Cycle: 11   F: -28.380516539107923   dF: +2.232e-07   |Residual|: 3.274e-05   |deigs|: 9.274e-05  t[s]:    104.02
	FillingsUpdate:  mu: -0.084202726  nElectrons: 9.000000  magneticMoment: [ Abs: 0.86234  Tot: -0.86000 ]
SCF: Cycle: 12   F: -28.380516415011193   dF: +1.241e-07   |Residual|: 2.790e-05   |deigs|: 6.150e-05  t[s]:    111.40
	FillingsUpdate:  mu: -0.084180555  nElectrons: 9.000000  magneticMoment: [ Abs: 0.86231  Tot: -0.86000 ]
SCF: Cycle: 13   F: -28.380516606257331   dF: -1.912e-07   |Residual|: 2.388e-05   |deigs|: 3.511e-05  t[s]:    118.81
	FillingsUpdate:  mu: -0.084141082  nElectrons: 9.000000  magneticMoment: [ Abs: 0.86229  Tot: -0.86000 ]
SCF: Cycle: 14   F: -28.380516761923722   dF: -1.557e-07   |Residual|: 2.209e-05   |deigs|: 4.889e-05  t[s]:    126.01
	FillingsUpdate:  mu: -0.084103073  nElectrons: 9.000000  magneticMoment: [ Abs: 0.86228  Tot: -0.86000 ]
SCF: Cycle: 15   F: -28.380516728713896   dF: +3.321e-08   |Residual|: 2.159e-05   |deigs|: 5.093e-05  t[s]:    133.24
	FillingsUpdate:  mu: -0.084088090  nElectrons: 9.000000  magneticMoment: [ Abs: 0.86222  Tot: -0.86000 ]
SCF: Cycle: 16   F: -28.380516763925286   dF: -3.521e-08   |Residual|: 2.013e-05   |deigs|: 2.789e-05  t[s]:    140.67
	FillingsUpdate:  mu: -0.084075971  nElectrons: 9.000000  magneticMoment: [ Abs: 0.86220  Tot: -0.86000 ]
SCF: Cycle: 17   F: -28.380516762784310   dF: +1.141e-09   |Residual|: 1.506e-05   |deigs|: 2.426e-05  t[s]:    148.10
	FillingsUpdate:  mu: -0.084062202  nElectrons: 9.000000  magneticMoment: [ Abs: 0.86219  Tot: -0.86000 ]
SCF: Cycle: 18   F: -28.380516877525231   dF: -1.147e-07   |Residual|: 1.088e-05   |deigs|: 1.545e-05  t[s]:    155.54
	FillingsUpdate:  mu: -0.084059898  nElectrons: 9.000000  magneticMoment: [ Abs: 0.86217  Tot: -0.86000 ]
SCF: Cycle: 19   F: -28.380516939136722   dF: -6.161e-08   |Residual|: 8.498e-06   |deigs|: 1.382e-05  t[s]:    162.56
	FillingsUpdate:  mu: -0.084057140  nElectrons: 9.000000  magneticMoment: [ Abs: 0.86216  Tot: -0.86000 ]
SCF: Cycle: 20   F: -28.380516944219242   dF: -5.083e-09   |Residual|: 6.639e-06   |deigs|: 1.550e-05  t[s]:    169.74
	FillingsUpdate:  mu: -0.084054260  nElectrons: 9.000000  magneticMoment: [ Abs: 0.86214  Tot: -0.86000 ]
SCF: Cycle: 21   F: -28.380516994050833   dF: -4.983e-08   |Residual|: 4.387e-06   |deigs|: 1.930e-05  t[s]:    177.07
	FillingsUpdate:  mu: -0.084051639  nElectrons: 9.000000  magneticMoment: [ Abs: 0.86213  Tot: -0.86000 ]
SCF: Cycle: 22   F: -28.380517005853719   dF: -1.180e-08   |Residual|: 3.227e-06   |deigs|: 2.088e-05  t[s]:    183.79
	FillingsUpdate:  mu: -0.084049611  nElectrons: 9.000000  magneticMoment: [ Abs: 0.86213  Tot: -0.86000 ]
SCF: Cycle: 23   F: -28.380517002680609   dF: +3.173e-09   |Residual|: 2.208e-06   |deigs|: 2.300e-05  t[s]:    191.08
	FillingsUpdate:  mu: -0.084048132  nElectrons: 9.000000  magneticMoment: [ Abs: 0.86213  Tot: -0.86000 ]
SCF: Cycle: 24   F: -28.380517013450348   dF: -1.077e-08   |Residual|: 1.362e-06   |deigs|: 2.447e-05  t[s]:    198.48
	FillingsUpdate:  mu: -0.084047867  nElectrons: 9.000000  magneticMoment: [ Abs: 0.86213  Tot: -0.86000 ]
SCF: Cycle: 25   F: -28.380517014333769   dF: -8.834e-10   |Residual|: 1.022e-06   |deigs|: 2.621e-05  t[s]:    205.06
	FillingsUpdate:  mu: -0.084048314  nElectrons: 9.000000  magneticMoment: [ Abs: 0.86213  Tot: -0.86000 ]
SCF: Cycle: 26   F: -28.380517014865511   dF: -5.317e-10   |Residual|: 6.248e-07   |deigs|: 2.824e-05  t[s]:    212.26
SCF: Converged (|Delta E|<1.000000e-08 for 2 iters).


# Ionic positions in lattice coordinates:
ion K   0.000000000000000   0.000000000000000   0.000000000000000 0

# Forces in Lattice coordinates:
force K   0.000000000000000   0.000000000000000   0.000000000000000 0

# Energy components:
   Eewald =       -9.0240130501663280
       EH =       13.7893291524506658
     Eloc =      -36.0007130038166565
      Enl =       -2.7666816109560566
   Epulay =        0.0000000066859396
      Exc =       -4.2456848682865331
       KE =        9.8672471743967680
-------------------------------------
     Etot =      -28.3805161996922024
       TS =        0.0000008151733071
-------------------------------------
        F =      -28.3805170148655108

IonicMinimize: Iter:   0  F: -28.380517014865511  |grad|_K:  0.000e+00  t[s]:    212.67
IonicMinimize: Converged (|grad|_K<1.000000e-04).

#--- Lowdin population analysis ---
# oxidation-state K +0.001
# magnetic-moments K -0.859

End date and time: Sat Feb  5 23:36:57 2022  (Duration: 0-0:03:32.73)
Done!
