The alkali metal is K
scale=2
magnetization=0.84
--------------------------------------------------------------------------
The library attempted to open the following supporting CUDA libraries,
but each of them failed.  CUDA-aware support is disabled.
libcuda.so.1: cannot open shared object file: No such file or directory
libcuda.dylib: cannot open shared object file: No such file or directory
/usr/lib64/libcuda.so.1: cannot open shared object file: No such file or directory
/usr/lib64/libcuda.dylib: cannot open shared object file: No such file or directory
If you are not interested in CUDA-aware support, then run with
--mca opal_warn_on_missing_libcuda 0 to suppress this message.  If you are interested
in CUDA-aware support, then try setting LD_LIBRARY_PATH to the location
of libcuda.so.1 to get passed this issue.
--------------------------------------------------------------------------
--------------------------------------------------------------------------
No OpenFabrics connection schemes reported that they were able to be
used on a specific port.  As such, the openib BTL (OpenFabrics
support) will be disabled for this port.

  Local host:           d-3-4-2
  Local device:         mlx5_1
  Local port:           1
  CPCs attempted:       rdmacm, udcm
--------------------------------------------------------------------------

*************** JDFTx 1.6.0 (git hash 42ebbcc2) ***************

Start date and time: Sat Feb  5 23:54:35 2022
Executable jdftx with command-line: -i Alkali.in
Running on hosts (process indices):  d-3-4-2 (0-18)
Divided in process groups (process indices):  0 (0)  1 (1)  2 (2)  3 (3)  4 (4)  5 (5)  6 (6)  7 (7)  8 (8)  9 (9)  10 (10)  11 (11)  12 (12)  13 (13)  14 (14)  15 (15)  16 (16)  17 (17)  18 (18)
Resource initialization completed at t[s]:      0.00
Run totals: 19 processes, 48 threads, 0 GPUs


Input parsed successfully to the following command list (including defaults):

basis kpoint-dependent
coords-type Lattice
core-overlap-check vector
coulomb-interaction Slab 001
davidson-band-ratio 1.1
dump End None
dump-name $INPUT.$VAR
elec-cutoff 20
elec-eigen-algo Davidson
elec-ex-corr gga-PBE
elec-initial-magnetization 0.840000 yes
elec-smearing Fermi 1e-05
electronic-minimize  \
	dirUpdateScheme      FletcherReeves \
	linminMethod         DirUpdateRecommended \
	nIterations          100 \
	history              15 \
	knormThreshold       0 \
	energyDiffThreshold  1e-08 \
	nEnergyDiff          2 \
	alphaTstart          1 \
	alphaTmin            1e-10 \
	updateTestStepSize   yes \
	alphaTreduceFactor   0.1 \
	alphaTincreaseFactor 3 \
	nAlphaAdjustMax      3 \
	wolfeEnergy          0.0001 \
	wolfeGradient        0.9 \
	fdTest               no
electronic-scf  \
	nIterations	10000 \
	energyDiffThreshold	1e-08 \
	residualThreshold	1e-07 \
	mixFraction	0.5 \
	qMetric	0.8 \
	history	10 \
	nEigSteps	2 \
	eigDiffThreshold	1e-08 \
	mixedVariable	Density \
	qKerker	0.8 \
	qKappa	-1 \
	verbose	no \
	mixFractionMag	1.5
exchange-regularization WignerSeitzTruncated
fluid None
fluid-ex-corr (null) lda-PZ
fluid-gummel-loop 10 1.000000e-05
fluid-minimize  \
	dirUpdateScheme      PolakRibiere \
	linminMethod         DirUpdateRecommended \
	nIterations          100 \
	history              15 \
	knormThreshold       0 \
	energyDiffThreshold  0 \
	nEnergyDiff          2 \
	alphaTstart          1 \
	alphaTmin            1e-10 \
	updateTestStepSize   yes \
	alphaTreduceFactor   0.1 \
	alphaTincreaseFactor 3 \
	nAlphaAdjustMax      3 \
	wolfeEnergy          0.0001 \
	wolfeGradient        0.9 \
	fdTest               no
fluid-solvent H2O 55.338 ScalarEOS \
	epsBulk 78.4 \
	pMol 0.92466 \
	epsInf 1.77 \
	Pvap 1.06736e-10 \
	sigmaBulk 4.62e-05 \
	Rvdw 2.61727 \
	Res 1.42 \
	tauNuc 343133 \
	poleEl 15 7 1
forces-output-coords Positions
ion K   0.000000000000000   0.000000000000000   0.000000000000000 0
ion-species SG15/$ID_ONCV_PBE.upf
ion-width 0
ionic-minimize  \
	dirUpdateScheme      L-BFGS \
	linminMethod         DirUpdateRecommended \
	nIterations          0 \
	history              15 \
	knormThreshold       0.0001 \
	energyDiffThreshold  1e-06 \
	nEnergyDiff          2 \
	alphaTstart          1 \
	alphaTmin            1e-10 \
	updateTestStepSize   yes \
	alphaTreduceFactor   0.1 \
	alphaTincreaseFactor 3 \
	nAlphaAdjustMax      3 \
	wolfeEnergy          0.0001 \
	wolfeGradient        0.9 \
	fdTest               no
kpoint   0.000000000000   0.000000000000   0.000000000000  1.00000000000000
kpoint-folding 12 12 1 
latt-move-scale 1 1 1
latt-scale 2 2 1 
lattice  \
	   4.727486978767153   -2.363743489383575    0.000000000000000  \
	  -0.000000000000000    4.094123819672498    0.000000000000000  \
	   0.000000000000000    0.000000000000000   40.000000000000000 
lattice-minimize  \
	dirUpdateScheme      L-BFGS \
	linminMethod         DirUpdateRecommended \
	nIterations          0 \
	history              15 \
	knormThreshold       0 \
	energyDiffThreshold  1e-06 \
	nEnergyDiff          2 \
	alphaTstart          1 \
	alphaTmin            1e-10 \
	updateTestStepSize   yes \
	alphaTreduceFactor   0.1 \
	alphaTincreaseFactor 3 \
	nAlphaAdjustMax      3 \
	wolfeEnergy          0.0001 \
	wolfeGradient        0.9 \
	fdTest               no
lcao-params -1 1e-06 1e-05
pcm-variant GLSSA13
spintype z-spin
subspace-rotation-factor 1 yes
symmetries automatic
symmetry-threshold 0.0001



---------- Setting up symmetries ----------

Found 24 point-group symmetries of the bravais lattice
Found 24 space-group symmetries with basis
Applied RMS atom displacement 0 bohrs to make symmetries exact.

---------- Initializing the Grid ----------
R = 
[      9.45497     -4.72749            0  ]
[            0      8.18825            0  ]
[            0            0           40  ]
unit cell volume = 3096.79
G =
[   0.664538   0.383671         -0  ]
[          0   0.767342         -0  ]
[         -0         -0    0.15708  ]
Minimum fftbox size, Smin = [  40  40  164  ]
Chosen fftbox size, S = [  40  40  168  ]

---------- Exchange Correlation functional ----------
Initalized PBE GGA exchange.
Initalized PBE GGA correlation.

---------- Setting up pseudopotentials ----------
Width of ionic core gaussian charges (only for fluid interactions / plotting) set to 0

Reading pseudopotential file '/home/gridsan/aligho/DFT/build-Nov24/pseudopotentials/SG15/K_ONCV_PBE.upf':
  'K' pseudopotential, 'PBE' functional
  Generated using ONCVPSP code by D. R. Hamann
  Author: Martin Schlipf and Francois Gygi  Date: 150915.
  9 valence electrons, 3 orbitals, 6 projectors, 2222 radial grid points, with lMax = 2
  Transforming local potential to a uniform radial grid of dG=0.02 with 1489 points.
  Transforming nonlocal projectors to a uniform radial grid of dG=0.02 with 432 points.
    3S    l: 0   occupation:  2.0   eigenvalue: -1.298836
    3P    l: 1   occupation:  6.0   eigenvalue: -0.691386
    4S    l: 0   occupation:  1.0   eigenvalue: -0.085223
  Transforming atomic orbitals to a uniform radial grid of dG=0.02 with 432 points.
  Core radius for overlap checks: 2.06 bohrs.
  Reading pulay file /home/gridsan/aligho/DFT/build-Nov24/pseudopotentials/SG15/K_ONCV_PBE.pulay ... using dE_dnG = -1.597219e-05 computed for Ecut = 20.

Initialized 1 species with 1 total atoms.

Folded 1 k-points by 12x12x1 to 144 k-points.

---------- Setting up k-points, bands, fillings ----------
Reduced to 19 k-points under symmetry. 
Computing the number of bands and number of electrons
Calculating initial fillings.
nElectrons:   9.000000   nBands: 6   nStates: 38

----- Setting up reduced wavefunction bases (one per k-point) -----
average nbasis = 13230.521 , ideal nbasis = 13229.709

---------- Setting up coulomb interaction ----------
Initialized slab truncation along lattice direction 001

---------- Setting up 2D ewald sum ----------
Optimum gaussian width for ewald sums = 5.249020 bohr.
Real space sums over 289 unit cells with max indices [  8  8  0  ]
Reciprocal space sums over 81 terms with max indices [  4  4  0  ]

---------- Allocating electronic variables ----------
Initializing wave functions:  linear combination of atomic orbitals
Note: number of bands (6) exceeds available atomic orbitals (5)
K pseudo-atom occupations:   s ( 2 1 )  p ( 6 )
	FillingsUpdate:  mu: -0.091981735  nElectrons: 9.000000  magneticMoment: [ Abs: 0.84000  Tot: +0.84000 ]
LCAOMinimize: Iter:   0  F: -28.3834273133826080  |grad|_K:  1.194e-05  alpha:  1.000e+00
	FillingsUpdate:  mu: -0.091978699  nElectrons: 9.000000  magneticMoment: [ Abs: 0.84000  Tot: +0.84000 ]
LCAOMinimize: Iter:   1  F: -28.3834274094909347  |grad|_K:  1.060e-07  alpha:  9.859e-01  linmin: -9.652e-03  cgtest:  1.991e-01  t[s]:      4.48
LCAOMinimize: Encountered beta<0, resetting CG.
[d-3-4-2:05570] 18 more processes have sent help message help-mpi-common-cuda.txt / dlopen failed
[d-3-4-2:05570] Set MCA parameter "orte_base_help_aggregate" to 0 to see all help / error messages
[d-3-4-2:05570] 18 more processes have sent help message help-mpi-btl-openib-cpc-base.txt / no cpcs for port
	FillingsUpdate:  mu: -0.091978724  nElectrons: 9.000000  magneticMoment: [ Abs: 0.84000  Tot: +0.84000 ]
LCAOMinimize: Iter:   2  F: -28.3834274094984025  |grad|_K:  1.239e-08  alpha:  8.821e-01  linmin: -1.157e-01  cgtest:  9.988e-01  t[s]:      5.69
LCAOMinimize: Encountered beta<0, resetting CG.
LCAOMinimize: Converged (|Delta F|<1.000000e-06 for 2 iters).


---- Citations for features of the code used in this run ----

   Software package:
      R. Sundararaman, K. Letchworth-Weaver, K.A. Schwarz, D. Gunceler, Y. Ozhabes and T.A. Arias, 'JDFTx: software for joint density-functional theory', SoftwareX 6, 278 (2017)

   gga-PBE exchange-correlation functional:
      J.P. Perdew, K. Burke and M. Ernzerhof, Phys. Rev. Lett. 77, 3865 (1996)

   Pseudopotentials:
      M Schlipf and F Gygi, Comput. Phys. Commun. 196, 36 (2015)

   Truncated Coulomb potentials:
      R. Sundararaman and T.A. Arias, Phys. Rev. B 87, 165122 (2013)

This list may not be complete. Please suggest additional citations or
report any other bugs at https://github.com/shankar1729/jdftx/issues

Initialization completed successfully at t[s]:      5.77


-------- Electronic minimization -----------
Will mix electronic density at each iteration.
	FillingsUpdate:  mu: -0.091978724  nElectrons: 9.000000  magneticMoment: [ Abs: 0.84000  Tot: +0.84000 ]
	FillingsUpdate:  mu: -0.105785653  nElectrons: 9.000000  magneticMoment: [ Abs: 0.84000  Tot: +0.84000 ]
SCF: Cycle:  0   F: -28.393571066238248   dF: -1.014e-02   |Residual|: 1.605e-02   |deigs|: 1.731e-01  t[s]:      8.15
	FillingsUpdate:  mu: -0.109219680  nElectrons: 9.000000  magneticMoment: [ Abs: 0.84000  Tot: +0.84000 ]
SCF: Cycle:  1   F: -28.394166016648189   dF: -5.950e-04   |Residual|: 1.202e-02   |deigs|: 8.863e-03  t[s]:      9.98
	FillingsUpdate:  mu: -0.108218780  nElectrons: 9.000000  magneticMoment: [ Abs: 0.84279  Tot: +0.84000 ]
SCF: Cycle:  2   F: -28.394331920769620   dF: -1.659e-04   |Residual|: 7.687e-03   |deigs|: 3.589e-03  t[s]:     11.79
	FillingsUpdate:  mu: -0.108066135  nElectrons: 9.000000  magneticMoment: [ Abs: 0.84000  Tot: +0.84000 ]
SCF: Cycle:  3   F: -28.394432662895738   dF: -1.007e-04   |Residual|: 4.148e-03   |deigs|: 2.615e-03  t[s]:     13.64
	FillingsUpdate:  mu: -0.104115869  nElectrons: 9.000000  magneticMoment: [ Abs: 0.84002  Tot: +0.84000 ]
SCF: Cycle:  4   F: -28.394498950146641   dF: -6.629e-05   |Residual|: 2.339e-03   |deigs|: 5.149e-03  t[s]:     15.53
	FillingsUpdate:  mu: -0.102780815  nElectrons: 9.000000  magneticMoment: [ Abs: 0.84004  Tot: +0.84000 ]
SCF: Cycle:  5   F: -28.394528290749754   dF: -2.934e-05   |Residual|: 1.985e-03   |deigs|: 2.577e-03  t[s]:     17.50
	FillingsUpdate:  mu: -0.100327807  nElectrons: 9.000000  magneticMoment: [ Abs: 0.84363  Tot: +0.84000 ]
SCF: Cycle:  6   F: -28.394545743458462   dF: -1.745e-05   |Residual|: 1.422e-03   |deigs|: 2.778e-03  t[s]:     19.53
	FillingsUpdate:  mu: -0.097832294  nElectrons: 9.000000  magneticMoment: [ Abs: 0.84650  Tot: +0.84000 ]
SCF: Cycle:  7   F: -28.394563366117932   dF: -1.762e-05   |Residual|: 1.165e-03   |deigs|: 3.258e-03  t[s]:     21.56
	FillingsUpdate:  mu: -0.097477615  nElectrons: 9.000000  magneticMoment: [ Abs: 0.84139  Tot: +0.84000 ]
SCF: Cycle:  8   F: -28.394595502850773   dF: -3.214e-05   |Residual|: 8.950e-04   |deigs|: 9.459e-04  t[s]:     23.54
	FillingsUpdate:  mu: -0.096794619  nElectrons: 9.000000  magneticMoment: [ Abs: 0.84011  Tot: +0.84000 ]
SCF: Cycle:  9   F: -28.394608132913120   dF: -1.263e-05   |Residual|: 7.638e-04   |deigs|: 8.243e-04  t[s]:     25.54
	FillingsUpdate:  mu: -0.095598589  nElectrons: 9.000000  magneticMoment: [ Abs: 0.84219  Tot: +0.84000 ]
SCF: Cycle: 10   F: -28.394613986428865   dF: -5.854e-06   |Residual|: 6.286e-04   |deigs|: 1.190e-03  t[s]:     27.69
	FillingsUpdate:  mu: -0.094811201  nElectrons: 9.000000  magneticMoment: [ Abs: 0.84331  Tot: +0.84000 ]
SCF: Cycle: 11   F: -28.394617081299124   dF: -3.095e-06   |Residual|: 5.281e-04   |deigs|: 7.596e-04  t[s]:     29.69
	FillingsUpdate:  mu: -0.094207879  nElectrons: 9.000000  magneticMoment: [ Abs: 0.84339  Tot: +0.84000 ]
SCF: Cycle: 12   F: -28.394621887872123   dF: -4.807e-06   |Residual|: 4.683e-04   |deigs|: 6.928e-04  t[s]:     31.70
	FillingsUpdate:  mu: -0.092984926  nElectrons: 9.000000  magneticMoment: [ Abs: 0.84426  Tot: +0.84000 ]
SCF: Cycle: 13   F: -28.394625952793991   dF: -4.065e-06   |Residual|: 4.243e-04   |deigs|: 1.321e-03  t[s]:     33.67
	FillingsUpdate:  mu: -0.091511000  nElectrons: 9.000000  magneticMoment: [ Abs: 0.84271  Tot: +0.84000 ]
SCF: Cycle: 14   F: -28.394629032987687   dF: -3.080e-06   |Residual|: 3.876e-04   |deigs|: 1.514e-03  t[s]:     35.67
	FillingsUpdate:  mu: -0.090681080  nElectrons: 9.000000  magneticMoment: [ Abs: 0.84130  Tot: +0.84000 ]
SCF: Cycle: 15   F: -28.394631007047746   dF: -1.974e-06   |Residual|: 3.576e-04   |deigs|: 9.174e-04  t[s]:     37.67
	FillingsUpdate:  mu: -0.089785000  nElectrons: 9.000000  magneticMoment: [ Abs: 0.84139  Tot: +0.84000 ]
SCF: Cycle: 16   F: -28.394633918024315   dF: -2.911e-06   |Residual|: 2.636e-04   |deigs|: 9.732e-04  t[s]:     39.68
	FillingsUpdate:  mu: -0.089142282  nElectrons: 9.000000  magneticMoment: [ Abs: 0.84094  Tot: +0.84000 ]
SCF: Cycle: 17   F: -28.394640324995329   dF: -6.407e-06   |Residual|: 5.071e-04   |deigs|: 7.282e-04  t[s]:     41.72
	FillingsUpdate:  mu: -0.089487141  nElectrons: 9.000000  magneticMoment: [ Abs: 0.84065  Tot: +0.84000 ]
SCF: Cycle: 18   F: -28.394641664796641   dF: -1.340e-06   |Residual|: 3.806e-04   |deigs|: 4.837e-04  t[s]:     43.76
	FillingsUpdate:  mu: -0.089806803  nElectrons: 9.000000  magneticMoment: [ Abs: 0.84062  Tot: +0.84000 ]
SCF: Cycle: 19   F: -28.394641478021637   dF: +1.868e-07   |Residual|: 2.062e-04   |deigs|: 3.621e-04  t[s]:     45.81
	FillingsUpdate:  mu: -0.089917146  nElectrons: 9.000000  magneticMoment: [ Abs: 0.84081  Tot: +0.84000 ]
SCF: Cycle: 20   F: -28.394642593255242   dF: -1.115e-06   |Residual|: 1.312e-04   |deigs|: 4.430e-04  t[s]:     47.90
	FillingsUpdate:  mu: -0.089930198  nElectrons: 9.000000  magneticMoment: [ Abs: 0.84098  Tot: +0.84000 ]
SCF: Cycle: 21   F: -28.394642698646241   dF: -1.054e-07   |Residual|: 1.101e-04   |deigs|: 4.519e-04  t[s]:     49.91
	FillingsUpdate:  mu: -0.089822840  nElectrons: 9.000000  magneticMoment: [ Abs: 0.84095  Tot: +0.84000 ]
SCF: Cycle: 22   F: -28.394643117694429   dF: -4.190e-07   |Residual|: 8.935e-05   |deigs|: 2.072e-04  t[s]:     51.92
	FillingsUpdate:  mu: -0.089744243  nElectrons: 9.000000  magneticMoment: [ Abs: 0.84076  Tot: +0.84000 ]
SCF: Cycle: 23   F: -28.394643200622010   dF: -8.293e-08   |Residual|: 3.376e-05   |deigs|: 1.561e-04  t[s]:     53.93
	FillingsUpdate:  mu: -0.089720072  nElectrons: 9.000000  magneticMoment: [ Abs: 0.84068  Tot: +0.84000 ]
SCF: Cycle: 24   F: -28.394643266460584   dF: -6.584e-08   |Residual|: 2.501e-05   |deigs|: 9.461e-05  t[s]:     55.93
	FillingsUpdate:  mu: -0.089708182  nElectrons: 9.000000  magneticMoment: [ Abs: 0.84055  Tot: +0.84000 ]
SCF: Cycle: 25   F: -28.394643297734309   dF: -3.127e-08   |Residual|: 3.394e-05   |deigs|: 7.017e-05  t[s]:     57.91
	FillingsUpdate:  mu: -0.089756629  nElectrons: 9.000000  magneticMoment: [ Abs: 0.84036  Tot: +0.84000 ]
SCF: Cycle: 26   F: -28.394643322998501   dF: -2.526e-08   |Residual|: 2.013e-05   |deigs|: 5.579e-05  t[s]:     59.93
	FillingsUpdate:  mu: -0.089771717  nElectrons: 9.000000  magneticMoment: [ Abs: 0.84018  Tot: +0.84000 ]
SCF: Cycle: 27   F: -28.394643329908792   dF: -6.910e-09   |Residual|: 1.294e-05   |deigs|: 3.495e-05  t[s]:     61.94
	FillingsUpdate:  mu: -0.089771539  nElectrons: 9.000000  magneticMoment: [ Abs: 0.84009  Tot: +0.84000 ]
SCF: Cycle: 28   F: -28.394643341518801   dF: -1.161e-08   |Residual|: 7.575e-06   |deigs|: 2.695e-05  t[s]:     63.93
	FillingsUpdate:  mu: -0.089754778  nElectrons: 9.000000  magneticMoment: [ Abs: 0.84007  Tot: +0.84000 ]
SCF: Cycle: 29   F: -28.394643347183244   dF: -5.664e-09   |Residual|: 6.769e-06   |deigs|: 2.089e-05  t[s]:     65.96
	FillingsUpdate:  mu: -0.089732575  nElectrons: 9.000000  magneticMoment: [ Abs: 0.84005  Tot: +0.84000 ]
SCF: Cycle: 30   F: -28.394643351769290   dF: -4.586e-09   |Residual|: 6.090e-06   |deigs|: 2.274e-05  t[s]:     67.98
SCF: Converged (|Delta E|<1.000000e-08 for 2 iters).


# Ionic positions in lattice coordinates:
ion K   0.000000000000000   0.000000000000000   0.000000000000000 0

# Forces in Lattice coordinates:
force K   0.000000000000000  -0.000000000000000   0.000000000000000 0

# Energy components:
   Eewald =      -18.0480261003326561
       EH =        4.8914731676961187
     Eloc =      -18.0838907925749020
      Enl =       -2.7794894410945936
   Epulay =        0.0000000041876954
      Exc =       -4.2695323789908732
       KE =        9.8948229727006556
-------------------------------------
     Etot =      -28.3946425684085533
       TS =        0.0000007833607372
-------------------------------------
        F =      -28.3946433517692896

IonicMinimize: Iter:   0  F: -28.394643351769290  |grad|_K:  0.000e+00  t[s]:     68.09
IonicMinimize: Converged (|grad|_K<1.000000e-04).

#--- Lowdin population analysis ---
# oxidation-state K +0.170
# magnetic-moments K +0.673

End date and time: Sat Feb  5 23:55:43 2022  (Duration: 0-0:01:08.12)
Done!
scale=3
magnetization=0.84
--------------------------------------------------------------------------
The library attempted to open the following supporting CUDA libraries,
but each of them failed.  CUDA-aware support is disabled.
libcuda.so.1: cannot open shared object file: No such file or directory
libcuda.dylib: cannot open shared object file: No such file or directory
/usr/lib64/libcuda.so.1: cannot open shared object file: No such file or directory
/usr/lib64/libcuda.dylib: cannot open shared object file: No such file or directory
If you are not interested in CUDA-aware support, then run with
--mca opal_warn_on_missing_libcuda 0 to suppress this message.  If you are interested
in CUDA-aware support, then try setting LD_LIBRARY_PATH to the location
of libcuda.so.1 to get passed this issue.
--------------------------------------------------------------------------
--------------------------------------------------------------------------
No OpenFabrics connection schemes reported that they were able to be
used on a specific port.  As such, the openib BTL (OpenFabrics
support) will be disabled for this port.

  Local host:           d-3-4-2
  Local device:         mlx5_1
  Local port:           1
  CPCs attempted:       rdmacm, udcm
--------------------------------------------------------------------------

*************** JDFTx 1.6.0 (git hash 42ebbcc2) ***************

Start date and time: Sat Feb  5 23:55:44 2022
Executable jdftx with command-line: -i Alkali.in
Running on hosts (process indices):  d-3-4-2 (0-18)
Divided in process groups (process indices):  0 (0)  1 (1)  2 (2)  3 (3)  4 (4)  5 (5)  6 (6)  7 (7)  8 (8)  9 (9)  10 (10)  11 (11)  12 (12)  13 (13)  14 (14)  15 (15)  16 (16)  17 (17)  18 (18)
Resource initialization completed at t[s]:      0.00
Run totals: 19 processes, 48 threads, 0 GPUs


Input parsed successfully to the following command list (including defaults):

basis kpoint-dependent
coords-type Lattice
core-overlap-check vector
coulomb-interaction Slab 001
davidson-band-ratio 1.1
dump End None
dump-name $INPUT.$VAR
elec-cutoff 20
elec-eigen-algo Davidson
elec-ex-corr gga-PBE
elec-initial-magnetization 0.840000 yes
elec-smearing Fermi 1e-05
electronic-minimize  \
	dirUpdateScheme      FletcherReeves \
	linminMethod         DirUpdateRecommended \
	nIterations          100 \
	history              15 \
	knormThreshold       0 \
	energyDiffThreshold  1e-08 \
	nEnergyDiff          2 \
	alphaTstart          1 \
	alphaTmin            1e-10 \
	updateTestStepSize   yes \
	alphaTreduceFactor   0.1 \
	alphaTincreaseFactor 3 \
	nAlphaAdjustMax      3 \
	wolfeEnergy          0.0001 \
	wolfeGradient        0.9 \
	fdTest               no
electronic-scf  \
	nIterations	10000 \
	energyDiffThreshold	1e-08 \
	residualThreshold	1e-07 \
	mixFraction	0.5 \
	qMetric	0.8 \
	history	10 \
	nEigSteps	2 \
	eigDiffThreshold	1e-08 \
	mixedVariable	Density \
	qKerker	0.8 \
	qKappa	-1 \
	verbose	no \
	mixFractionMag	1.5
exchange-regularization WignerSeitzTruncated
fluid None
fluid-ex-corr (null) lda-PZ
fluid-gummel-loop 10 1.000000e-05
fluid-minimize  \
	dirUpdateScheme      PolakRibiere \
	linminMethod         DirUpdateRecommended \
	nIterations          100 \
	history              15 \
	knormThreshold       0 \
	energyDiffThreshold  0 \
	nEnergyDiff          2 \
	alphaTstart          1 \
	alphaTmin            1e-10 \
	updateTestStepSize   yes \
	alphaTreduceFactor   0.1 \
	alphaTincreaseFactor 3 \
	nAlphaAdjustMax      3 \
	wolfeEnergy          0.0001 \
	wolfeGradient        0.9 \
	fdTest               no
fluid-solvent H2O 55.338 ScalarEOS \
	epsBulk 78.4 \
	pMol 0.92466 \
	epsInf 1.77 \
	Pvap 1.06736e-10 \
	sigmaBulk 4.62e-05 \
	Rvdw 2.61727 \
	Res 1.42 \
	tauNuc 343133 \
	poleEl 15 7 1
forces-output-coords Positions
ion K   0.000000000000000   0.000000000000000   0.000000000000000 0
ion-species SG15/$ID_ONCV_PBE.upf
ion-width 0
ionic-minimize  \
	dirUpdateScheme      L-BFGS \
	linminMethod         DirUpdateRecommended \
	nIterations          0 \
	history              15 \
	knormThreshold       0.0001 \
	energyDiffThreshold  1e-06 \
	nEnergyDiff          2 \
	alphaTstart          1 \
	alphaTmin            1e-10 \
	updateTestStepSize   yes \
	alphaTreduceFactor   0.1 \
	alphaTincreaseFactor 3 \
	nAlphaAdjustMax      3 \
	wolfeEnergy          0.0001 \
	wolfeGradient        0.9 \
	fdTest               no
kpoint   0.000000000000   0.000000000000   0.000000000000  1.00000000000000
kpoint-folding 12 12 1 
latt-move-scale 1 1 1
latt-scale 3 3 1 
lattice  \
	   4.727486978767153   -2.363743489383575    0.000000000000000  \
	  -0.000000000000000    4.094123819672498    0.000000000000000  \
	   0.000000000000000    0.000000000000000   40.000000000000000 
lattice-minimize  \
	dirUpdateScheme      L-BFGS \
	linminMethod         DirUpdateRecommended \
	nIterations          0 \
	history              15 \
	knormThreshold       0 \
	energyDiffThreshold  1e-06 \
	nEnergyDiff          2 \
	alphaTstart          1 \
	alphaTmin            1e-10 \
	updateTestStepSize   yes \
	alphaTreduceFactor   0.1 \
	alphaTincreaseFactor 3 \
	nAlphaAdjustMax      3 \
	wolfeEnergy          0.0001 \
	wolfeGradient        0.9 \
	fdTest               no
lcao-params -1 1e-06 1e-05
pcm-variant GLSSA13
spintype z-spin
subspace-rotation-factor 1 yes
symmetries automatic
symmetry-threshold 0.0001



---------- Setting up symmetries ----------

Found 24 point-group symmetries of the bravais lattice
Found 24 space-group symmetries with basis
Applied RMS atom displacement 0 bohrs to make symmetries exact.

---------- Initializing the Grid ----------
R = 
[      14.1825     -7.09123            0  ]
[            0      12.2824            0  ]
[            0            0           40  ]
unit cell volume = 6967.77
G =
[   0.443025   0.255781         -0  ]
[          0   0.511561         -0  ]
[         -0         -0    0.15708  ]
Minimum fftbox size, Smin = [  60  60  164  ]
Chosen fftbox size, S = [  60  60  168  ]

---------- Exchange Correlation functional ----------
Initalized PBE GGA exchange.
Initalized PBE GGA correlation.

---------- Setting up pseudopotentials ----------
Width of ionic core gaussian charges (only for fluid interactions / plotting) set to 0

Reading pseudopotential file '/home/gridsan/aligho/DFT/build-Nov24/pseudopotentials/SG15/K_ONCV_PBE.upf':
  'K' pseudopotential, 'PBE' functional
  Generated using ONCVPSP code by D. R. Hamann
  Author: Martin Schlipf and Francois Gygi  Date: 150915.
  9 valence electrons, 3 orbitals, 6 projectors, 2222 radial grid points, with lMax = 2
  Transforming local potential to a uniform radial grid of dG=0.02 with 1489 points.
  Transforming nonlocal projectors to a uniform radial grid of dG=0.02 with 432 points.
    3S    l: 0   occupation:  2.0   eigenvalue: -1.298836
    3P    l: 1   occupation:  6.0   eigenvalue: -0.691386
    4S    l: 0   occupation:  1.0   eigenvalue: -0.085223
  Transforming atomic orbitals to a uniform radial grid of dG=0.02 with 432 points.
  Core radius for overlap checks: 2.06 bohrs.
  Reading pulay file /home/gridsan/aligho/DFT/build-Nov24/pseudopotentials/SG15/K_ONCV_PBE.pulay ... using dE_dnG = -1.597219e-05 computed for Ecut = 20.

Initialized 1 species with 1 total atoms.

Folded 1 k-points by 12x12x1 to 144 k-points.

---------- Setting up k-points, bands, fillings ----------
Reduced to 19 k-points under symmetry. 
Computing the number of bands and number of electrons
Calculating initial fillings.
nElectrons:   9.000000   nBands: 6   nStates: 38

----- Setting up reduced wavefunction bases (one per k-point) -----
average nbasis = 29766.104 , ideal nbasis = 29766.845

---------- Setting up coulomb interaction ----------
Initialized slab truncation along lattice direction 001

---------- Setting up 2D ewald sum ----------
Optimum gaussian width for ewald sums = 7.873530 bohr.
Real space sums over 289 unit cells with max indices [  8  8  0  ]
Reciprocal space sums over 81 terms with max indices [  4  4  0  ]

---------- Allocating electronic variables ----------
Initializing wave functions:  linear combination of atomic orbitals
Note: number of bands (6) exceeds available atomic orbitals (5)
K pseudo-atom occupations:   s ( 2 1 )  p ( 6 )
[d-3-4-2:32860] 18 more processes have sent help message help-mpi-common-cuda.txt / dlopen failed
[d-3-4-2:32860] Set MCA parameter "orte_base_help_aggregate" to 0 to see all help / error messages
[d-3-4-2:32860] 18 more processes have sent help message help-mpi-btl-openib-cpc-base.txt / no cpcs for port
	FillingsUpdate:  mu: -0.087697653  nElectrons: 9.000000  magneticMoment: [ Abs: 0.84000  Tot: +0.84000 ]
LCAOMinimize: Iter:   0  F: -28.3817879422093462  |grad|_K:  6.383e-06  alpha:  1.000e+00
	FillingsUpdate:  mu: -0.087696509  nElectrons: 9.000000  magneticMoment: [ Abs: 0.84000  Tot: +0.84000 ]
LCAOMinimize: Iter:   1  F: -28.3817879699395270  |grad|_K:  3.736e-08  alpha:  9.951e-01  linmin: -5.129e-03  cgtest:  1.119e-01  t[s]:      8.66
LCAOMinimize: Encountered beta<0, resetting CG.
	FillingsUpdate:  mu: -0.087696513  nElectrons: 9.000000  magneticMoment: [ Abs: 0.84000  Tot: +0.84000 ]
LCAOMinimize: Iter:   2  F: -28.3817879699405431  |grad|_K:  6.429e-09  alpha:  8.238e-01  linmin: -1.360e-01  cgtest:  9.996e-01  t[s]:     11.00
LCAOMinimize: Encountered beta<0, resetting CG.
LCAOMinimize: Converged (|Delta F|<1.000000e-06 for 2 iters).


---- Citations for features of the code used in this run ----

   Software package:
      R. Sundararaman, K. Letchworth-Weaver, K.A. Schwarz, D. Gunceler, Y. Ozhabes and T.A. Arias, 'JDFTx: software for joint density-functional theory', SoftwareX 6, 278 (2017)

   gga-PBE exchange-correlation functional:
      J.P. Perdew, K. Burke and M. Ernzerhof, Phys. Rev. Lett. 77, 3865 (1996)

   Pseudopotentials:
      M Schlipf and F Gygi, Comput. Phys. Commun. 196, 36 (2015)

   Truncated Coulomb potentials:
      R. Sundararaman and T.A. Arias, Phys. Rev. B 87, 165122 (2013)

This list may not be complete. Please suggest additional citations or
report any other bugs at https://github.com/shankar1729/jdftx/issues

Initialization completed successfully at t[s]:     11.16


-------- Electronic minimization -----------
Will mix electronic density at each iteration.
	FillingsUpdate:  mu: -0.087696513  nElectrons: 9.000000  magneticMoment: [ Abs: 0.84000  Tot: +0.84000 ]
	FillingsUpdate:  mu: -0.088292074  nElectrons: 9.000000  magneticMoment: [ Abs: 0.84000  Tot: +0.84000 ]
SCF: Cycle:  0   F: -28.382777324924806   dF: -9.894e-04   |Residual|: 3.089e-03   |deigs|: 1.734e-01  t[s]:     15.90
	FillingsUpdate:  mu: -0.088491049  nElectrons: 9.000000  magneticMoment: [ Abs: 0.84065  Tot: +0.84000 ]
SCF: Cycle:  1   F: -28.382804516281482   dF: -2.719e-05   |Residual|: 1.919e-03   |deigs|: 5.277e-03  t[s]:     19.58
	FillingsUpdate:  mu: -0.088663170  nElectrons: 9.000000  magneticMoment: [ Abs: 0.84163  Tot: +0.84000 ]
SCF: Cycle:  2   F: -28.382822482459872   dF: -1.797e-05   |Residual|: 1.512e-03   |deigs|: 2.982e-03  t[s]:     23.33
	FillingsUpdate:  mu: -0.088958829  nElectrons: 9.000000  magneticMoment: [ Abs: 0.84211  Tot: +0.84000 ]
SCF: Cycle:  3   F: -28.382839547421963   dF: -1.706e-05   |Residual|: 1.122e-03   |deigs|: 2.090e-03  t[s]:     27.13
	FillingsUpdate:  mu: -0.089051704  nElectrons: 9.000000  magneticMoment: [ Abs: 0.84163  Tot: +0.84000 ]
SCF: Cycle:  4   F: -28.382854047066054   dF: -1.450e-05   |Residual|: 7.287e-04   |deigs|: 1.611e-03  t[s]:     30.97
	FillingsUpdate:  mu: -0.089052136  nElectrons: 9.000000  magneticMoment: [ Abs: 0.84186  Tot: +0.84000 ]
SCF: Cycle:  5   F: -28.382863566135050   dF: -9.519e-06   |Residual|: 3.794e-04   |deigs|: 1.114e-03  t[s]:     34.83
	FillingsUpdate:  mu: -0.088998549  nElectrons: 9.000000  magneticMoment: [ Abs: 0.84154  Tot: +0.84000 ]
SCF: Cycle:  6   F: -28.382866603846413   dF: -3.038e-06   |Residual|: 2.784e-04   |deigs|: 1.677e-03  t[s]:     38.75
	FillingsUpdate:  mu: -0.088878603  nElectrons: 9.000000  magneticMoment: [ Abs: 0.84189  Tot: +0.84000 ]
SCF: Cycle:  7   F: -28.382869510535766   dF: -2.907e-06   |Residual|: 2.121e-04   |deigs|: 9.430e-04  t[s]:     42.75
	FillingsUpdate:  mu: -0.088683364  nElectrons: 9.000000  magneticMoment: [ Abs: 0.84202  Tot: +0.84000 ]
SCF: Cycle:  8   F: -28.382870168794259   dF: -6.583e-07   |Residual|: 1.735e-04   |deigs|: 3.077e-04  t[s]:     46.82
	FillingsUpdate:  mu: -0.088485229  nElectrons: 9.000000  magneticMoment: [ Abs: 0.84231  Tot: +0.84000 ]
SCF: Cycle:  9   F: -28.382870567980564   dF: -3.992e-07   |Residual|: 1.557e-04   |deigs|: 2.519e-04  t[s]:     51.13
	FillingsUpdate:  mu: -0.088335268  nElectrons: 9.000000  magneticMoment: [ Abs: 0.84199  Tot: +0.84000 ]
SCF: Cycle: 10   F: -28.382871204527177   dF: -6.365e-07   |Residual|: 1.407e-04   |deigs|: 2.389e-04  t[s]:     55.35
	FillingsUpdate:  mu: -0.088205355  nElectrons: 9.000000  magneticMoment: [ Abs: 0.84270  Tot: +0.84000 ]
SCF: Cycle: 11   F: -28.382871672865118   dF: -4.683e-07   |Residual|: 1.041e-04   |deigs|: 1.919e-04  t[s]:     59.58
	FillingsUpdate:  mu: -0.088126938  nElectrons: 9.000000  magneticMoment: [ Abs: 0.84259  Tot: +0.84000 ]
SCF: Cycle: 12   F: -28.382872396801119   dF: -7.239e-07   |Residual|: 8.933e-05   |deigs|: 9.599e-05  t[s]:     63.78
	FillingsUpdate:  mu: -0.087963243  nElectrons: 9.000000  magneticMoment: [ Abs: 0.84261  Tot: +0.84000 ]
SCF: Cycle: 13   F: -28.382872539204811   dF: -1.424e-07   |Residual|: 9.042e-05   |deigs|: 1.994e-04  t[s]:     68.01
	FillingsUpdate:  mu: -0.087692448  nElectrons: 9.000000  magneticMoment: [ Abs: 0.84258  Tot: +0.84000 ]
SCF: Cycle: 14   F: -28.382872382710833   dF: +1.565e-07   |Residual|: 9.064e-05   |deigs|: 2.992e-04  t[s]:     72.28
	FillingsUpdate:  mu: -0.087593915  nElectrons: 9.000000  magneticMoment: [ Abs: 0.84262  Tot: +0.84000 ]
SCF: Cycle: 15   F: -28.382872812221684   dF: -4.295e-07   |Residual|: 7.619e-05   |deigs|: 1.604e-04  t[s]:     76.46
	FillingsUpdate:  mu: -0.087521900  nElectrons: 9.000000  magneticMoment: [ Abs: 0.84202  Tot: +0.84000 ]
SCF: Cycle: 16   F: -28.382873156120116   dF: -3.439e-07   |Residual|: 6.296e-05   |deigs|: 1.131e-04  t[s]:     80.62
	FillingsUpdate:  mu: -0.087429229  nElectrons: 9.000000  magneticMoment: [ Abs: 0.84170  Tot: +0.84000 ]
SCF: Cycle: 17   F: -28.382873415603779   dF: -2.595e-07   |Residual|: 5.017e-05   |deigs|: 1.132e-04  t[s]:     84.78
	FillingsUpdate:  mu: -0.087405115  nElectrons: 9.000000  magneticMoment: [ Abs: 0.84169  Tot: +0.84000 ]
SCF: Cycle: 18   F: -28.382873550022648   dF: -1.344e-07   |Residual|: 3.495e-05   |deigs|: 3.542e-05  t[s]:     89.02
	FillingsUpdate:  mu: -0.087381829  nElectrons: 9.000000  magneticMoment: [ Abs: 0.84174  Tot: +0.84000 ]
SCF: Cycle: 19   F: -28.382873614215189   dF: -6.419e-08   |Residual|: 2.165e-05   |deigs|: 2.577e-05  t[s]:     93.29
	FillingsUpdate:  mu: -0.087381557  nElectrons: 9.000000  magneticMoment: [ Abs: 0.84171  Tot: +0.84000 ]
SCF: Cycle: 20   F: -28.382873724493230   dF: -1.103e-07   |Residual|: 1.562e-05   |deigs|: 3.468e-05  t[s]:     97.51
	FillingsUpdate:  mu: -0.087387037  nElectrons: 9.000000  magneticMoment: [ Abs: 0.84168  Tot: +0.84000 ]
SCF: Cycle: 21   F: -28.382873761949487   dF: -3.746e-08   |Residual|: 9.467e-06   |deigs|: 5.348e-05  t[s]:    101.54
	FillingsUpdate:  mu: -0.087382260  nElectrons: 9.000000  magneticMoment: [ Abs: 0.84170  Tot: +0.84000 ]
SCF: Cycle: 22   F: -28.382873774676224   dF: -1.273e-08   |Residual|: 5.538e-06   |deigs|: 5.924e-05  t[s]:    105.63
	FillingsUpdate:  mu: -0.087382806  nElectrons: 9.000000  magneticMoment: [ Abs: 0.84172  Tot: +0.84000 ]
SCF: Cycle: 23   F: -28.382873788756196   dF: -1.408e-08   |Residual|: 3.953e-06   |deigs|: 7.351e-05  t[s]:    109.78
	FillingsUpdate:  mu: -0.087384384  nElectrons: 9.000000  magneticMoment: [ Abs: 0.84173  Tot: +0.84000 ]
SCF: Cycle: 24   F: -28.382873795880496   dF: -7.124e-09   |Residual|: 3.118e-06   |deigs|: 7.638e-05  t[s]:    113.78
	FillingsUpdate:  mu: -0.087388152  nElectrons: 9.000000  magneticMoment: [ Abs: 0.84172  Tot: +0.84000 ]
SCF: Cycle: 25   F: -28.382873802516755   dF: -6.636e-09   |Residual|: 2.633e-06   |deigs|: 6.985e-05  t[s]:    118.00
SCF: Converged (|Delta E|<1.000000e-08 for 2 iters).


# Ionic positions in lattice coordinates:
ion K   0.000000000000000   0.000000000000000   0.000000000000000 0

# Forces in Lattice coordinates:
force K   0.000000000000000   0.000000000000000   0.000000000000000 0

# Energy components:
   Eewald =      -12.0320174002217755
       EH =       10.7577648681074347
     Eloc =      -29.9575022326805254
      Enl =       -2.7695374097693053
   Epulay =       -0.0000000016982517
      Exc =       -4.2434839558130211
       KE =        9.8619029869156272
-------------------------------------
     Etot =      -28.3828731451598166
       TS =        0.0000006573569389
-------------------------------------
        F =      -28.3828738025167553

IonicMinimize: Iter:   0  F: -28.382873802516755  |grad|_K:  0.000e+00  t[s]:    118.27
IonicMinimize: Converged (|grad|_K<1.000000e-04).

#--- Lowdin population analysis ---
# oxidation-state K +0.021
# magnetic-moments K +0.820

End date and time: Sat Feb  5 23:57:43 2022  (Duration: 0-0:01:58.32)
Done!
scale=4
magnetization=0.84
--------------------------------------------------------------------------
The library attempted to open the following supporting CUDA libraries,
but each of them failed.  CUDA-aware support is disabled.
libcuda.so.1: cannot open shared object file: No such file or directory
libcuda.dylib: cannot open shared object file: No such file or directory
/usr/lib64/libcuda.so.1: cannot open shared object file: No such file or directory
/usr/lib64/libcuda.dylib: cannot open shared object file: No such file or directory
If you are not interested in CUDA-aware support, then run with
--mca opal_warn_on_missing_libcuda 0 to suppress this message.  If you are interested
in CUDA-aware support, then try setting LD_LIBRARY_PATH to the location
of libcuda.so.1 to get passed this issue.
--------------------------------------------------------------------------
--------------------------------------------------------------------------
No OpenFabrics connection schemes reported that they were able to be
used on a specific port.  As such, the openib BTL (OpenFabrics
support) will be disabled for this port.

  Local host:           d-3-4-2
  Local device:         mlx5_1
  Local port:           1
  CPCs attempted:       rdmacm, udcm
--------------------------------------------------------------------------

*************** JDFTx 1.6.0 (git hash 42ebbcc2) ***************

Start date and time: Sat Feb  5 23:57:44 2022
Executable jdftx with command-line: -i Alkali.in
Running on hosts (process indices):  d-3-4-2 (0-18)
Divided in process groups (process indices):  0 (0)  1 (1)  2 (2)  3 (3)  4 (4)  5 (5)  6 (6)  7 (7)  8 (8)  9 (9)  10 (10)  11 (11)  12 (12)  13 (13)  14 (14)  15 (15)  16 (16)  17 (17)  18 (18)
Resource initialization completed at t[s]:      0.00
Run totals: 19 processes, 48 threads, 0 GPUs


Input parsed successfully to the following command list (including defaults):

basis kpoint-dependent
coords-type Lattice
core-overlap-check vector
coulomb-interaction Slab 001
davidson-band-ratio 1.1
dump End None
dump-name $INPUT.$VAR
elec-cutoff 20
elec-eigen-algo Davidson
elec-ex-corr gga-PBE
elec-initial-magnetization 0.840000 yes
elec-smearing Fermi 1e-05
electronic-minimize  \
	dirUpdateScheme      FletcherReeves \
	linminMethod         DirUpdateRecommended \
	nIterations          100 \
	history              15 \
	knormThreshold       0 \
	energyDiffThreshold  1e-08 \
	nEnergyDiff          2 \
	alphaTstart          1 \
	alphaTmin            1e-10 \
	updateTestStepSize   yes \
	alphaTreduceFactor   0.1 \
	alphaTincreaseFactor 3 \
	nAlphaAdjustMax      3 \
	wolfeEnergy          0.0001 \
	wolfeGradient        0.9 \
	fdTest               no
electronic-scf  \
	nIterations	10000 \
	energyDiffThreshold	1e-08 \
	residualThreshold	1e-07 \
	mixFraction	0.5 \
	qMetric	0.8 \
	history	10 \
	nEigSteps	2 \
	eigDiffThreshold	1e-08 \
	mixedVariable	Density \
	qKerker	0.8 \
	qKappa	-1 \
	verbose	no \
	mixFractionMag	1.5
exchange-regularization WignerSeitzTruncated
fluid None
fluid-ex-corr (null) lda-PZ
fluid-gummel-loop 10 1.000000e-05
fluid-minimize  \
	dirUpdateScheme      PolakRibiere \
	linminMethod         DirUpdateRecommended \
	nIterations          100 \
	history              15 \
	knormThreshold       0 \
	energyDiffThreshold  0 \
	nEnergyDiff          2 \
	alphaTstart          1 \
	alphaTmin            1e-10 \
	updateTestStepSize   yes \
	alphaTreduceFactor   0.1 \
	alphaTincreaseFactor 3 \
	nAlphaAdjustMax      3 \
	wolfeEnergy          0.0001 \
	wolfeGradient        0.9 \
	fdTest               no
fluid-solvent H2O 55.338 ScalarEOS \
	epsBulk 78.4 \
	pMol 0.92466 \
	epsInf 1.77 \
	Pvap 1.06736e-10 \
	sigmaBulk 4.62e-05 \
	Rvdw 2.61727 \
	Res 1.42 \
	tauNuc 343133 \
	poleEl 15 7 1
forces-output-coords Positions
ion K   0.000000000000000   0.000000000000000   0.000000000000000 0
ion-species SG15/$ID_ONCV_PBE.upf
ion-width 0
ionic-minimize  \
	dirUpdateScheme      L-BFGS \
	linminMethod         DirUpdateRecommended \
	nIterations          0 \
	history              15 \
	knormThreshold       0.0001 \
	energyDiffThreshold  1e-06 \
	nEnergyDiff          2 \
	alphaTstart          1 \
	alphaTmin            1e-10 \
	updateTestStepSize   yes \
	alphaTreduceFactor   0.1 \
	alphaTincreaseFactor 3 \
	nAlphaAdjustMax      3 \
	wolfeEnergy          0.0001 \
	wolfeGradient        0.9 \
	fdTest               no
kpoint   0.000000000000   0.000000000000   0.000000000000  1.00000000000000
kpoint-folding 12 12 1 
latt-move-scale 1 1 1
latt-scale 4 4 1 
lattice  \
	   4.727486978767153   -2.363743489383575    0.000000000000000  \
	  -0.000000000000000    4.094123819672498    0.000000000000000  \
	   0.000000000000000    0.000000000000000   40.000000000000000 
lattice-minimize  \
	dirUpdateScheme      L-BFGS \
	linminMethod         DirUpdateRecommended \
	nIterations          0 \
	history              15 \
	knormThreshold       0 \
	energyDiffThreshold  1e-06 \
	nEnergyDiff          2 \
	alphaTstart          1 \
	alphaTmin            1e-10 \
	updateTestStepSize   yes \
	alphaTreduceFactor   0.1 \
	alphaTincreaseFactor 3 \
	nAlphaAdjustMax      3 \
	wolfeEnergy          0.0001 \
	wolfeGradient        0.9 \
	fdTest               no
lcao-params -1 1e-06 1e-05
pcm-variant GLSSA13
spintype z-spin
subspace-rotation-factor 1 yes
symmetries automatic
symmetry-threshold 0.0001



---------- Setting up symmetries ----------

Found 24 point-group symmetries of the bravais lattice
Found 24 space-group symmetries with basis
Applied RMS atom displacement 0 bohrs to make symmetries exact.

---------- Initializing the Grid ----------
R = 
[      18.9099     -9.45497            0  ]
[            0      16.3765            0  ]
[            0            0           40  ]
unit cell volume = 12387.1
G =
[   0.332269   0.191835         -0  ]
[          0   0.383671         -0  ]
[         -0         -0    0.15708  ]
Minimum fftbox size, Smin = [  80  80  164  ]
Chosen fftbox size, S = [  80  80  168  ]

---------- Exchange Correlation functional ----------
Initalized PBE GGA exchange.
Initalized PBE GGA correlation.

---------- Setting up pseudopotentials ----------
Width of ionic core gaussian charges (only for fluid interactions / plotting) set to 0

Reading pseudopotential file '/home/gridsan/aligho/DFT/build-Nov24/pseudopotentials/SG15/K_ONCV_PBE.upf':
  'K' pseudopotential, 'PBE' functional
  Generated using ONCVPSP code by D. R. Hamann
  Author: Martin Schlipf and Francois Gygi  Date: 150915.
  9 valence electrons, 3 orbitals, 6 projectors, 2222 radial grid points, with lMax = 2
  Transforming local potential to a uniform radial grid of dG=0.02 with 1489 points.
  Transforming nonlocal projectors to a uniform radial grid of dG=0.02 with 432 points.
    3S    l: 0   occupation:  2.0   eigenvalue: -1.298836
    3P    l: 1   occupation:  6.0   eigenvalue: -0.691386
    4S    l: 0   occupation:  1.0   eigenvalue: -0.085223
  Transforming atomic orbitals to a uniform radial grid of dG=0.02 with 432 points.
  Core radius for overlap checks: 2.06 bohrs.
  Reading pulay file /home/gridsan/aligho/DFT/build-Nov24/pseudopotentials/SG15/K_ONCV_PBE.pulay ... using dE_dnG = -1.597219e-05 computed for Ecut = 20.

Initialized 1 species with 1 total atoms.

Folded 1 k-points by 12x12x1 to 144 k-points.

---------- Setting up k-points, bands, fillings ----------
Reduced to 19 k-points under symmetry. 
Computing the number of bands and number of electrons
Calculating initial fillings.
nElectrons:   9.000000   nBands: 6   nStates: 38

----- Setting up reduced wavefunction bases (one per k-point) -----
average nbasis = 52924.021 , ideal nbasis = 52918.836

---------- Setting up coulomb interaction ----------
Initialized slab truncation along lattice direction 001

---------- Setting up 2D ewald sum ----------
Optimum gaussian width for ewald sums = 10.498040 bohr.
Real space sums over 289 unit cells with max indices [  8  8  0  ]
Reciprocal space sums over 81 terms with max indices [  4  4  0  ]

---------- Allocating electronic variables ----------
Initializing wave functions:  linear combination of atomic orbitals
Note: number of bands (6) exceeds available atomic orbitals (5)
K pseudo-atom occupations:   s ( 2 1 )  p ( 6 )
[d-3-4-2:13290] 18 more processes have sent help message help-mpi-common-cuda.txt / dlopen failed
[d-3-4-2:13290] Set MCA parameter "orte_base_help_aggregate" to 0 to see all help / error messages
[d-3-4-2:13290] 18 more processes have sent help message help-mpi-btl-openib-cpc-base.txt / no cpcs for port
	FillingsUpdate:  mu: -0.084950662  nElectrons: 9.000000  magneticMoment: [ Abs: 0.84000  Tot: +0.84000 ]
LCAOMinimize: Iter:   0  F: -28.3802498960558189  |grad|_K:  1.306e-06  alpha:  1.000e+00
	FillingsUpdate:  mu: -0.084950384  nElectrons: 9.000000  magneticMoment: [ Abs: 0.84000  Tot: +0.84000 ]
LCAOMinimize: Iter:   1  F: -28.3802498972150090  |grad|_K:  6.451e-09  alpha:  9.927e-01  linmin: -2.792e-03  cgtest:  8.333e-02  t[s]:     14.97
LCAOMinimize: Encountered beta<0, resetting CG.
LCAOMinimize: 	Step increased F by 1.918465e-13, reducing alpha to 1.385243e-02.
LCAOMinimize: 	Step increased F by 1.882938e-13, reducing alpha to 1.385243e-03.
	FillingsUpdate:  mu: -0.084950384  nElectrons: 9.000000  magneticMoment: [ Abs: 0.84000  Tot: +0.84000 ]
LCAOMinimize: Iter:   2  F: -28.3802498972150339  |grad|_K:  6.442e-09  alpha:  1.385e-03  linmin: -5.639e-02  cgtest:  1.000e+00  t[s]:     23.63
LCAOMinimize: Encountered beta<0, resetting CG.
LCAOMinimize: Converged (|Delta F|<1.000000e-06 for 2 iters).


---- Citations for features of the code used in this run ----

   Software package:
      R. Sundararaman, K. Letchworth-Weaver, K.A. Schwarz, D. Gunceler, Y. Ozhabes and T.A. Arias, 'JDFTx: software for joint density-functional theory', SoftwareX 6, 278 (2017)

   gga-PBE exchange-correlation functional:
      J.P. Perdew, K. Burke and M. Ernzerhof, Phys. Rev. Lett. 77, 3865 (1996)

   Pseudopotentials:
      M Schlipf and F Gygi, Comput. Phys. Commun. 196, 36 (2015)

   Truncated Coulomb potentials:
      R. Sundararaman and T.A. Arias, Phys. Rev. B 87, 165122 (2013)

This list may not be complete. Please suggest additional citations or
report any other bugs at https://github.com/shankar1729/jdftx/issues

Initialization completed successfully at t[s]:     23.89


-------- Electronic minimization -----------
Will mix electronic density at each iteration.
	FillingsUpdate:  mu: -0.084950384  nElectrons: 9.000000  magneticMoment: [ Abs: 0.84000  Tot: +0.84000 ]
	FillingsUpdate:  mu: -0.085094113  nElectrons: 9.000000  magneticMoment: [ Abs: 0.84000  Tot: +0.84000 ]
SCF: Cycle:  0   F: -28.380364606689970   dF: -1.147e-04   |Residual|: 1.867e-03   |deigs|: 1.648e-01  t[s]:     31.99
	FillingsUpdate:  mu: -0.085096365  nElectrons: 9.000000  magneticMoment: [ Abs: 0.84202  Tot: +0.84000 ]
SCF: Cycle:  1   F: -28.380366599181016   dF: -1.992e-06   |Residual|: 5.121e-04   |deigs|: 1.375e-02  t[s]:     38.37
	FillingsUpdate:  mu: -0.085026322  nElectrons: 9.000000  magneticMoment: [ Abs: 0.84192  Tot: +0.84000 ]
SCF: Cycle:  2   F: -28.380367251173418   dF: -6.520e-07   |Residual|: 3.575e-04   |deigs|: 2.334e-03  t[s]:     44.85
	FillingsUpdate:  mu: -0.084958488  nElectrons: 9.000000  magneticMoment: [ Abs: 0.84223  Tot: +0.84000 ]
SCF: Cycle:  3   F: -28.380367606420936   dF: -3.552e-07   |Residual|: 2.765e-04   |deigs|: 1.172e-03  t[s]:     51.42
	FillingsUpdate:  mu: -0.084776542  nElectrons: 9.000000  magneticMoment: [ Abs: 0.84208  Tot: +0.84000 ]
SCF: Cycle:  4   F: -28.380367706967462   dF: -1.005e-07   |Residual|: 1.675e-04   |deigs|: 5.990e-04  t[s]:     58.22
	FillingsUpdate:  mu: -0.084645252  nElectrons: 9.000000  magneticMoment: [ Abs: 0.84206  Tot: +0.84000 ]
SCF: Cycle:  5   F: -28.380367804907280   dF: -9.794e-08   |Residual|: 1.138e-04   |deigs|: 4.733e-04  t[s]:     65.06
	FillingsUpdate:  mu: -0.084602297  nElectrons: 9.000000  magneticMoment: [ Abs: 0.84201  Tot: +0.84000 ]
SCF: Cycle:  6   F: -28.380367979471675   dF: -1.746e-07   |Residual|: 7.812e-05   |deigs|: 1.745e-04  t[s]:     71.94
	FillingsUpdate:  mu: -0.084573939  nElectrons: 9.000000  magneticMoment: [ Abs: 0.84208  Tot: +0.84000 ]
SCF: Cycle:  7   F: -28.380368075377049   dF: -9.591e-08   |Residual|: 5.885e-05   |deigs|: 1.334e-04  t[s]:     78.98
	FillingsUpdate:  mu: -0.084561711  nElectrons: 9.000000  magneticMoment: [ Abs: 0.84205  Tot: +0.84000 ]
SCF: Cycle:  8   F: -28.380368104736284   dF: -2.936e-08   |Residual|: 4.907e-05   |deigs|: 1.599e-04  t[s]:     86.18
	FillingsUpdate:  mu: -0.084547045  nElectrons: 9.000000  magneticMoment: [ Abs: 0.84206  Tot: +0.84000 ]
SCF: Cycle:  9   F: -28.380368092465897   dF: +1.227e-08   |Residual|: 3.911e-05   |deigs|: 1.660e-04  t[s]:     93.46
	FillingsUpdate:  mu: -0.084517317  nElectrons: 9.000000  magneticMoment: [ Abs: 0.84207  Tot: +0.84000 ]
SCF: Cycle: 10   F: -28.380368020181454   dF: +7.228e-08   |Residual|: 3.321e-05   |deigs|: 8.351e-05  t[s]:    100.71
	FillingsUpdate:  mu: -0.084488730  nElectrons: 9.000000  magneticMoment: [ Abs: 0.84214  Tot: +0.84000 ]
SCF: Cycle: 11   F: -28.380367925951152   dF: +9.423e-08   |Residual|: 3.168e-05   |deigs|: 7.913e-05  t[s]:    108.05
	FillingsUpdate:  mu: -0.084461061  nElectrons: 9.000000  magneticMoment: [ Abs: 0.84228  Tot: +0.84000 ]
SCF: Cycle: 12   F: -28.380367661907350   dF: +2.640e-07   |Residual|: 2.800e-05   |deigs|: 8.634e-05  t[s]:    115.34
	FillingsUpdate:  mu: -0.084440687  nElectrons: 9.000000  magneticMoment: [ Abs: 0.84224  Tot: +0.84000 ]
SCF: Cycle: 13   F: -28.380367814885052   dF: -1.530e-07   |Residual|: 2.375e-05   |deigs|: 7.513e-05  t[s]:    122.59
	FillingsUpdate:  mu: -0.084404265  nElectrons: 9.000000  magneticMoment: [ Abs: 0.84221  Tot: +0.84000 ]
SCF: Cycle: 14   F: -28.380368021516773   dF: -2.066e-07   |Residual|: 2.144e-05   |deigs|: 7.257e-05  t[s]:    129.78
	FillingsUpdate:  mu: -0.084364300  nElectrons: 9.000000  magneticMoment: [ Abs: 0.84220  Tot: +0.84000 ]
SCF: Cycle: 15   F: -28.380367957257622   dF: +6.426e-08   |Residual|: 2.124e-05   |deigs|: 6.042e-05  t[s]:    136.91
	FillingsUpdate:  mu: -0.084349728  nElectrons: 9.000000  magneticMoment: [ Abs: 0.84214  Tot: +0.84000 ]
SCF: Cycle: 16   F: -28.380368007830242   dF: -5.057e-08   |Residual|: 1.961e-05   |deigs|: 3.108e-05  t[s]:    144.10
	FillingsUpdate:  mu: -0.084337672  nElectrons: 9.000000  magneticMoment: [ Abs: 0.84212  Tot: +0.84000 ]
SCF: Cycle: 17   F: -28.380367990717140   dF: +1.711e-08   |Residual|: 1.485e-05   |deigs|: 2.629e-05  t[s]:    151.45
	FillingsUpdate:  mu: -0.084323135  nElectrons: 9.000000  magneticMoment: [ Abs: 0.84211  Tot: +0.84000 ]
SCF: Cycle: 18   F: -28.380368118463934   dF: -1.277e-07   |Residual|: 1.045e-05   |deigs|: 1.605e-05  t[s]:    158.73
	FillingsUpdate:  mu: -0.084319796  nElectrons: 9.000000  magneticMoment: [ Abs: 0.84210  Tot: +0.84000 ]
SCF: Cycle: 19   F: -28.380368196713068   dF: -7.825e-08   |Residual|: 8.139e-06   |deigs|: 1.099e-05  t[s]:    165.63
	FillingsUpdate:  mu: -0.084315894  nElectrons: 9.000000  magneticMoment: [ Abs: 0.84209  Tot: +0.84000 ]
SCF: Cycle: 20   F: -28.380368196975041   dF: -2.620e-10   |Residual|: 6.273e-06   |deigs|: 1.363e-05  t[s]:    172.39
	FillingsUpdate:  mu: -0.084313711  nElectrons: 9.000000  magneticMoment: [ Abs: 0.84207  Tot: +0.84000 ]
SCF: Cycle: 21   F: -28.380368225853125   dF: -2.888e-08   |Residual|: 4.121e-06   |deigs|: 1.736e-05  t[s]:    179.79
	FillingsUpdate:  mu: -0.084311714  nElectrons: 9.000000  magneticMoment: [ Abs: 0.84206  Tot: +0.84000 ]
SCF: Cycle: 22   F: -28.380368243794948   dF: -1.794e-08   |Residual|: 2.961e-06   |deigs|: 1.979e-05  t[s]:    186.53
	FillingsUpdate:  mu: -0.084310158  nElectrons: 9.000000  magneticMoment: [ Abs: 0.84206  Tot: +0.84000 ]
SCF: Cycle: 23   F: -28.380368244753935   dF: -9.590e-10   |Residual|: 2.089e-06   |deigs|: 2.312e-05  t[s]:    193.61
	FillingsUpdate:  mu: -0.084308878  nElectrons: 9.000000  magneticMoment: [ Abs: 0.84206  Tot: +0.84000 ]
SCF: Cycle: 24   F: -28.380368250164985   dF: -5.411e-09   |Residual|: 1.257e-06   |deigs|: 2.443e-05  t[s]:    200.84
SCF: Converged (|Delta E|<1.000000e-08 for 2 iters).


# Ionic positions in lattice coordinates:
ion K   0.000000000000000   0.000000000000000   0.000000000000000 0

# Forces in Lattice coordinates:
force K   0.000000000000000   0.000000000000000   0.000000000000000 0

# Energy components:
   Eewald =       -9.0240130501663280
       EH =       13.7878488562252350
     Eloc =      -35.9991181305137005
      Enl =       -2.7667182980058715
   Epulay =        0.0000000066859396
      Exc =       -4.2453574513390393
       KE =        9.8669904743331163
-------------------------------------
     Etot =      -28.3803675927806509
       TS =        0.0000006573843325
-------------------------------------
        F =      -28.3803682501649845

IonicMinimize: Iter:   0  F: -28.380368250164985  |grad|_K:  0.000e+00  t[s]:    201.25
IonicMinimize: Converged (|grad|_K<1.000000e-04).

#--- Lowdin population analysis ---
# oxidation-state K +0.001
# magnetic-moments K +0.839

End date and time: Sun Feb  6 00:01:05 2022  (Duration: 0-0:03:21.31)
Done!
