
*************** JDFTx 1.6.0 (git hash 42ebbcc2) ***************

Start date and time: Sat Feb  5 23:48:21 2022
Executable jdftx with command-line: -i Alkali.in
Running on hosts (process indices):  d-3-13-4 (0-18)
Divided in process groups (process indices):  0 (0)  1 (1)  2 (2)  3 (3)  4 (4)  5 (5)  6 (6)  7 (7)  8 (8)  9 (9)  10 (10)  11 (11)  12 (12)  13 (13)  14 (14)  15 (15)  16 (16)  17 (17)  18 (18)
Resource initialization completed at t[s]:      0.00
Run totals: 19 processes, 48 threads, 0 GPUs


Input parsed successfully to the following command list (including defaults):

basis kpoint-dependent
coords-type Lattice
core-overlap-check vector
coulomb-interaction Slab 001
davidson-band-ratio 1.1
dump End None
dump-name $INPUT.$VAR
elec-cutoff 20
elec-eigen-algo Davidson
elec-ex-corr gga-PBE
elec-initial-magnetization 0.400000 yes
elec-smearing Fermi 1e-05
electronic-minimize  \
	dirUpdateScheme      FletcherReeves \
	linminMethod         DirUpdateRecommended \
	nIterations          100 \
	history              15 \
	knormThreshold       0 \
	energyDiffThreshold  1e-08 \
	nEnergyDiff          2 \
	alphaTstart          1 \
	alphaTmin            1e-10 \
	updateTestStepSize   yes \
	alphaTreduceFactor   0.1 \
	alphaTincreaseFactor 3 \
	nAlphaAdjustMax      3 \
	wolfeEnergy          0.0001 \
	wolfeGradient        0.9 \
	fdTest               no
electronic-scf  \
	nIterations	10000 \
	energyDiffThreshold	1e-08 \
	residualThreshold	1e-07 \
	mixFraction	0.5 \
	qMetric	0.8 \
	history	10 \
	nEigSteps	2 \
	eigDiffThreshold	1e-08 \
	mixedVariable	Density \
	qKerker	0.8 \
	qKappa	-1 \
	verbose	no \
	mixFractionMag	1.5
exchange-regularization WignerSeitzTruncated
fluid None
fluid-ex-corr (null) lda-PZ
fluid-gummel-loop 10 1.000000e-05
fluid-minimize  \
	dirUpdateScheme      PolakRibiere \
	linminMethod         DirUpdateRecommended \
	nIterations          100 \
	history              15 \
	knormThreshold       0 \
	energyDiffThreshold  0 \
	nEnergyDiff          2 \
	alphaTstart          1 \
	alphaTmin            1e-10 \
	updateTestStepSize   yes \
	alphaTreduceFactor   0.1 \
	alphaTincreaseFactor 3 \
	nAlphaAdjustMax      3 \
	wolfeEnergy          0.0001 \
	wolfeGradient        0.9 \
	fdTest               no
fluid-solvent H2O 55.338 ScalarEOS \
	epsBulk 78.4 \
	pMol 0.92466 \
	epsInf 1.77 \
	Pvap 1.06736e-10 \
	sigmaBulk 4.62e-05 \
	Rvdw 2.61727 \
	Res 1.42 \
	tauNuc 343133 \
	poleEl 15 7 1
forces-output-coords Positions
ion K   0.000000000000000   0.000000000000000   0.000000000000000 0
ion-species SG15/$ID_ONCV_PBE.upf
ion-width 0
ionic-minimize  \
	dirUpdateScheme      L-BFGS \
	linminMethod         DirUpdateRecommended \
	nIterations          0 \
	history              15 \
	knormThreshold       0.0001 \
	energyDiffThreshold  1e-06 \
	nEnergyDiff          2 \
	alphaTstart          1 \
	alphaTmin            1e-10 \
	updateTestStepSize   yes \
	alphaTreduceFactor   0.1 \
	alphaTincreaseFactor 3 \
	nAlphaAdjustMax      3 \
	wolfeEnergy          0.0001 \
	wolfeGradient        0.9 \
	fdTest               no
kpoint   0.000000000000   0.000000000000   0.000000000000  1.00000000000000
kpoint-folding 12 12 1 
latt-move-scale 1 1 1
latt-scale 2 2 1 
lattice  \
	   4.727486978767153   -2.363743489383575    0.000000000000000  \
	  -0.000000000000000    4.094123819672498    0.000000000000000  \
	   0.000000000000000    0.000000000000000   40.000000000000000 
lattice-minimize  \
	dirUpdateScheme      L-BFGS \
	linminMethod         DirUpdateRecommended \
	nIterations          0 \
	history              15 \
	knormThreshold       0 \
	energyDiffThreshold  1e-06 \
	nEnergyDiff          2 \
	alphaTstart          1 \
	alphaTmin            1e-10 \
	updateTestStepSize   yes \
	alphaTreduceFactor   0.1 \
	alphaTincreaseFactor 3 \
	nAlphaAdjustMax      3 \
	wolfeEnergy          0.0001 \
	wolfeGradient        0.9 \
	fdTest               no
lcao-params -1 1e-06 1e-05
pcm-variant GLSSA13
spintype z-spin
subspace-rotation-factor 1 yes
symmetries automatic
symmetry-threshold 0.0001



---------- Setting up symmetries ----------

Found 24 point-group symmetries of the bravais lattice
Found 24 space-group symmetries with basis
Applied RMS atom displacement 0 bohrs to make symmetries exact.

---------- Initializing the Grid ----------
R = 
[      9.45497     -4.72749            0  ]
[            0      8.18825            0  ]
[            0            0           40  ]
unit cell volume = 3096.79
G =
[   0.664538   0.383671         -0  ]
[          0   0.767342         -0  ]
[         -0         -0    0.15708  ]
Minimum fftbox size, Smin = [  40  40  164  ]
Chosen fftbox size, S = [  40  40  168  ]

---------- Exchange Correlation functional ----------
Initalized PBE GGA exchange.
Initalized PBE GGA correlation.

---------- Setting up pseudopotentials ----------
Width of ionic core gaussian charges (only for fluid interactions / plotting) set to 0

Reading pseudopotential file '/home/gridsan/aligho/DFT/build-Nov24/pseudopotentials/SG15/K_ONCV_PBE.upf':
  'K' pseudopotential, 'PBE' functional
  Generated using ONCVPSP code by D. R. Hamann
  Author: Martin Schlipf and Francois Gygi  Date: 150915.
  9 valence electrons, 3 orbitals, 6 projectors, 2222 radial grid points, with lMax = 2
  Transforming local potential to a uniform radial grid of dG=0.02 with 1489 points.
  Transforming nonlocal projectors to a uniform radial grid of dG=0.02 with 432 points.
    3S    l: 0   occupation:  2.0   eigenvalue: -1.298836
    3P    l: 1   occupation:  6.0   eigenvalue: -0.691386
    4S    l: 0   occupation:  1.0   eigenvalue: -0.085223
  Transforming atomic orbitals to a uniform radial grid of dG=0.02 with 432 points.
  Core radius for overlap checks: 2.06 bohrs.
  Reading pulay file /home/gridsan/aligho/DFT/build-Nov24/pseudopotentials/SG15/K_ONCV_PBE.pulay ... using dE_dnG = -1.597219e-05 computed for Ecut = 20.

Initialized 1 species with 1 total atoms.

Folded 1 k-points by 12x12x1 to 144 k-points.

---------- Setting up k-points, bands, fillings ----------
Reduced to 19 k-points under symmetry. 
Computing the number of bands and number of electrons
Calculating initial fillings.
nElectrons:   9.000000   nBands: 6   nStates: 38

----- Setting up reduced wavefunction bases (one per k-point) -----
average nbasis = 13230.521 , ideal nbasis = 13229.709

---------- Setting up coulomb interaction ----------
Initialized slab truncation along lattice direction 001

---------- Setting up 2D ewald sum ----------
Optimum gaussian width for ewald sums = 5.249020 bohr.
Real space sums over 289 unit cells with max indices [  8  8  0  ]
Reciprocal space sums over 81 terms with max indices [  4  4  0  ]

---------- Allocating electronic variables ----------
Initializing wave functions:  linear combination of atomic orbitals
Note: number of bands (6) exceeds available atomic orbitals (5)
K pseudo-atom occupations:   s ( 2 1 )  p ( 6 )
	FillingsUpdate:  mu: -0.093470907  nElectrons: 9.000000  magneticMoment: [ Abs: 0.40000  Tot: +0.40000 ]
LCAOMinimize: Iter:   0  F: -28.3950305201644362  |grad|_K:  3.599e-05  alpha:  1.000e+00
	FillingsUpdate:  mu: -0.093461020  nElectrons: 9.000000  magneticMoment: [ Abs: 0.40000  Tot: +0.40000 ]
LCAOMinimize: Iter:   1  F: -28.3950313885050072  |grad|_K:  3.564e-07  alpha:  9.804e-01  linmin: -2.931e-02  cgtest:  4.894e-01  t[s]:      4.73
LCAOMinimize: Encountered beta<0, resetting CG.
	FillingsUpdate:  mu: -0.093461059  nElectrons: 9.000000  magneticMoment: [ Abs: 0.40000  Tot: +0.40000 ]
LCAOMinimize: Iter:   2  F: -28.3950313885924395  |grad|_K:  2.288e-10  alpha:  1.001e+00  linmin: -7.706e-02  cgtest:  7.174e-01  t[s]:      5.92
LCAOMinimize: Encountered beta<0, resetting CG.
LCAOMinimize: Converged (|Delta F|<1.000000e-06 for 2 iters).


---- Citations for features of the code used in this run ----

   Software package:
      R. Sundararaman, K. Letchworth-Weaver, K.A. Schwarz, D. Gunceler, Y. Ozhabes and T.A. Arias, 'JDFTx: software for joint density-functional theory', SoftwareX 6, 278 (2017)

   gga-PBE exchange-correlation functional:
      J.P. Perdew, K. Burke and M. Ernzerhof, Phys. Rev. Lett. 77, 3865 (1996)

   Pseudopotentials:
      M Schlipf and F Gygi, Comput. Phys. Commun. 196, 36 (2015)

   Truncated Coulomb potentials:
      R. Sundararaman and T.A. Arias, Phys. Rev. B 87, 165122 (2013)

This list may not be complete. Please suggest additional citations or
report any other bugs at https://github.com/shankar1729/jdftx/issues

Initialization completed successfully at t[s]:      6.02


-------- Electronic minimization -----------
Will mix electronic density at each iteration.
	FillingsUpdate:  mu: -0.093461059  nElectrons: 9.000000  magneticMoment: [ Abs: 0.40000  Tot: +0.40000 ]
	FillingsUpdate:  mu: -0.105126218  nElectrons: 9.000000  magneticMoment: [ Abs: 0.40000  Tot: +0.40000 ]
SCF: Cycle:  0   F: -28.401356845184747   dF: -6.325e-03   |Residual|: 1.016e-02   |deigs|: 1.740e-01  t[s]:      8.48
	FillingsUpdate:  mu: -0.104933122  nElectrons: 9.000000  magneticMoment: [ Abs: 0.40000  Tot: +0.40000 ]
SCF: Cycle:  1   F: -28.401547619056217   dF: -1.908e-04   |Residual|: 7.645e-03   |deigs|: 6.488e-03  t[s]:     10.41
	FillingsUpdate:  mu: -0.103651593  nElectrons: 9.000000  magneticMoment: [ Abs: 0.40396  Tot: +0.40000 ]
SCF: Cycle:  2   F: -28.401591528654112   dF: -4.391e-05   |Residual|: 4.092e-03   |deigs|: 4.008e-03  t[s]:     12.38
	FillingsUpdate:  mu: -0.102960172  nElectrons: 9.000000  magneticMoment: [ Abs: 0.40000  Tot: +0.40000 ]
SCF: Cycle:  3   F: -28.401657289555164   dF: -6.576e-05   |Residual|: 2.625e-03   |deigs|: 3.839e-03  t[s]:     14.27
	FillingsUpdate:  mu: -0.101569103  nElectrons: 9.000000  magneticMoment: [ Abs: 0.40004  Tot: +0.40000 ]
SCF: Cycle:  4   F: -28.401690374420749   dF: -3.308e-05   |Residual|: 1.776e-03   |deigs|: 3.058e-03  t[s]:     16.25
	FillingsUpdate:  mu: -0.100209741  nElectrons: 9.000000  magneticMoment: [ Abs: 0.40126  Tot: +0.40000 ]
SCF: Cycle:  5   F: -28.401708375113817   dF: -1.800e-05   |Residual|: 1.474e-03   |deigs|: 1.754e-03  t[s]:     18.16
	FillingsUpdate:  mu: -0.098358457  nElectrons: 9.000000  magneticMoment: [ Abs: 0.40605  Tot: +0.40000 ]
SCF: Cycle:  6   F: -28.401716195014771   dF: -7.820e-06   |Residual|: 1.039e-03   |deigs|: 2.778e-03  t[s]:     20.12
	FillingsUpdate:  mu: -0.096653092  nElectrons: 9.000000  magneticMoment: [ Abs: 0.40621  Tot: +0.40000 ]
SCF: Cycle:  7   F: -28.401730578032666   dF: -1.438e-05   |Residual|: 8.706e-04   |deigs|: 3.742e-03  t[s]:     22.08
	FillingsUpdate:  mu: -0.096236948  nElectrons: 9.000000  magneticMoment: [ Abs: 0.40160  Tot: +0.40000 ]
SCF: Cycle:  8   F: -28.401746932489051   dF: -1.635e-05   |Residual|: 7.128e-04   |deigs|: 9.333e-04  t[s]:     24.07
	FillingsUpdate:  mu: -0.095278756  nElectrons: 9.000000  magneticMoment: [ Abs: 0.40254  Tot: +0.40000 ]
SCF: Cycle:  9   F: -28.401750685590997   dF: -3.753e-06   |Residual|: 5.498e-04   |deigs|: 1.034e-03  t[s]:     26.22
	FillingsUpdate:  mu: -0.094156959  nElectrons: 9.000000  magneticMoment: [ Abs: 0.40395  Tot: +0.40000 ]
SCF: Cycle: 10   F: -28.401751525795365   dF: -8.402e-07   |Residual|: 4.926e-04   |deigs|: 1.199e-03  t[s]:     28.30
	FillingsUpdate:  mu: -0.093069912  nElectrons: 9.000000  magneticMoment: [ Abs: 0.40289  Tot: +0.40000 ]
SCF: Cycle: 11   F: -28.401754917252365   dF: -3.391e-06   |Residual|: 4.670e-04   |deigs|: 1.131e-03  t[s]:     30.34
	FillingsUpdate:  mu: -0.092030276  nElectrons: 9.000000  magneticMoment: [ Abs: 0.40389  Tot: +0.40000 ]
SCF: Cycle: 12   F: -28.401764945825498   dF: -1.003e-05   |Residual|: 4.047e-04   |deigs|: 9.383e-04  t[s]:     32.40
	FillingsUpdate:  mu: -0.090984071  nElectrons: 9.000000  magneticMoment: [ Abs: 0.40430  Tot: +0.40000 ]
SCF: Cycle: 13   F: -28.401770095678327   dF: -5.150e-06   |Residual|: 3.798e-04   |deigs|: 1.097e-03  t[s]:     34.39
	FillingsUpdate:  mu: -0.089691993  nElectrons: 9.000000  magneticMoment: [ Abs: 0.40222  Tot: +0.40000 ]
SCF: Cycle: 14   F: -28.401774264631957   dF: -4.169e-06   |Residual|: 3.239e-04   |deigs|: 1.398e-03  t[s]:     36.44
	FillingsUpdate:  mu: -0.089001053  nElectrons: 9.000000  magneticMoment: [ Abs: 0.40002  Tot: +0.40000 ]
SCF: Cycle: 15   F: -28.401776600550878   dF: -2.336e-06   |Residual|: 2.676e-04   |deigs|: 7.073e-04  t[s]:     38.50
	FillingsUpdate:  mu: -0.088536431  nElectrons: 9.000000  magneticMoment: [ Abs: 0.40117  Tot: +0.40000 ]
SCF: Cycle: 16   F: -28.401777999283052   dF: -1.399e-06   |Residual|: 1.750e-04   |deigs|: 5.629e-04  t[s]:     40.58
	FillingsUpdate:  mu: -0.088321559  nElectrons: 9.000000  magneticMoment: [ Abs: 0.40078  Tot: +0.40000 ]
SCF: Cycle: 17   F: -28.401778602171003   dF: -6.029e-07   |Residual|: 1.135e-04   |deigs|: 4.455e-04  t[s]:     42.74
	FillingsUpdate:  mu: -0.088268906  nElectrons: 9.000000  magneticMoment: [ Abs: 0.40022  Tot: +0.40000 ]
SCF: Cycle: 18   F: -28.401779021299447   dF: -4.191e-07   |Residual|: 5.671e-05   |deigs|: 3.212e-04  t[s]:     44.84
	FillingsUpdate:  mu: -0.088259492  nElectrons: 9.000000  magneticMoment: [ Abs: 0.40029  Tot: +0.40000 ]
SCF: Cycle: 19   F: -28.401779217049164   dF: -1.957e-07   |Residual|: 4.064e-05   |deigs|: 3.498e-04  t[s]:     46.81
	FillingsUpdate:  mu: -0.088249678  nElectrons: 9.000000  magneticMoment: [ Abs: 0.40024  Tot: +0.40000 ]
SCF: Cycle: 20   F: -28.401779292257004   dF: -7.521e-08   |Residual|: 2.292e-05   |deigs|: 2.469e-04  t[s]:     48.77
	FillingsUpdate:  mu: -0.088228369  nElectrons: 9.000000  magneticMoment: [ Abs: 0.40018  Tot: +0.40000 ]
SCF: Cycle: 21   F: -28.401779330552149   dF: -3.830e-08   |Residual|: 1.160e-05   |deigs|: 2.158e-04  t[s]:     50.91
	FillingsUpdate:  mu: -0.088224952  nElectrons: 9.000000  magneticMoment: [ Abs: 0.40016  Tot: +0.40000 ]
SCF: Cycle: 22   F: -28.401779359147653   dF: -2.860e-08   |Residual|: 6.827e-06   |deigs|: 1.831e-04  t[s]:     52.93
	FillingsUpdate:  mu: -0.088222357  nElectrons: 9.000000  magneticMoment: [ Abs: 0.40016  Tot: +0.40000 ]
SCF: Cycle: 23   F: -28.401779374770577   dF: -1.562e-08   |Residual|: 4.763e-06   |deigs|: 1.311e-04  t[s]:     54.90
	FillingsUpdate:  mu: -0.088224029  nElectrons: 9.000000  magneticMoment: [ Abs: 0.40014  Tot: +0.40000 ]
SCF: Cycle: 24   F: -28.401779385597052   dF: -1.083e-08   |Residual|: 4.026e-06   |deigs|: 9.499e-05  t[s]:     56.92
	FillingsUpdate:  mu: -0.088223080  nElectrons: 9.000000  magneticMoment: [ Abs: 0.40008  Tot: +0.40000 ]
SCF: Cycle: 25   F: -28.401779393588036   dF: -7.991e-09   |Residual|: 4.955e-06   |deigs|: 6.226e-05  t[s]:     58.91
	FillingsUpdate:  mu: -0.088221710  nElectrons: 9.000000  magneticMoment: [ Abs: 0.40005  Tot: +0.40000 ]
SCF: Cycle: 26   F: -28.401779399341244   dF: -5.753e-09   |Residual|: 4.078e-06   |deigs|: 5.999e-05  t[s]:     60.85
SCF: Converged (|Delta E|<1.000000e-08 for 2 iters).


# Ionic positions in lattice coordinates:
ion K   0.000000000000000   0.000000000000000   0.000000000000000 0

# Forces in Lattice coordinates:
force K  -0.000000000000000   0.000000000000000   0.000000000000000 0

# Energy components:
   Eewald =      -18.0480261003326561
       EH =        4.8739888207959545
     Eloc =      -18.0664214168503001
      Enl =       -2.7748640081817229
   Epulay =        0.0000000041876954
      Exc =       -4.2639658401034319
       KE =        9.8775097320576997
-------------------------------------
     Etot =      -28.4017788084267586
       TS =        0.0000005909144852
-------------------------------------
        F =      -28.4017793993412440

IonicMinimize: Iter:   0  F: -28.401779399341244  |grad|_K:  0.000e+00  t[s]:     60.97
IonicMinimize: Converged (|grad|_K<1.000000e-04).

#--- Lowdin population analysis ---
# oxidation-state K +0.064
# magnetic-moments K +0.346

End date and time: Sat Feb  5 23:49:22 2022  (Duration: 0-0:01:01.00)
Done!
