
*************** JDFTx 1.6.0 (git hash 42ebbcc2) ***************

Start date and time: Sat Feb  5 23:49:25 2022
Executable jdftx with command-line: -i Alkali.in
Running on hosts (process indices):  d-16-5-2 (0-18)
Divided in process groups (process indices):  0 (0)  1 (1)  2 (2)  3 (3)  4 (4)  5 (5)  6 (6)  7 (7)  8 (8)  9 (9)  10 (10)  11 (11)  12 (12)  13 (13)  14 (14)  15 (15)  16 (16)  17 (17)  18 (18)
Resource initialization completed at t[s]:      0.00
Run totals: 19 processes, 48 threads, 0 GPUs


Input parsed successfully to the following command list (including defaults):

basis kpoint-dependent
coords-type Lattice
core-overlap-check vector
coulomb-interaction Slab 001
davidson-band-ratio 1.1
dump End None
dump-name $INPUT.$VAR
elec-cutoff 20
elec-eigen-algo Davidson
elec-ex-corr gga-PBE
elec-initial-magnetization 0.760000 yes
elec-smearing Fermi 1e-05
electronic-minimize  \
	dirUpdateScheme      FletcherReeves \
	linminMethod         DirUpdateRecommended \
	nIterations          100 \
	history              15 \
	knormThreshold       0 \
	energyDiffThreshold  1e-08 \
	nEnergyDiff          2 \
	alphaTstart          1 \
	alphaTmin            1e-10 \
	updateTestStepSize   yes \
	alphaTreduceFactor   0.1 \
	alphaTincreaseFactor 3 \
	nAlphaAdjustMax      3 \
	wolfeEnergy          0.0001 \
	wolfeGradient        0.9 \
	fdTest               no
electronic-scf  \
	nIterations	10000 \
	energyDiffThreshold	1e-08 \
	residualThreshold	1e-07 \
	mixFraction	0.5 \
	qMetric	0.8 \
	history	10 \
	nEigSteps	2 \
	eigDiffThreshold	1e-08 \
	mixedVariable	Density \
	qKerker	0.8 \
	qKappa	-1 \
	verbose	no \
	mixFractionMag	1.5
exchange-regularization WignerSeitzTruncated
fluid None
fluid-ex-corr (null) lda-PZ
fluid-gummel-loop 10 1.000000e-05
fluid-minimize  \
	dirUpdateScheme      PolakRibiere \
	linminMethod         DirUpdateRecommended \
	nIterations          100 \
	history              15 \
	knormThreshold       0 \
	energyDiffThreshold  0 \
	nEnergyDiff          2 \
	alphaTstart          1 \
	alphaTmin            1e-10 \
	updateTestStepSize   yes \
	alphaTreduceFactor   0.1 \
	alphaTincreaseFactor 3 \
	nAlphaAdjustMax      3 \
	wolfeEnergy          0.0001 \
	wolfeGradient        0.9 \
	fdTest               no
fluid-solvent H2O 55.338 ScalarEOS \
	epsBulk 78.4 \
	pMol 0.92466 \
	epsInf 1.77 \
	Pvap 1.06736e-10 \
	sigmaBulk 4.62e-05 \
	Rvdw 2.61727 \
	Res 1.42 \
	tauNuc 343133 \
	poleEl 15 7 1
forces-output-coords Positions
ion K   0.000000000000000   0.000000000000000   0.000000000000000 0
ion-species SG15/$ID_ONCV_PBE.upf
ion-width 0
ionic-minimize  \
	dirUpdateScheme      L-BFGS \
	linminMethod         DirUpdateRecommended \
	nIterations          0 \
	history              15 \
	knormThreshold       0.0001 \
	energyDiffThreshold  1e-06 \
	nEnergyDiff          2 \
	alphaTstart          1 \
	alphaTmin            1e-10 \
	updateTestStepSize   yes \
	alphaTreduceFactor   0.1 \
	alphaTincreaseFactor 3 \
	nAlphaAdjustMax      3 \
	wolfeEnergy          0.0001 \
	wolfeGradient        0.9 \
	fdTest               no
kpoint   0.000000000000   0.000000000000   0.000000000000  1.00000000000000
kpoint-folding 12 12 1 
latt-move-scale 1 1 1
latt-scale 2 2 1 
lattice  \
	   4.727486978767153   -2.363743489383575    0.000000000000000  \
	  -0.000000000000000    4.094123819672498    0.000000000000000  \
	   0.000000000000000    0.000000000000000   40.000000000000000 
lattice-minimize  \
	dirUpdateScheme      L-BFGS \
	linminMethod         DirUpdateRecommended \
	nIterations          0 \
	history              15 \
	knormThreshold       0 \
	energyDiffThreshold  1e-06 \
	nEnergyDiff          2 \
	alphaTstart          1 \
	alphaTmin            1e-10 \
	updateTestStepSize   yes \
	alphaTreduceFactor   0.1 \
	alphaTincreaseFactor 3 \
	nAlphaAdjustMax      3 \
	wolfeEnergy          0.0001 \
	wolfeGradient        0.9 \
	fdTest               no
lcao-params -1 1e-06 1e-05
pcm-variant GLSSA13
spintype z-spin
subspace-rotation-factor 1 yes
symmetries automatic
symmetry-threshold 0.0001



---------- Setting up symmetries ----------

Found 24 point-group symmetries of the bravais lattice
Found 24 space-group symmetries with basis
Applied RMS atom displacement 0 bohrs to make symmetries exact.

---------- Initializing the Grid ----------
R = 
[      9.45497     -4.72749            0  ]
[            0      8.18825            0  ]
[            0            0           40  ]
unit cell volume = 3096.79
G =
[   0.664538   0.383671         -0  ]
[          0   0.767342         -0  ]
[         -0         -0    0.15708  ]
Minimum fftbox size, Smin = [  40  40  164  ]
Chosen fftbox size, S = [  40  40  168  ]

---------- Exchange Correlation functional ----------
Initalized PBE GGA exchange.
Initalized PBE GGA correlation.

---------- Setting up pseudopotentials ----------
Width of ionic core gaussian charges (only for fluid interactions / plotting) set to 0

Reading pseudopotential file '/home/gridsan/aligho/DFT/build-Nov24/pseudopotentials/SG15/K_ONCV_PBE.upf':
  'K' pseudopotential, 'PBE' functional
  Generated using ONCVPSP code by D. R. Hamann
  Author: Martin Schlipf and Francois Gygi  Date: 150915.
  9 valence electrons, 3 orbitals, 6 projectors, 2222 radial grid points, with lMax = 2
  Transforming local potential to a uniform radial grid of dG=0.02 with 1489 points.
  Transforming nonlocal projectors to a uniform radial grid of dG=0.02 with 432 points.
    3S    l: 0   occupation:  2.0   eigenvalue: -1.298836
    3P    l: 1   occupation:  6.0   eigenvalue: -0.691386
    4S    l: 0   occupation:  1.0   eigenvalue: -0.085223
  Transforming atomic orbitals to a uniform radial grid of dG=0.02 with 432 points.
  Core radius for overlap checks: 2.06 bohrs.
  Reading pulay file /home/gridsan/aligho/DFT/build-Nov24/pseudopotentials/SG15/K_ONCV_PBE.pulay ... using dE_dnG = -1.597219e-05 computed for Ecut = 20.

Initialized 1 species with 1 total atoms.

Folded 1 k-points by 12x12x1 to 144 k-points.

---------- Setting up k-points, bands, fillings ----------
Reduced to 19 k-points under symmetry. 
Computing the number of bands and number of electrons
Calculating initial fillings.
nElectrons:   9.000000   nBands: 6   nStates: 38

----- Setting up reduced wavefunction bases (one per k-point) -----
average nbasis = 13230.521 , ideal nbasis = 13229.709

---------- Setting up coulomb interaction ----------
Initialized slab truncation along lattice direction 001

---------- Setting up 2D ewald sum ----------
Optimum gaussian width for ewald sums = 5.249020 bohr.
Real space sums over 289 unit cells with max indices [  8  8  0  ]
Reciprocal space sums over 81 terms with max indices [  4  4  0  ]

---------- Allocating electronic variables ----------
Initializing wave functions:  linear combination of atomic orbitals
Note: number of bands (6) exceeds available atomic orbitals (5)
K pseudo-atom occupations:   s ( 2 1 )  p ( 6 )
	FillingsUpdate:  mu: -0.094689250  nElectrons: 9.000000  magneticMoment: [ Abs: 0.76000  Tot: +0.76000 ]
LCAOMinimize: Iter:   0  F: -28.3862939359167648  |grad|_K:  1.753e-05  alpha:  1.000e+00
	FillingsUpdate:  mu: -0.094685003  nElectrons: 9.000000  magneticMoment: [ Abs: 0.76000  Tot: +0.76000 ]
LCAOMinimize: Iter:   1  F: -28.3862941427523445  |grad|_K:  1.574e-07  alpha:  9.844e-01  linmin: -1.479e-02  cgtest:  2.670e-01  t[s]:      4.61
LCAOMinimize: Encountered beta<0, resetting CG.
	FillingsUpdate:  mu: -0.094685041  nElectrons: 9.000000  magneticMoment: [ Abs: 0.76000  Tot: +0.76000 ]
LCAOMinimize: Iter:   2  F: -28.3862941427683850  |grad|_K:  5.578e-09  alpha:  9.649e-01  linmin: -1.015e-01  cgtest:  9.900e-01  t[s]:      5.83
LCAOMinimize: Encountered beta<0, resetting CG.
LCAOMinimize: Converged (|Delta F|<1.000000e-06 for 2 iters).


---- Citations for features of the code used in this run ----

   Software package:
      R. Sundararaman, K. Letchworth-Weaver, K.A. Schwarz, D. Gunceler, Y. Ozhabes and T.A. Arias, 'JDFTx: software for joint density-functional theory', SoftwareX 6, 278 (2017)

   gga-PBE exchange-correlation functional:
      J.P. Perdew, K. Burke and M. Ernzerhof, Phys. Rev. Lett. 77, 3865 (1996)

   Pseudopotentials:
      M Schlipf and F Gygi, Comput. Phys. Commun. 196, 36 (2015)

   Truncated Coulomb potentials:
      R. Sundararaman and T.A. Arias, Phys. Rev. B 87, 165122 (2013)

This list may not be complete. Please suggest additional citations or
report any other bugs at https://github.com/shankar1729/jdftx/issues

Initialization completed successfully at t[s]:      5.92


-------- Electronic minimization -----------
Will mix electronic density at each iteration.
	FillingsUpdate:  mu: -0.094685041  nElectrons: 9.000000  magneticMoment: [ Abs: 0.76000  Tot: +0.76000 ]
	FillingsUpdate:  mu: -0.104761667  nElectrons: 9.000000  magneticMoment: [ Abs: 0.76000  Tot: +0.76000 ]
SCF: Cycle:  0   F: -28.395593817034715   dF: -9.300e-03   |Residual|: 1.465e-02   |deigs|: 1.732e-01  t[s]:      8.51
	FillingsUpdate:  mu: -0.109007518  nElectrons: 9.000000  magneticMoment: [ Abs: 0.76000  Tot: +0.76000 ]
SCF: Cycle:  1   F: -28.396060149883457   dF: -4.663e-04   |Residual|: 1.100e-02   |deigs|: 9.026e-03  t[s]:     10.36
	FillingsUpdate:  mu: -0.108619480  nElectrons: 9.000000  magneticMoment: [ Abs: 0.76242  Tot: +0.76000 ]
SCF: Cycle:  2   F: -28.396198300014934   dF: -1.382e-04   |Residual|: 7.046e-03   |deigs|: 3.843e-03  t[s]:     12.30
	FillingsUpdate:  mu: -0.104630555  nElectrons: 9.000000  magneticMoment: [ Abs: 0.76000  Tot: +0.76000 ]
SCF: Cycle:  3   F: -28.396308147702037   dF: -1.098e-04   |Residual|: 3.598e-03   |deigs|: 3.679e-03  t[s]:     14.19
	FillingsUpdate:  mu: -0.102739527  nElectrons: 9.000000  magneticMoment: [ Abs: 0.76002  Tot: +0.76000 ]
SCF: Cycle:  4   F: -28.396361729034329   dF: -5.358e-05   |Residual|: 2.178e-03   |deigs|: 4.196e-03  t[s]:     16.22
	FillingsUpdate:  mu: -0.101282204  nElectrons: 9.000000  magneticMoment: [ Abs: 0.76008  Tot: +0.76000 ]
SCF: Cycle:  5   F: -28.396384102133499   dF: -2.237e-05   |Residual|: 1.814e-03   |deigs|: 2.985e-03  t[s]:     18.18
	FillingsUpdate:  mu: -0.098783841  nElectrons: 9.000000  magneticMoment: [ Abs: 0.76530  Tot: +0.76000 ]
SCF: Cycle:  6   F: -28.396392874289333   dF: -8.772e-06   |Residual|: 1.371e-03   |deigs|: 2.734e-03  t[s]:     20.22
	FillingsUpdate:  mu: -0.097011350  nElectrons: 9.000000  magneticMoment: [ Abs: 0.76484  Tot: +0.76000 ]
SCF: Cycle:  7   F: -28.396421923127296   dF: -2.905e-05   |Residual|: 9.923e-04   |deigs|: 2.550e-03  t[s]:     22.21
	FillingsUpdate:  mu: -0.096567094  nElectrons: 9.000000  magneticMoment: [ Abs: 0.76154  Tot: +0.76000 ]
SCF: Cycle:  8   F: -28.396445393461640   dF: -2.347e-05   |Residual|: 8.367e-04   |deigs|: 9.679e-04  t[s]:     24.27
	FillingsUpdate:  mu: -0.095581012  nElectrons: 9.000000  magneticMoment: [ Abs: 0.76019  Tot: +0.76000 ]
SCF: Cycle:  9   F: -28.396452028171222   dF: -6.635e-06   |Residual|: 6.674e-04   |deigs|: 1.060e-03  t[s]:     26.37
	FillingsUpdate:  mu: -0.094416034  nElectrons: 9.000000  magneticMoment: [ Abs: 0.76260  Tot: +0.76000 ]
SCF: Cycle: 10   F: -28.396454192448509   dF: -2.164e-06   |Residual|: 5.899e-04   |deigs|: 1.306e-03  t[s]:     28.49
	FillingsUpdate:  mu: -0.093859022  nElectrons: 9.000000  magneticMoment: [ Abs: 0.76328  Tot: +0.76000 ]
SCF: Cycle: 11   F: -28.396458778709654   dF: -4.586e-06   |Residual|: 5.069e-04   |deigs|: 5.016e-04  t[s]:     30.60
	FillingsUpdate:  mu: -0.092971940  nElectrons: 9.000000  magneticMoment: [ Abs: 0.76342  Tot: +0.76000 ]
SCF: Cycle: 12   F: -28.396465523530164   dF: -6.745e-06   |Residual|: 5.100e-04   |deigs|: 7.938e-04  t[s]:     32.65
	FillingsUpdate:  mu: -0.091991683  nElectrons: 9.000000  magneticMoment: [ Abs: 0.76379  Tot: +0.76000 ]
SCF: Cycle: 13   F: -28.396468791936215   dF: -3.268e-06   |Residual|: 4.074e-04   |deigs|: 1.100e-03  t[s]:     34.73
	FillingsUpdate:  mu: -0.090350854  nElectrons: 9.000000  magneticMoment: [ Abs: 0.76290  Tot: +0.76000 ]
SCF: Cycle: 14   F: -28.396473776304656   dF: -4.984e-06   |Residual|: 3.947e-04   |deigs|: 1.757e-03  t[s]:     36.83
	FillingsUpdate:  mu: -0.089548321  nElectrons: 9.000000  magneticMoment: [ Abs: 0.76140  Tot: +0.76000 ]
SCF: Cycle: 15   F: -28.396476159665262   dF: -2.383e-06   |Residual|: 3.454e-04   |deigs|: 9.773e-04  t[s]:     38.86
	FillingsUpdate:  mu: -0.088717640  nElectrons: 9.000000  magneticMoment: [ Abs: 0.76101  Tot: +0.76000 ]
SCF: Cycle: 16   F: -28.396485632815608   dF: -9.473e-06   |Residual|: 4.607e-04   |deigs|: 1.006e-03  t[s]:     40.96
	FillingsUpdate:  mu: -0.088884022  nElectrons: 9.000000  magneticMoment: [ Abs: 0.76092  Tot: +0.76000 ]
SCF: Cycle: 17   F: -28.396485885761550   dF: -2.529e-07   |Residual|: 4.255e-04   |deigs|: 3.940e-04  t[s]:     42.72
	FillingsUpdate:  mu: -0.089326233  nElectrons: 9.000000  magneticMoment: [ Abs: 0.76062  Tot: +0.76000 ]
SCF: Cycle: 18   F: -28.396486981152066   dF: -1.095e-06   |Residual|: 2.621e-04   |deigs|: 5.465e-04  t[s]:     44.79
	FillingsUpdate:  mu: -0.089346870  nElectrons: 9.000000  magneticMoment: [ Abs: 0.76041  Tot: +0.76000 ]
SCF: Cycle: 19   F: -28.396488230038283   dF: -1.249e-06   |Residual|: 1.359e-04   |deigs|: 1.539e-04  t[s]:     46.91
	FillingsUpdate:  mu: -0.089127913  nElectrons: 9.000000  magneticMoment: [ Abs: 0.76062  Tot: +0.76000 ]
SCF: Cycle: 20   F: -28.396488580055568   dF: -3.500e-07   |Residual|: 8.953e-05   |deigs|: 4.616e-04  t[s]:     48.93
	FillingsUpdate:  mu: -0.089009922  nElectrons: 9.000000  magneticMoment: [ Abs: 0.76077  Tot: +0.76000 ]
SCF: Cycle: 21   F: -28.396488791424460   dF: -2.114e-07   |Residual|: 5.381e-05   |deigs|: 4.922e-04  t[s]:     50.99
	FillingsUpdate:  mu: -0.088923721  nElectrons: 9.000000  magneticMoment: [ Abs: 0.76068  Tot: +0.76000 ]
SCF: Cycle: 22   F: -28.396488919225430   dF: -1.278e-07   |Residual|: 3.249e-05   |deigs|: 1.127e-04  t[s]:     53.05
	FillingsUpdate:  mu: -0.088890860  nElectrons: 9.000000  magneticMoment: [ Abs: 0.76057  Tot: +0.76000 ]
SCF: Cycle: 23   F: -28.396488997339521   dF: -7.811e-08   |Residual|: 2.762e-05   |deigs|: 7.249e-05  t[s]:     55.23
	FillingsUpdate:  mu: -0.088904795  nElectrons: 9.000000  magneticMoment: [ Abs: 0.76052  Tot: +0.76000 ]
SCF: Cycle: 24   F: -28.396489080602652   dF: -8.326e-08   |Residual|: 2.164e-05   |deigs|: 5.379e-05  t[s]:     57.32
	FillingsUpdate:  mu: -0.088924856  nElectrons: 9.000000  magneticMoment: [ Abs: 0.76043  Tot: +0.76000 ]
SCF: Cycle: 25   F: -28.396489117955955   dF: -3.735e-08   |Residual|: 2.041e-05   |deigs|: 3.844e-05  t[s]:     59.38
	FillingsUpdate:  mu: -0.088909117  nElectrons: 9.000000  magneticMoment: [ Abs: 0.76036  Tot: +0.76000 ]
SCF: Cycle: 26   F: -28.396489115020263   dF: +2.936e-09   |Residual|: 1.513e-05   |deigs|: 3.135e-05  t[s]:     61.47
	FillingsUpdate:  mu: -0.088898967  nElectrons: 9.000000  magneticMoment: [ Abs: 0.76019  Tot: +0.76000 ]
SCF: Cycle: 27   F: -28.396489121628214   dF: -6.608e-09   |Residual|: 1.230e-05   |deigs|: 2.900e-05  t[s]:     63.64
	FillingsUpdate:  mu: -0.088890173  nElectrons: 9.000000  magneticMoment: [ Abs: 0.76011  Tot: +0.76000 ]
SCF: Cycle: 28   F: -28.396489172872059   dF: -5.124e-08   |Residual|: 7.172e-06   |deigs|: 2.743e-05  t[s]:     65.71
	FillingsUpdate:  mu: -0.088885536  nElectrons: 9.000000  magneticMoment: [ Abs: 0.76007  Tot: +0.76000 ]
SCF: Cycle: 29   F: -28.396489183186411   dF: -1.031e-08   |Residual|: 4.796e-06   |deigs|: 2.490e-05  t[s]:     67.61
	FillingsUpdate:  mu: -0.088884042  nElectrons: 9.000000  magneticMoment: [ Abs: 0.76005  Tot: +0.76000 ]
SCF: Cycle: 30   F: -28.396489188329124   dF: -5.143e-09   |Residual|: 3.008e-06   |deigs|: 3.022e-05  t[s]:     69.67
	FillingsUpdate:  mu: -0.088884260  nElectrons: 9.000000  magneticMoment: [ Abs: 0.76004  Tot: +0.76000 ]
SCF: Cycle: 31   F: -28.396489191161638   dF: -2.833e-09   |Residual|: 1.822e-06   |deigs|: 3.074e-05  t[s]:     71.76
SCF: Converged (|Delta E|<1.000000e-08 for 2 iters).


# Ionic positions in lattice coordinates:
ion K   0.000000000000000   0.000000000000000   0.000000000000000 0

# Forces in Lattice coordinates:
force K  -0.000000000000000   0.000000000000000   0.000000000000000 0

# Energy components:
   Eewald =      -18.0480261003326561
       EH =        4.8842336463160105
     Eloc =      -18.0765420540190576
      Enl =       -2.7784151606933012
   Epulay =        0.0000000041876954
      Exc =       -4.2681800749195107
       KE =        9.8904409400976743
-------------------------------------
     Etot =      -28.3964887993631407
       TS =        0.0000003917984960
-------------------------------------
        F =      -28.3964891911616384

IonicMinimize: Iter:   0  F: -28.396489191161638  |grad|_K:  0.000e+00  t[s]:     71.88
IonicMinimize: Converged (|grad|_K<1.000000e-04).

#--- Lowdin population analysis ---
# oxidation-state K +0.147
# magnetic-moments K +0.617

End date and time: Sat Feb  5 23:50:37 2022  (Duration: 0-0:01:11.91)
Done!
