
*************** JDFTx 1.6.0 (git hash 42ebbcc2) ***************

Start date and time: Sat Feb  5 23:54:35 2022
Executable jdftx with command-line: -i Alkali.in
Running on hosts (process indices):  d-4-5-2 (0-18)
Divided in process groups (process indices):  0 (0)  1 (1)  2 (2)  3 (3)  4 (4)  5 (5)  6 (6)  7 (7)  8 (8)  9 (9)  10 (10)  11 (11)  12 (12)  13 (13)  14 (14)  15 (15)  16 (16)  17 (17)  18 (18)
Resource initialization completed at t[s]:      0.00
Run totals: 19 processes, 48 threads, 0 GPUs


Input parsed successfully to the following command list (including defaults):

basis kpoint-dependent
coords-type Lattice
core-overlap-check vector
coulomb-interaction Slab 001
davidson-band-ratio 1.1
dump End None
dump-name $INPUT.$VAR
elec-cutoff 20
elec-eigen-algo Davidson
elec-ex-corr gga-PBE
elec-initial-magnetization 0.880000 yes
elec-smearing Fermi 1e-05
electronic-minimize  \
	dirUpdateScheme      FletcherReeves \
	linminMethod         DirUpdateRecommended \
	nIterations          100 \
	history              15 \
	knormThreshold       0 \
	energyDiffThreshold  1e-08 \
	nEnergyDiff          2 \
	alphaTstart          1 \
	alphaTmin            1e-10 \
	updateTestStepSize   yes \
	alphaTreduceFactor   0.1 \
	alphaTincreaseFactor 3 \
	nAlphaAdjustMax      3 \
	wolfeEnergy          0.0001 \
	wolfeGradient        0.9 \
	fdTest               no
electronic-scf  \
	nIterations	10000 \
	energyDiffThreshold	1e-08 \
	residualThreshold	1e-07 \
	mixFraction	0.5 \
	qMetric	0.8 \
	history	10 \
	nEigSteps	2 \
	eigDiffThreshold	1e-08 \
	mixedVariable	Density \
	qKerker	0.8 \
	qKappa	-1 \
	verbose	no \
	mixFractionMag	1.5
exchange-regularization WignerSeitzTruncated
fluid None
fluid-ex-corr (null) lda-PZ
fluid-gummel-loop 10 1.000000e-05
fluid-minimize  \
	dirUpdateScheme      PolakRibiere \
	linminMethod         DirUpdateRecommended \
	nIterations          100 \
	history              15 \
	knormThreshold       0 \
	energyDiffThreshold  0 \
	nEnergyDiff          2 \
	alphaTstart          1 \
	alphaTmin            1e-10 \
	updateTestStepSize   yes \
	alphaTreduceFactor   0.1 \
	alphaTincreaseFactor 3 \
	nAlphaAdjustMax      3 \
	wolfeEnergy          0.0001 \
	wolfeGradient        0.9 \
	fdTest               no
fluid-solvent H2O 55.338 ScalarEOS \
	epsBulk 78.4 \
	pMol 0.92466 \
	epsInf 1.77 \
	Pvap 1.06736e-10 \
	sigmaBulk 4.62e-05 \
	Rvdw 2.61727 \
	Res 1.42 \
	tauNuc 343133 \
	poleEl 15 7 1
forces-output-coords Positions
ion K   0.000000000000000   0.000000000000000   0.000000000000000 0
ion-species SG15/$ID_ONCV_PBE.upf
ion-width 0
ionic-minimize  \
	dirUpdateScheme      L-BFGS \
	linminMethod         DirUpdateRecommended \
	nIterations          0 \
	history              15 \
	knormThreshold       0.0001 \
	energyDiffThreshold  1e-06 \
	nEnergyDiff          2 \
	alphaTstart          1 \
	alphaTmin            1e-10 \
	updateTestStepSize   yes \
	alphaTreduceFactor   0.1 \
	alphaTincreaseFactor 3 \
	nAlphaAdjustMax      3 \
	wolfeEnergy          0.0001 \
	wolfeGradient        0.9 \
	fdTest               no
kpoint   0.000000000000   0.000000000000   0.000000000000  1.00000000000000
kpoint-folding 12 12 1 
latt-move-scale 1 1 1
latt-scale 2 2 1 
lattice  \
	   4.727486978767153   -2.363743489383575    0.000000000000000  \
	  -0.000000000000000    4.094123819672498    0.000000000000000  \
	   0.000000000000000    0.000000000000000   40.000000000000000 
lattice-minimize  \
	dirUpdateScheme      L-BFGS \
	linminMethod         DirUpdateRecommended \
	nIterations          0 \
	history              15 \
	knormThreshold       0 \
	energyDiffThreshold  1e-06 \
	nEnergyDiff          2 \
	alphaTstart          1 \
	alphaTmin            1e-10 \
	updateTestStepSize   yes \
	alphaTreduceFactor   0.1 \
	alphaTincreaseFactor 3 \
	nAlphaAdjustMax      3 \
	wolfeEnergy          0.0001 \
	wolfeGradient        0.9 \
	fdTest               no
lcao-params -1 1e-06 1e-05
pcm-variant GLSSA13
spintype z-spin
subspace-rotation-factor 1 yes
symmetries automatic
symmetry-threshold 0.0001



---------- Setting up symmetries ----------

Found 24 point-group symmetries of the bravais lattice
Found 24 space-group symmetries with basis
Applied RMS atom displacement 0 bohrs to make symmetries exact.

---------- Initializing the Grid ----------
R = 
[      9.45497     -4.72749            0  ]
[            0      8.18825            0  ]
[            0            0           40  ]
unit cell volume = 3096.79
G =
[   0.664538   0.383671         -0  ]
[          0   0.767342         -0  ]
[         -0         -0    0.15708  ]
Minimum fftbox size, Smin = [  40  40  164  ]
Chosen fftbox size, S = [  40  40  168  ]

---------- Exchange Correlation functional ----------
Initalized PBE GGA exchange.
Initalized PBE GGA correlation.

---------- Setting up pseudopotentials ----------
Width of ionic core gaussian charges (only for fluid interactions / plotting) set to 0

Reading pseudopotential file '/home/gridsan/aligho/DFT/build-Nov24/pseudopotentials/SG15/K_ONCV_PBE.upf':
  'K' pseudopotential, 'PBE' functional
  Generated using ONCVPSP code by D. R. Hamann
  Author: Martin Schlipf and Francois Gygi  Date: 150915.
  9 valence electrons, 3 orbitals, 6 projectors, 2222 radial grid points, with lMax = 2
  Transforming local potential to a uniform radial grid of dG=0.02 with 1489 points.
  Transforming nonlocal projectors to a uniform radial grid of dG=0.02 with 432 points.
    3S    l: 0   occupation:  2.0   eigenvalue: -1.298836
    3P    l: 1   occupation:  6.0   eigenvalue: -0.691386
    4S    l: 0   occupation:  1.0   eigenvalue: -0.085223
  Transforming atomic orbitals to a uniform radial grid of dG=0.02 with 432 points.
  Core radius for overlap checks: 2.06 bohrs.
  Reading pulay file /home/gridsan/aligho/DFT/build-Nov24/pseudopotentials/SG15/K_ONCV_PBE.pulay ... using dE_dnG = -1.597219e-05 computed for Ecut = 20.

Initialized 1 species with 1 total atoms.

Folded 1 k-points by 12x12x1 to 144 k-points.

---------- Setting up k-points, bands, fillings ----------
Reduced to 19 k-points under symmetry. 
Computing the number of bands and number of electrons
Calculating initial fillings.
nElectrons:   9.000000   nBands: 6   nStates: 38

----- Setting up reduced wavefunction bases (one per k-point) -----
average nbasis = 13230.521 , ideal nbasis = 13229.709

---------- Setting up coulomb interaction ----------
Initialized slab truncation along lattice direction 001

---------- Setting up 2D ewald sum ----------
Optimum gaussian width for ewald sums = 5.249020 bohr.
Real space sums over 289 unit cells with max indices [  8  8  0  ]
Reciprocal space sums over 81 terms with max indices [  4  4  0  ]

---------- Allocating electronic variables ----------
Initializing wave functions:  linear combination of atomic orbitals
Note: number of bands (6) exceeds available atomic orbitals (5)
K pseudo-atom occupations:   s ( 2 1 )  p ( 6 )
	FillingsUpdate:  mu: -0.091995708  nElectrons: 9.000000  magneticMoment: [ Abs: 0.88000  Tot: +0.88000 ]
LCAOMinimize: Iter:   0  F: -28.3818936491635121  |grad|_K:  9.012e-06  alpha:  1.000e+00
	FillingsUpdate:  mu: -0.091993418  nElectrons: 9.000000  magneticMoment: [ Abs: 0.88000  Tot: +0.88000 ]
LCAOMinimize: Iter:   1  F: -28.3818937039669876  |grad|_K:  8.000e-08  alpha:  9.866e-01  linmin: -7.163e-03  cgtest:  1.702e-01  t[s]:      4.57
LCAOMinimize: Encountered beta<0, resetting CG.
	FillingsUpdate:  mu: -0.091993443  nElectrons: 9.000000  magneticMoment: [ Abs: 0.88000  Tot: +0.88000 ]
LCAOMinimize: Iter:   2  F: -28.3818937039711159  |grad|_K:  4.875e-09  alpha:  1.059e+00  linmin:  9.212e-02  cgtest: -9.922e-01  t[s]:      5.75
LCAOMinimize: Converged (|Delta F|<1.000000e-06 for 2 iters).


---- Citations for features of the code used in this run ----

   Software package:
      R. Sundararaman, K. Letchworth-Weaver, K.A. Schwarz, D. Gunceler, Y. Ozhabes and T.A. Arias, 'JDFTx: software for joint density-functional theory', SoftwareX 6, 278 (2017)

   gga-PBE exchange-correlation functional:
      J.P. Perdew, K. Burke and M. Ernzerhof, Phys. Rev. Lett. 77, 3865 (1996)

   Pseudopotentials:
      M Schlipf and F Gygi, Comput. Phys. Commun. 196, 36 (2015)

   Truncated Coulomb potentials:
      R. Sundararaman and T.A. Arias, Phys. Rev. B 87, 165122 (2013)

This list may not be complete. Please suggest additional citations or
report any other bugs at https://github.com/shankar1729/jdftx/issues

Initialization completed successfully at t[s]:      5.84


-------- Electronic minimization -----------
Will mix electronic density at each iteration.
	FillingsUpdate:  mu: -0.091993443  nElectrons: 9.000000  magneticMoment: [ Abs: 0.88000  Tot: +0.88000 ]
	FillingsUpdate:  mu: -0.105815835  nElectrons: 9.000000  magneticMoment: [ Abs: 0.88000  Tot: +0.88000 ]
SCF: Cycle:  0   F: -28.392520470780664   dF: -1.063e-02   |Residual|: 1.675e-02   |deigs|: 1.732e-01  t[s]:      8.33
	FillingsUpdate:  mu: -0.107555535  nElectrons: 9.000000  magneticMoment: [ Abs: 0.88000  Tot: +0.88000 ]
SCF: Cycle:  1   F: -28.393194627662453   dF: -6.742e-04   |Residual|: 1.260e-02   |deigs|: 8.385e-03  t[s]:     10.15
	FillingsUpdate:  mu: -0.106755097  nElectrons: 9.000000  magneticMoment: [ Abs: 0.88295  Tot: +0.88000 ]
SCF: Cycle:  2   F: -28.393356790517970   dF: -1.622e-04   |Residual|: 8.083e-03   |deigs|: 3.608e-03  t[s]:     11.99
	FillingsUpdate:  mu: -0.107765628  nElectrons: 9.000000  magneticMoment: [ Abs: 0.88000  Tot: +0.88000 ]
SCF: Cycle:  3   F: -28.393475280671371   dF: -1.185e-04   |Residual|: 4.371e-03   |deigs|: 3.226e-03  t[s]:     13.89
	FillingsUpdate:  mu: -0.104145056  nElectrons: 9.000000  magneticMoment: [ Abs: 0.88002  Tot: +0.88000 ]
SCF: Cycle:  4   F: -28.393536533889478   dF: -6.125e-05   |Residual|: 2.422e-03   |deigs|: 5.020e-03  t[s]:     15.74
	FillingsUpdate:  mu: -0.102734345  nElectrons: 9.000000  magneticMoment: [ Abs: 0.88004  Tot: +0.88000 ]
SCF: Cycle:  5   F: -28.393567208524004   dF: -3.067e-05   |Residual|: 2.053e-03   |deigs|: 2.128e-03  t[s]:     17.64
	FillingsUpdate:  mu: -0.100338735  nElectrons: 9.000000  magneticMoment: [ Abs: 0.88337  Tot: +0.88000 ]
SCF: Cycle:  6   F: -28.393590938877519   dF: -2.373e-05   |Residual|: 1.490e-03   |deigs|: 3.120e-03  t[s]:     19.62
	FillingsUpdate:  mu: -0.097857805  nElectrons: 9.000000  magneticMoment: [ Abs: 0.88647  Tot: +0.88000 ]
SCF: Cycle:  7   F: -28.393608616638211   dF: -1.768e-05   |Residual|: 1.216e-03   |deigs|: 3.401e-03  t[s]:     21.56
	FillingsUpdate:  mu: -0.097241471  nElectrons: 9.000000  magneticMoment: [ Abs: 0.88169  Tot: +0.88000 ]
SCF: Cycle:  8   F: -28.393637096820932   dF: -2.848e-05   |Residual|: 9.455e-04   |deigs|: 1.056e-03  t[s]:     23.52
	FillingsUpdate:  mu: -0.096844611  nElectrons: 9.000000  magneticMoment: [ Abs: 0.88012  Tot: +0.88000 ]
SCF: Cycle:  9   F: -28.393655498862827   dF: -1.840e-05   |Residual|: 7.752e-04   |deigs|: 7.044e-04  t[s]:     25.51
	FillingsUpdate:  mu: -0.095741857  nElectrons: 9.000000  magneticMoment: [ Abs: 0.88207  Tot: +0.88000 ]
SCF: Cycle: 10   F: -28.393665561903386   dF: -1.006e-05   |Residual|: 6.633e-04   |deigs|: 1.088e-03  t[s]:     27.74
	FillingsUpdate:  mu: -0.094923643  nElectrons: 9.000000  magneticMoment: [ Abs: 0.88320  Tot: +0.88000 ]
SCF: Cycle: 11   F: -28.393669897373492   dF: -4.335e-06   |Residual|: 5.363e-04   |deigs|: 8.212e-04  t[s]:     29.81
	FillingsUpdate:  mu: -0.094298915  nElectrons: 9.000000  magneticMoment: [ Abs: 0.88340  Tot: +0.88000 ]
SCF: Cycle: 12   F: -28.393673553597552   dF: -3.656e-06   |Residual|: 4.794e-04   |deigs|: 7.186e-04  t[s]:     31.91
	FillingsUpdate:  mu: -0.093098639  nElectrons: 9.000000  magneticMoment: [ Abs: 0.88388  Tot: +0.88000 ]
SCF: Cycle: 13   F: -28.393677266579825   dF: -3.713e-06   |Residual|: 4.157e-04   |deigs|: 1.322e-03  t[s]:     33.92
	FillingsUpdate:  mu: -0.091677268  nElectrons: 9.000000  magneticMoment: [ Abs: 0.88244  Tot: +0.88000 ]
SCF: Cycle: 14   F: -28.393680220036192   dF: -2.953e-06   |Residual|: 3.945e-04   |deigs|: 1.507e-03  t[s]:     35.94
	FillingsUpdate:  mu: -0.090757628  nElectrons: 9.000000  magneticMoment: [ Abs: 0.88139  Tot: +0.88000 ]
SCF: Cycle: 15   F: -28.393682535054907   dF: -2.315e-06   |Residual|: 3.616e-04   |deigs|: 8.798e-04  t[s]:     37.95
	FillingsUpdate:  mu: -0.089713116  nElectrons: 9.000000  magneticMoment: [ Abs: 0.88185  Tot: +0.88000 ]
SCF: Cycle: 16   F: -28.393685659260505   dF: -3.124e-06   |Residual|: 2.669e-04   |deigs|: 1.147e-03  t[s]:     39.96
	FillingsUpdate:  mu: -0.089121125  nElectrons: 9.000000  magneticMoment: [ Abs: 0.88111  Tot: +0.88000 ]
SCF: Cycle: 17   F: -28.393687352594210   dF: -1.693e-06   |Residual|: 1.978e-04   |deigs|: 6.990e-04  t[s]:     41.95
	FillingsUpdate:  mu: -0.088839999  nElectrons: 9.000000  magneticMoment: [ Abs: 0.88123  Tot: +0.88000 ]
SCF: Cycle: 18   F: -28.393688823447576   dF: -1.471e-06   |Residual|: 2.741e-04   |deigs|: 3.442e-04  t[s]:     43.96
	FillingsUpdate:  mu: -0.088942910  nElectrons: 9.000000  magneticMoment: [ Abs: 0.88117  Tot: +0.88000 ]
SCF: Cycle: 19   F: -28.393689318852328   dF: -4.954e-07   |Residual|: 2.961e-04   |deigs|: 2.589e-04  t[s]:     45.85
	FillingsUpdate:  mu: -0.088985482  nElectrons: 9.000000  magneticMoment: [ Abs: 0.88115  Tot: +0.88000 ]
SCF: Cycle: 20   F: -28.393689349550542   dF: -3.070e-08   |Residual|: 3.129e-04   |deigs|: 7.430e-04  t[s]:     47.83
	FillingsUpdate:  mu: -0.088743514  nElectrons: 9.000000  magneticMoment: [ Abs: 0.88135  Tot: +0.88000 ]
SCF: Cycle: 21   F: -28.393690312117418   dF: -9.626e-07   |Residual|: 4.730e-04   |deigs|: 5.508e-04  t[s]:     49.87
	FillingsUpdate:  mu: -0.089022313  nElectrons: 9.000000  magneticMoment: [ Abs: 0.88111  Tot: +0.88000 ]
SCF: Cycle: 22   F: -28.393690282068018   dF: +3.005e-08   |Residual|: 3.829e-04   |deigs|: 3.547e-04  t[s]:     51.89
	FillingsUpdate:  mu: -0.088848977  nElectrons: 9.000000  magneticMoment: [ Abs: 0.88090  Tot: +0.88000 ]
SCF: Cycle: 23   F: -28.393690415600108   dF: -1.335e-07   |Residual|: 3.807e-04   |deigs|: 1.510e-04  t[s]:     53.93
	FillingsUpdate:  mu: -0.088856122  nElectrons: 9.000000  magneticMoment: [ Abs: 0.88058  Tot: +0.88000 ]
SCF: Cycle: 24   F: -28.393690360312370   dF: +5.529e-08   |Residual|: 4.166e-04   |deigs|: 5.783e-05  t[s]:     55.92
	FillingsUpdate:  mu: -0.088777079  nElectrons: 9.000000  magneticMoment: [ Abs: 0.88035  Tot: +0.88000 ]
SCF: Cycle: 25   F: -28.393690197841593   dF: +1.625e-07   |Residual|: 5.536e-04   |deigs|: 5.181e-05  t[s]:     57.93
	FillingsUpdate:  mu: -0.088770473  nElectrons: 9.000000  magneticMoment: [ Abs: 0.88032  Tot: +0.88000 ]
SCF: Cycle: 26   F: -28.393690211414402   dF: -1.357e-08   |Residual|: 5.488e-04   |deigs|: 2.146e-05  t[s]:     59.88
	FillingsUpdate:  mu: -0.088917950  nElectrons: 9.000000  magneticMoment: [ Abs: 0.88033  Tot: +0.88000 ]
SCF: Cycle: 27   F: -28.393690194993699   dF: +1.642e-08   |Residual|: 5.255e-04   |deigs|: 1.575e-04  t[s]:     61.89
	FillingsUpdate:  mu: -0.088821368  nElectrons: 9.000000  magneticMoment: [ Abs: 0.88033  Tot: +0.88000 ]
SCF: Cycle: 28   F: -28.393689989051378   dF: +2.059e-07   |Residual|: 5.455e-04   |deigs|: 1.114e-04  t[s]:     63.91
	FillingsUpdate:  mu: -0.089000813  nElectrons: 9.000000  magneticMoment: [ Abs: 0.88036  Tot: +0.88000 ]
SCF: Cycle: 29   F: -28.393690265853571   dF: -2.768e-07   |Residual|: 4.654e-04   |deigs|: 1.886e-04  t[s]:     65.97
	FillingsUpdate:  mu: -0.089121912  nElectrons: 9.000000  magneticMoment: [ Abs: 0.88032  Tot: +0.88000 ]
SCF: Cycle: 30   F: -28.393690317219114   dF: -5.137e-08   |Residual|: 4.226e-04   |deigs|: 1.240e-04  t[s]:     67.95
	FillingsUpdate:  mu: -0.089913627  nElectrons: 9.000000  magneticMoment: [ Abs: 0.88018  Tot: +0.88000 ]
SCF: Cycle: 31   F: -28.393690693231445   dF: -3.760e-07   |Residual|: 1.625e-04   |deigs|: 7.912e-04  t[s]:     69.95
	FillingsUpdate:  mu: -0.089875545  nElectrons: 9.000000  magneticMoment: [ Abs: 0.88023  Tot: +0.88000 ]
SCF: Cycle: 32   F: -28.393691117177418   dF: -4.239e-07   |Residual|: 2.100e-04   |deigs|: 9.062e-05  t[s]:     71.95
	FillingsUpdate:  mu: -0.089888929  nElectrons: 9.000000  magneticMoment: [ Abs: 0.88046  Tot: +0.88000 ]
SCF: Cycle: 33   F: -28.393691413611318   dF: -2.964e-07   |Residual|: 5.035e-05   |deigs|: 6.612e-05  t[s]:     73.94
	FillingsUpdate:  mu: -0.089852260  nElectrons: 9.000000  magneticMoment: [ Abs: 0.88056  Tot: +0.88000 ]
SCF: Cycle: 34   F: -28.393691450893748   dF: -3.728e-08   |Residual|: 6.991e-05   |deigs|: 6.797e-05  t[s]:     76.00
	FillingsUpdate:  mu: -0.089801083  nElectrons: 9.000000  magneticMoment: [ Abs: 0.88052  Tot: +0.88000 ]
SCF: Cycle: 35   F: -28.393691472222926   dF: -2.133e-08   |Residual|: 3.366e-05   |deigs|: 5.732e-05  t[s]:     78.07
	FillingsUpdate:  mu: -0.089747355  nElectrons: 9.000000  magneticMoment: [ Abs: 0.88046  Tot: +0.88000 ]
SCF: Cycle: 36   F: -28.393691506948805   dF: -3.473e-08   |Residual|: 4.427e-05   |deigs|: 6.048e-05  t[s]:     80.16
	FillingsUpdate:  mu: -0.089733667  nElectrons: 9.000000  magneticMoment: [ Abs: 0.88039  Tot: +0.88000 ]
SCF: Cycle: 37   F: -28.393691498613805   dF: +8.335e-09   |Residual|: 4.170e-05   |deigs|: 2.456e-05  t[s]:     82.18
	FillingsUpdate:  mu: -0.089733634  nElectrons: 9.000000  magneticMoment: [ Abs: 0.88025  Tot: +0.88000 ]
SCF: Cycle: 38   F: -28.393691497561868   dF: +1.052e-09   |Residual|: 4.722e-05   |deigs|: 2.296e-05  t[s]:     84.20
	FillingsUpdate:  mu: -0.089747178  nElectrons: 9.000000  magneticMoment: [ Abs: 0.88022  Tot: +0.88000 ]
SCF: Cycle: 39   F: -28.393691501731539   dF: -4.170e-09   |Residual|: 1.832e-05   |deigs|: 1.963e-05  t[s]:     86.38
	FillingsUpdate:  mu: -0.089761721  nElectrons: 9.000000  magneticMoment: [ Abs: 0.88015  Tot: +0.88000 ]
SCF: Cycle: 40   F: -28.393691497248454   dF: +4.483e-09   |Residual|: 1.518e-05   |deigs|: 2.171e-05  t[s]:     88.43
	FillingsUpdate:  mu: -0.089766599  nElectrons: 9.000000  magneticMoment: [ Abs: 0.88013  Tot: +0.88000 ]
SCF: Cycle: 41   F: -28.393691521575242   dF: -2.433e-08   |Residual|: 5.953e-06   |deigs|: 1.249e-05  t[s]:     90.51
	FillingsUpdate:  mu: -0.089759930  nElectrons: 9.000000  magneticMoment: [ Abs: 0.88012  Tot: +0.88000 ]
SCF: Cycle: 42   F: -28.393691530102661   dF: -8.527e-09   |Residual|: 5.468e-06   |deigs|: 1.276e-05  t[s]:     92.48
	FillingsUpdate:  mu: -0.089749901  nElectrons: 9.000000  magneticMoment: [ Abs: 0.88010  Tot: +0.88000 ]
SCF: Cycle: 43   F: -28.393691531741165   dF: -1.639e-09   |Residual|: 4.514e-06   |deigs|: 1.228e-05  t[s]:     94.51
SCF: Converged (|Delta E|<1.000000e-08 for 2 iters).


# Ionic positions in lattice coordinates:
ion K   0.000000000000000   0.000000000000000   0.000000000000000 0

# Forces in Lattice coordinates:
force K   0.000000000000000   0.000000000000000   0.000000000000000 0

# Energy components:
   Eewald =      -18.0480261003326561
       EH =        4.8952753377495792
     Eloc =      -18.0877221702497906
      Enl =       -2.7801576741959018
   Epulay =        0.0000000041876954
      Exc =       -4.2702478149860443
       KE =        9.8971876874855838
-------------------------------------
     Etot =      -28.3936907303415254
       TS =        0.0000008013996389
-------------------------------------
        F =      -28.3936915317411653

IonicMinimize: Iter:   0  F: -28.393691531741165  |grad|_K:  0.000e+00  t[s]:     94.63
IonicMinimize: Converged (|grad|_K<1.000000e-04).

#--- Lowdin population analysis ---
# oxidation-state K +0.183
# magnetic-moments K +0.699

End date and time: Sat Feb  5 23:56:10 2022  (Duration: 0-0:01:34.65)
Done!
