
*************** JDFTx 1.6.0 (git hash 42ebbcc2) ***************

Start date and time: Sat Feb  5 23:30:08 2022
Executable jdftx with command-line: -i Alkali.in
Running on hosts (process indices):  d-3-7-3 (0-18)
Divided in process groups (process indices):  0 (0)  1 (1)  2 (2)  3 (3)  4 (4)  5 (5)  6 (6)  7 (7)  8 (8)  9 (9)  10 (10)  11 (11)  12 (12)  13 (13)  14 (14)  15 (15)  16 (16)  17 (17)  18 (18)
Resource initialization completed at t[s]:      0.00
Run totals: 19 processes, 48 threads, 0 GPUs


Input parsed successfully to the following command list (including defaults):

basis kpoint-dependent
coords-type Lattice
core-overlap-check vector
coulomb-interaction Slab 001
davidson-band-ratio 1.1
dump End None
dump-name $INPUT.$VAR
elec-cutoff 20
elec-eigen-algo Davidson
elec-ex-corr gga-PBE
elec-initial-magnetization -0.960000 yes
elec-smearing Fermi 1e-05
electronic-minimize  \
	dirUpdateScheme      FletcherReeves \
	linminMethod         DirUpdateRecommended \
	nIterations          100 \
	history              15 \
	knormThreshold       0 \
	energyDiffThreshold  1e-08 \
	nEnergyDiff          2 \
	alphaTstart          1 \
	alphaTmin            1e-10 \
	updateTestStepSize   yes \
	alphaTreduceFactor   0.1 \
	alphaTincreaseFactor 3 \
	nAlphaAdjustMax      3 \
	wolfeEnergy          0.0001 \
	wolfeGradient        0.9 \
	fdTest               no
electronic-scf  \
	nIterations	10000 \
	energyDiffThreshold	1e-08 \
	residualThreshold	1e-07 \
	mixFraction	0.5 \
	qMetric	0.8 \
	history	10 \
	nEigSteps	2 \
	eigDiffThreshold	1e-08 \
	mixedVariable	Density \
	qKerker	0.8 \
	qKappa	-1 \
	verbose	no \
	mixFractionMag	1.5
exchange-regularization WignerSeitzTruncated
fluid None
fluid-ex-corr (null) lda-PZ
fluid-gummel-loop 10 1.000000e-05
fluid-minimize  \
	dirUpdateScheme      PolakRibiere \
	linminMethod         DirUpdateRecommended \
	nIterations          100 \
	history              15 \
	knormThreshold       0 \
	energyDiffThreshold  0 \
	nEnergyDiff          2 \
	alphaTstart          1 \
	alphaTmin            1e-10 \
	updateTestStepSize   yes \
	alphaTreduceFactor   0.1 \
	alphaTincreaseFactor 3 \
	nAlphaAdjustMax      3 \
	wolfeEnergy          0.0001 \
	wolfeGradient        0.9 \
	fdTest               no
fluid-solvent H2O 55.338 ScalarEOS \
	epsBulk 78.4 \
	pMol 0.92466 \
	epsInf 1.77 \
	Pvap 1.06736e-10 \
	sigmaBulk 4.62e-05 \
	Rvdw 2.61727 \
	Res 1.42 \
	tauNuc 343133 \
	poleEl 15 7 1
forces-output-coords Positions
ion K   0.000000000000000   0.000000000000000   0.000000000000000 0
ion-species SG15/$ID_ONCV_PBE.upf
ion-width 0
ionic-minimize  \
	dirUpdateScheme      L-BFGS \
	linminMethod         DirUpdateRecommended \
	nIterations          0 \
	history              15 \
	knormThreshold       0.0001 \
	energyDiffThreshold  1e-06 \
	nEnergyDiff          2 \
	alphaTstart          1 \
	alphaTmin            1e-10 \
	updateTestStepSize   yes \
	alphaTreduceFactor   0.1 \
	alphaTincreaseFactor 3 \
	nAlphaAdjustMax      3 \
	wolfeEnergy          0.0001 \
	wolfeGradient        0.9 \
	fdTest               no
kpoint   0.000000000000   0.000000000000   0.000000000000  1.00000000000000
kpoint-folding 12 12 1 
latt-move-scale 1 1 1
latt-scale 2 2 1 
lattice  \
	   4.727486978767153   -2.363743489383575    0.000000000000000  \
	  -0.000000000000000    4.094123819672498    0.000000000000000  \
	   0.000000000000000    0.000000000000000   40.000000000000000 
lattice-minimize  \
	dirUpdateScheme      L-BFGS \
	linminMethod         DirUpdateRecommended \
	nIterations          0 \
	history              15 \
	knormThreshold       0 \
	energyDiffThreshold  1e-06 \
	nEnergyDiff          2 \
	alphaTstart          1 \
	alphaTmin            1e-10 \
	updateTestStepSize   yes \
	alphaTreduceFactor   0.1 \
	alphaTincreaseFactor 3 \
	nAlphaAdjustMax      3 \
	wolfeEnergy          0.0001 \
	wolfeGradient        0.9 \
	fdTest               no
lcao-params -1 1e-06 1e-05
pcm-variant GLSSA13
spintype z-spin
subspace-rotation-factor 1 yes
symmetries automatic
symmetry-threshold 0.0001



---------- Setting up symmetries ----------

Found 24 point-group symmetries of the bravais lattice
Found 24 space-group symmetries with basis
Applied RMS atom displacement 0 bohrs to make symmetries exact.

---------- Initializing the Grid ----------
R = 
[      9.45497     -4.72749            0  ]
[            0      8.18825            0  ]
[            0            0           40  ]
unit cell volume = 3096.79
G =
[   0.664538   0.383671         -0  ]
[          0   0.767342         -0  ]
[         -0         -0    0.15708  ]
Minimum fftbox size, Smin = [  40  40  164  ]
Chosen fftbox size, S = [  40  40  168  ]

---------- Exchange Correlation functional ----------
Initalized PBE GGA exchange.
Initalized PBE GGA correlation.

---------- Setting up pseudopotentials ----------
Width of ionic core gaussian charges (only for fluid interactions / plotting) set to 0

Reading pseudopotential file '/home/gridsan/aligho/DFT/build-Nov24/pseudopotentials/SG15/K_ONCV_PBE.upf':
  'K' pseudopotential, 'PBE' functional
  Generated using ONCVPSP code by D. R. Hamann
  Author: Martin Schlipf and Francois Gygi  Date: 150915.
  9 valence electrons, 3 orbitals, 6 projectors, 2222 radial grid points, with lMax = 2
  Transforming local potential to a uniform radial grid of dG=0.02 with 1489 points.
  Transforming nonlocal projectors to a uniform radial grid of dG=0.02 with 432 points.
    3S    l: 0   occupation:  2.0   eigenvalue: -1.298836
    3P    l: 1   occupation:  6.0   eigenvalue: -0.691386
    4S    l: 0   occupation:  1.0   eigenvalue: -0.085223
  Transforming atomic orbitals to a uniform radial grid of dG=0.02 with 432 points.
  Core radius for overlap checks: 2.06 bohrs.
  Reading pulay file /home/gridsan/aligho/DFT/build-Nov24/pseudopotentials/SG15/K_ONCV_PBE.pulay ... using dE_dnG = -1.597219e-05 computed for Ecut = 20.

Initialized 1 species with 1 total atoms.

Folded 1 k-points by 12x12x1 to 144 k-points.

---------- Setting up k-points, bands, fillings ----------
Reduced to 19 k-points under symmetry. 
Computing the number of bands and number of electrons
Calculating initial fillings.
nElectrons:   9.000000   nBands: 6   nStates: 38

----- Setting up reduced wavefunction bases (one per k-point) -----
average nbasis = 13230.521 , ideal nbasis = 13229.709

---------- Setting up coulomb interaction ----------
Initialized slab truncation along lattice direction 001

---------- Setting up 2D ewald sum ----------
Optimum gaussian width for ewald sums = 5.249020 bohr.
Real space sums over 289 unit cells with max indices [  8  8  0  ]
Reciprocal space sums over 81 terms with max indices [  4  4  0  ]

---------- Allocating electronic variables ----------
Initializing wave functions:  linear combination of atomic orbitals
Note: number of bands (6) exceeds available atomic orbitals (5)
K pseudo-atom occupations:   s ( 2 1 )  p ( 6 )
	FillingsUpdate:  mu: -0.094380781  nElectrons: 9.000000  magneticMoment: [ Abs: 0.96000  Tot: -0.96000 ]
LCAOMinimize: Iter:   0  F: -28.3787196293817310  |grad|_K:  3.534e-06  alpha:  1.000e+00
	FillingsUpdate:  mu: -0.094379971  nElectrons: 9.000000  magneticMoment: [ Abs: 0.96000  Tot: -0.96000 ]
LCAOMinimize: Iter:   1  F: -28.3787196378370403  |grad|_K:  3.103e-08  alpha:  9.895e-01  linmin: -1.801e-03  cgtest:  5.014e-02  t[s]:      4.85
LCAOMinimize: Encountered beta<0, resetting CG.
	FillingsUpdate:  mu: -0.094380002  nElectrons: 9.000000  magneticMoment: [ Abs: 0.96000  Tot: -0.96000 ]
LCAOMinimize: Iter:   2  F: -28.3787196378371931  |grad|_K:  3.802e-08  alpha:  2.214e+00  linmin:  5.025e-02  cgtest: -9.999e-01  t[s]:      6.09
LCAOMinimize: Converged (|Delta F|<1.000000e-06 for 2 iters).


---- Citations for features of the code used in this run ----

   Software package:
      R. Sundararaman, K. Letchworth-Weaver, K.A. Schwarz, D. Gunceler, Y. Ozhabes and T.A. Arias, 'JDFTx: software for joint density-functional theory', SoftwareX 6, 278 (2017)

   gga-PBE exchange-correlation functional:
      J.P. Perdew, K. Burke and M. Ernzerhof, Phys. Rev. Lett. 77, 3865 (1996)

   Pseudopotentials:
      M Schlipf and F Gygi, Comput. Phys. Commun. 196, 36 (2015)

   Truncated Coulomb potentials:
      R. Sundararaman and T.A. Arias, Phys. Rev. B 87, 165122 (2013)

This list may not be complete. Please suggest additional citations or
report any other bugs at https://github.com/shankar1729/jdftx/issues

Initialization completed successfully at t[s]:      6.18


-------- Electronic minimization -----------
Will mix electronic density at each iteration.
	FillingsUpdate:  mu: -0.094380002  nElectrons: 9.000000  magneticMoment: [ Abs: 0.96000  Tot: -0.96000 ]
	FillingsUpdate:  mu: -0.106645497  nElectrons: 9.000000  magneticMoment: [ Abs: 0.96000  Tot: -0.96000 ]
SCF: Cycle:  0   F: -28.390073395264277   dF: -1.135e-02   |Residual|: 1.766e-02   |deigs|: 1.733e-01  t[s]:      8.50
	FillingsUpdate:  mu: -0.105935805  nElectrons: 9.000000  magneticMoment: [ Abs: 0.96000  Tot: -0.96000 ]
SCF: Cycle:  1   F: -28.391058369367904   dF: -9.850e-04   |Residual|: 1.401e-02   |deigs|: 7.129e-03  t[s]:     10.30
	FillingsUpdate:  mu: -0.106402286  nElectrons: 9.000000  magneticMoment: [ Abs: 0.96195  Tot: -0.96000 ]
SCF: Cycle:  2   F: -28.391231236020381   dF: -1.729e-04   |Residual|: 8.988e-03   |deigs|: 4.654e-03  t[s]:     12.12
	FillingsUpdate:  mu: -0.105471094  nElectrons: 9.000000  magneticMoment: [ Abs: 0.96000  Tot: -0.96000 ]
SCF: Cycle:  3   F: -28.391375281704185   dF: -1.440e-04   |Residual|: 5.276e-03   |deigs|: 4.636e-03  t[s]:     13.98
	FillingsUpdate:  mu: -0.105396636  nElectrons: 9.000000  magneticMoment: [ Abs: 0.96001  Tot: -0.96000 ]
SCF: Cycle:  4   F: -28.391450098982165   dF: -7.482e-05   |Residual|: 2.619e-03   |deigs|: 2.520e-03  t[s]:     15.92
	FillingsUpdate:  mu: -0.103355292  nElectrons: 9.000000  magneticMoment: [ Abs: 0.96008  Tot: -0.96000 ]
SCF: Cycle:  5   F: -28.391483637457636   dF: -3.354e-05   |Residual|: 2.145e-03   |deigs|: 2.311e-03  t[s]:     17.88
	FillingsUpdate:  mu: -0.101335020  nElectrons: 9.000000  magneticMoment: [ Abs: 0.96320  Tot: -0.96000 ]
SCF: Cycle:  6   F: -28.391520931717572   dF: -3.729e-05   |Residual|: 1.578e-03   |deigs|: 2.887e-03  t[s]:     19.76
	FillingsUpdate:  mu: -0.100450117  nElectrons: 9.000000  magneticMoment: [ Abs: 0.96361  Tot: -0.96000 ]
SCF: Cycle:  7   F: -28.391546093743152   dF: -2.516e-05   |Residual|: 1.302e-03   |deigs|: 3.052e-03  t[s]:     21.73
	FillingsUpdate:  mu: -0.098803121  nElectrons: 9.000000  magneticMoment: [ Abs: 0.96219  Tot: -0.96000 ]
SCF: Cycle:  8   F: -28.391570280902584   dF: -2.419e-05   |Residual|: 1.009e-03   |deigs|: 1.865e-03  t[s]:     23.69
	FillingsUpdate:  mu: -0.098208224  nElectrons: 9.000000  magneticMoment: [ Abs: 0.96011  Tot: -0.96000 ]
SCF: Cycle:  9   F: -28.391585751777175   dF: -1.547e-05   |Residual|: 7.499e-04   |deigs|: 7.169e-04  t[s]:     25.67
	FillingsUpdate:  mu: -0.097325087  nElectrons: 9.000000  magneticMoment: [ Abs: 0.96145  Tot: -0.96000 ]
SCF: Cycle: 10   F: -28.391595775033377   dF: -1.002e-05   |Residual|: 6.845e-04   |deigs|: 9.177e-04  t[s]:     27.73
	FillingsUpdate:  mu: -0.096520492  nElectrons: 9.000000  magneticMoment: [ Abs: 0.96320  Tot: -0.96000 ]
SCF: Cycle: 11   F: -28.391601056770526   dF: -5.282e-06   |Residual|: 5.708e-04   |deigs|: 9.094e-04  t[s]:     29.73
	FillingsUpdate:  mu: -0.096509005  nElectrons: 9.000000  magneticMoment: [ Abs: 0.96331  Tot: -0.96000 ]
SCF: Cycle: 12   F: -28.391603786212507   dF: -2.729e-06   |Residual|: 4.909e-04   |deigs|: 7.625e-04  t[s]:     31.76
	FillingsUpdate:  mu: -0.095681074  nElectrons: 9.000000  magneticMoment: [ Abs: 0.96391  Tot: -0.96000 ]
SCF: Cycle: 13   F: -28.391607328689553   dF: -3.542e-06   |Residual|: 4.305e-04   |deigs|: 1.154e-03  t[s]:     33.78
	FillingsUpdate:  mu: -0.094070566  nElectrons: 9.000000  magneticMoment: [ Abs: 0.96328  Tot: -0.96000 ]
SCF: Cycle: 14   F: -28.391609733105103   dF: -2.404e-06   |Residual|: 4.122e-04   |deigs|: 1.789e-03  t[s]:     35.76
	FillingsUpdate:  mu: -0.092945420  nElectrons: 9.000000  magneticMoment: [ Abs: 0.96230  Tot: -0.96000 ]
SCF: Cycle: 15   F: -28.391612367588966   dF: -2.634e-06   |Residual|: 3.721e-04   |deigs|: 1.079e-03  t[s]:     37.78
	FillingsUpdate:  mu: -0.091418541  nElectrons: 9.000000  magneticMoment: [ Abs: 0.96157  Tot: -0.96000 ]
SCF: Cycle: 16   F: -28.391624009947318   dF: -1.164e-05   |Residual|: 4.726e-04   |deigs|: 1.382e-03  t[s]:     39.78
	FillingsUpdate:  mu: -0.092255679  nElectrons: 9.000000  magneticMoment: [ Abs: 0.96105  Tot: -0.96000 ]
SCF: Cycle: 17   F: -28.391625355157341   dF: -1.345e-06   |Residual|: 2.620e-04   |deigs|: 9.232e-04  t[s]:     41.77
	FillingsUpdate:  mu: -0.092317144  nElectrons: 9.000000  magneticMoment: [ Abs: 0.96073  Tot: -0.96000 ]
SCF: Cycle: 18   F: -28.391626625289998   dF: -1.270e-06   |Residual|: 2.394e-04   |deigs|: 5.623e-04  t[s]:     43.77
	FillingsUpdate:  mu: -0.091788246  nElectrons: 9.000000  magneticMoment: [ Abs: 0.96094  Tot: -0.96000 ]
SCF: Cycle: 19   F: -28.391627612228152   dF: -9.869e-07   |Residual|: 1.631e-04   |deigs|: 7.698e-04  t[s]:     45.77
	FillingsUpdate:  mu: -0.091360949  nElectrons: 9.000000  magneticMoment: [ Abs: 0.96143  Tot: -0.96000 ]
SCF: Cycle: 20   F: -28.391628174472622   dF: -5.622e-07   |Residual|: 9.294e-05   |deigs|: 5.160e-04  t[s]:     47.77
	FillingsUpdate:  mu: -0.091275888  nElectrons: 9.000000  magneticMoment: [ Abs: 0.96125  Tot: -0.96000 ]
SCF: Cycle: 21   F: -28.391628443526947   dF: -2.691e-07   |Residual|: 6.211e-05   |deigs|: 4.207e-04  t[s]:     49.79
	FillingsUpdate:  mu: -0.091398745  nElectrons: 9.000000  magneticMoment: [ Abs: 0.96108  Tot: -0.96000 ]
SCF: Cycle: 22   F: -28.391628613575339   dF: -1.700e-07   |Residual|: 3.658e-05   |deigs|: 3.529e-04  t[s]:     51.78
	FillingsUpdate:  mu: -0.091529449  nElectrons: 9.000000  magneticMoment: [ Abs: 0.96078  Tot: -0.96000 ]
SCF: Cycle: 23   F: -28.391628731104557   dF: -1.175e-07   |Residual|: 3.582e-05   |deigs|: 1.617e-04  t[s]:     53.76
	FillingsUpdate:  mu: -0.091498079  nElectrons: 9.000000  magneticMoment: [ Abs: 0.96043  Tot: -0.96000 ]
SCF: Cycle: 24   F: -28.391628798190776   dF: -6.709e-08   |Residual|: 3.116e-05   |deigs|: 6.046e-05  t[s]:     55.79
	FillingsUpdate:  mu: -0.091458310  nElectrons: 9.000000  magneticMoment: [ Abs: 0.96026  Tot: -0.96000 ]
SCF: Cycle: 25   F: -28.391628891579398   dF: -9.339e-08   |Residual|: 2.291e-05   |deigs|: 6.481e-05  t[s]:     57.80
	FillingsUpdate:  mu: -0.091433445  nElectrons: 9.000000  magneticMoment: [ Abs: 0.96010  Tot: -0.96000 ]
SCF: Cycle: 26   F: -28.391628941254222   dF: -4.967e-08   |Residual|: 1.552e-05   |deigs|: 4.038e-05  t[s]:     59.77
	FillingsUpdate:  mu: -0.091446710  nElectrons: 9.000000  magneticMoment: [ Abs: 0.96007  Tot: -0.96000 ]
SCF: Cycle: 27   F: -28.391628955764720   dF: -1.451e-08   |Residual|: 9.452e-06   |deigs|: 1.693e-05  t[s]:     61.68
	FillingsUpdate:  mu: -0.091452171  nElectrons: 9.000000  magneticMoment: [ Abs: 0.96008  Tot: -0.96000 ]
SCF: Cycle: 28   F: -28.391628978424663   dF: -2.266e-08   |Residual|: 6.332e-06   |deigs|: 7.028e-06  t[s]:     63.72
	FillingsUpdate:  mu: -0.091454376  nElectrons: 9.000000  magneticMoment: [ Abs: 0.96008  Tot: -0.96000 ]
SCF: Cycle: 29   F: -28.391628985777526   dF: -7.353e-09   |Residual|: 4.899e-06   |deigs|: 5.720e-06  t[s]:     65.72
	FillingsUpdate:  mu: -0.091453381  nElectrons: 9.000000  magneticMoment: [ Abs: 0.96008  Tot: -0.96000 ]
SCF: Cycle: 30   F: -28.391628994096870   dF: -8.319e-09   |Residual|: 3.111e-06   |deigs|: 1.070e-05  t[s]:     67.70
SCF: Converged (|Delta E|<1.000000e-08 for 2 iters).


# Ionic positions in lattice coordinates:
ion K   0.000000000000000   0.000000000000000   0.000000000000000 0

# Forces in Lattice coordinates:
force K   0.000000000000000   0.000000000000000   0.000000000000000 0

# Energy components:
   Eewald =      -18.0480261003326561
       EH =        4.9031310991291246
     Eloc =      -18.0956863435107387
      Enl =       -2.7816235902722033
   Epulay =        0.0000000041876954
      Exc =       -4.2717378277897575
       KE =        9.9023142241146438
-------------------------------------
     Etot =      -28.3916285344738917
       TS =        0.0000004596229762
-------------------------------------
        F =      -28.3916289940968696

IonicMinimize: Iter:   0  F: -28.391628994096870  |grad|_K:  0.000e+00  t[s]:     67.81
IonicMinimize: Converged (|grad|_K<1.000000e-04).

#--- Lowdin population analysis ---
# oxidation-state K +0.214
# magnetic-moments K -0.748

End date and time: Sat Feb  5 23:31:16 2022  (Duration: 0-0:01:07.83)
Done!
