
*************** JDFTx 1.6.0 (git hash 42ebbcc2) ***************

Start date and time: Sat Feb  5 23:30:09 2022
Executable jdftx with command-line: -i Alkali.in
Running on hosts (process indices):  d-6-7-4 (0-18)
Divided in process groups (process indices):  0 (0)  1 (1)  2 (2)  3 (3)  4 (4)  5 (5)  6 (6)  7 (7)  8 (8)  9 (9)  10 (10)  11 (11)  12 (12)  13 (13)  14 (14)  15 (15)  16 (16)  17 (17)  18 (18)
Resource initialization completed at t[s]:      0.00
Run totals: 19 processes, 48 threads, 0 GPUs


Input parsed successfully to the following command list (including defaults):

basis kpoint-dependent
coords-type Lattice
core-overlap-check vector
coulomb-interaction Slab 001
davidson-band-ratio 1.1
dump End None
dump-name $INPUT.$VAR
elec-cutoff 20
elec-eigen-algo Davidson
elec-ex-corr gga-PBE
elec-initial-magnetization -0.740000 yes
elec-smearing Fermi 1e-05
electronic-minimize  \
	dirUpdateScheme      FletcherReeves \
	linminMethod         DirUpdateRecommended \
	nIterations          100 \
	history              15 \
	knormThreshold       0 \
	energyDiffThreshold  1e-08 \
	nEnergyDiff          2 \
	alphaTstart          1 \
	alphaTmin            1e-10 \
	updateTestStepSize   yes \
	alphaTreduceFactor   0.1 \
	alphaTincreaseFactor 3 \
	nAlphaAdjustMax      3 \
	wolfeEnergy          0.0001 \
	wolfeGradient        0.9 \
	fdTest               no
electronic-scf  \
	nIterations	10000 \
	energyDiffThreshold	1e-08 \
	residualThreshold	1e-07 \
	mixFraction	0.5 \
	qMetric	0.8 \
	history	10 \
	nEigSteps	2 \
	eigDiffThreshold	1e-08 \
	mixedVariable	Density \
	qKerker	0.8 \
	qKappa	-1 \
	verbose	no \
	mixFractionMag	1.5
exchange-regularization WignerSeitzTruncated
fluid None
fluid-ex-corr (null) lda-PZ
fluid-gummel-loop 10 1.000000e-05
fluid-minimize  \
	dirUpdateScheme      PolakRibiere \
	linminMethod         DirUpdateRecommended \
	nIterations          100 \
	history              15 \
	knormThreshold       0 \
	energyDiffThreshold  0 \
	nEnergyDiff          2 \
	alphaTstart          1 \
	alphaTmin            1e-10 \
	updateTestStepSize   yes \
	alphaTreduceFactor   0.1 \
	alphaTincreaseFactor 3 \
	nAlphaAdjustMax      3 \
	wolfeEnergy          0.0001 \
	wolfeGradient        0.9 \
	fdTest               no
fluid-solvent H2O 55.338 ScalarEOS \
	epsBulk 78.4 \
	pMol 0.92466 \
	epsInf 1.77 \
	Pvap 1.06736e-10 \
	sigmaBulk 4.62e-05 \
	Rvdw 2.61727 \
	Res 1.42 \
	tauNuc 343133 \
	poleEl 15 7 1
forces-output-coords Positions
ion K   0.000000000000000   0.000000000000000   0.000000000000000 0
ion-species SG15/$ID_ONCV_PBE.upf
ion-width 0
ionic-minimize  \
	dirUpdateScheme      L-BFGS \
	linminMethod         DirUpdateRecommended \
	nIterations          0 \
	history              15 \
	knormThreshold       0.0001 \
	energyDiffThreshold  1e-06 \
	nEnergyDiff          2 \
	alphaTstart          1 \
	alphaTmin            1e-10 \
	updateTestStepSize   yes \
	alphaTreduceFactor   0.1 \
	alphaTincreaseFactor 3 \
	nAlphaAdjustMax      3 \
	wolfeEnergy          0.0001 \
	wolfeGradient        0.9 \
	fdTest               no
kpoint   0.000000000000   0.000000000000   0.000000000000  1.00000000000000
kpoint-folding 12 12 1 
latt-move-scale 1 1 1
latt-scale 2 2 1 
lattice  \
	   4.727486978767153   -2.363743489383575    0.000000000000000  \
	  -0.000000000000000    4.094123819672498    0.000000000000000  \
	   0.000000000000000    0.000000000000000   40.000000000000000 
lattice-minimize  \
	dirUpdateScheme      L-BFGS \
	linminMethod         DirUpdateRecommended \
	nIterations          0 \
	history              15 \
	knormThreshold       0 \
	energyDiffThreshold  1e-06 \
	nEnergyDiff          2 \
	alphaTstart          1 \
	alphaTmin            1e-10 \
	updateTestStepSize   yes \
	alphaTreduceFactor   0.1 \
	alphaTincreaseFactor 3 \
	nAlphaAdjustMax      3 \
	wolfeEnergy          0.0001 \
	wolfeGradient        0.9 \
	fdTest               no
lcao-params -1 1e-06 1e-05
pcm-variant GLSSA13
spintype z-spin
subspace-rotation-factor 1 yes
symmetries automatic
symmetry-threshold 0.0001



---------- Setting up symmetries ----------

Found 24 point-group symmetries of the bravais lattice
Found 24 space-group symmetries with basis
Applied RMS atom displacement 0 bohrs to make symmetries exact.

---------- Initializing the Grid ----------
R = 
[      9.45497     -4.72749            0  ]
[            0      8.18825            0  ]
[            0            0           40  ]
unit cell volume = 3096.79
G =
[   0.664538   0.383671         -0  ]
[          0   0.767342         -0  ]
[         -0         -0    0.15708  ]
Minimum fftbox size, Smin = [  40  40  164  ]
Chosen fftbox size, S = [  40  40  168  ]

---------- Exchange Correlation functional ----------
Initalized PBE GGA exchange.
Initalized PBE GGA correlation.

---------- Setting up pseudopotentials ----------
Width of ionic core gaussian charges (only for fluid interactions / plotting) set to 0

Reading pseudopotential file '/home/gridsan/aligho/DFT/build-Nov24/pseudopotentials/SG15/K_ONCV_PBE.upf':
  'K' pseudopotential, 'PBE' functional
  Generated using ONCVPSP code by D. R. Hamann
  Author: Martin Schlipf and Francois Gygi  Date: 150915.
  9 valence electrons, 3 orbitals, 6 projectors, 2222 radial grid points, with lMax = 2
  Transforming local potential to a uniform radial grid of dG=0.02 with 1489 points.
  Transforming nonlocal projectors to a uniform radial grid of dG=0.02 with 432 points.
    3S    l: 0   occupation:  2.0   eigenvalue: -1.298836
    3P    l: 1   occupation:  6.0   eigenvalue: -0.691386
    4S    l: 0   occupation:  1.0   eigenvalue: -0.085223
  Transforming atomic orbitals to a uniform radial grid of dG=0.02 with 432 points.
  Core radius for overlap checks: 2.06 bohrs.
  Reading pulay file /home/gridsan/aligho/DFT/build-Nov24/pseudopotentials/SG15/K_ONCV_PBE.pulay ... using dE_dnG = -1.597219e-05 computed for Ecut = 20.

Initialized 1 species with 1 total atoms.

Folded 1 k-points by 12x12x1 to 144 k-points.

---------- Setting up k-points, bands, fillings ----------
Reduced to 19 k-points under symmetry. 
Computing the number of bands and number of electrons
Calculating initial fillings.
nElectrons:   9.000000   nBands: 6   nStates: 38

----- Setting up reduced wavefunction bases (one per k-point) -----
average nbasis = 13230.521 , ideal nbasis = 13229.709

---------- Setting up coulomb interaction ----------
Initialized slab truncation along lattice direction 001

---------- Setting up 2D ewald sum ----------
Optimum gaussian width for ewald sums = 5.249020 bohr.
Real space sums over 289 unit cells with max indices [  8  8  0  ]
Reciprocal space sums over 81 terms with max indices [  4  4  0  ]

---------- Allocating electronic variables ----------
Initializing wave functions:  linear combination of atomic orbitals
Note: number of bands (6) exceeds available atomic orbitals (5)
K pseudo-atom occupations:   s ( 2 1 )  p ( 6 )
	FillingsUpdate:  mu: -0.094800260  nElectrons: 9.000000  magneticMoment: [ Abs: 0.74000  Tot: -0.74000 ]
LCAOMinimize: Iter:   0  F: -28.3869821171163927  |grad|_K:  1.864e-05  alpha:  1.000e+00
	FillingsUpdate:  mu: -0.094795586  nElectrons: 9.000000  magneticMoment: [ Abs: 0.74000  Tot: -0.74000 ]
LCAOMinimize: Iter:   1  F: -28.3869823507077648  |grad|_K:  1.609e-07  alpha:  9.833e-01  linmin: -1.784e-02  cgtest:  3.062e-01  t[s]:      4.53
LCAOMinimize: Encountered beta<0, resetting CG.
	FillingsUpdate:  mu: -0.094795625  nElectrons: 9.000000  magneticMoment: [ Abs: 0.74000  Tot: -0.74000 ]
LCAOMinimize: Iter:   2  F: -28.3869823507248427  |grad|_K:  4.820e-09  alpha:  9.709e-01  linmin: -9.366e-02  cgtest:  9.928e-01  t[s]:      5.71
LCAOMinimize: Encountered beta<0, resetting CG.
LCAOMinimize: Converged (|Delta F|<1.000000e-06 for 2 iters).


---- Citations for features of the code used in this run ----

   Software package:
      R. Sundararaman, K. Letchworth-Weaver, K.A. Schwarz, D. Gunceler, Y. Ozhabes and T.A. Arias, 'JDFTx: software for joint density-functional theory', SoftwareX 6, 278 (2017)

   gga-PBE exchange-correlation functional:
      J.P. Perdew, K. Burke and M. Ernzerhof, Phys. Rev. Lett. 77, 3865 (1996)

   Pseudopotentials:
      M Schlipf and F Gygi, Comput. Phys. Commun. 196, 36 (2015)

   Truncated Coulomb potentials:
      R. Sundararaman and T.A. Arias, Phys. Rev. B 87, 165122 (2013)

This list may not be complete. Please suggest additional citations or
report any other bugs at https://github.com/shankar1729/jdftx/issues

Initialization completed successfully at t[s]:      5.80


-------- Electronic minimization -----------
Will mix electronic density at each iteration.
	FillingsUpdate:  mu: -0.094795625  nElectrons: 9.000000  magneticMoment: [ Abs: 0.74000  Tot: -0.74000 ]
	FillingsUpdate:  mu: -0.105042333  nElectrons: 9.000000  magneticMoment: [ Abs: 0.74000  Tot: -0.74000 ]
SCF: Cycle:  0   F: -28.396108363224236   dF: -9.126e-03   |Residual|: 1.434e-02   |deigs|: 1.730e-01  t[s]:      8.16
	FillingsUpdate:  mu: -0.107930559  nElectrons: 9.000000  magneticMoment: [ Abs: 0.74000  Tot: -0.74000 ]
SCF: Cycle:  1   F: -28.396556178387872   dF: -4.478e-04   |Residual|: 1.084e-02   |deigs|: 7.982e-03  t[s]:      9.94
	FillingsUpdate:  mu: -0.108345737  nElectrons: 9.000000  magneticMoment: [ Abs: 0.74255  Tot: -0.74000 ]
SCF: Cycle:  2   F: -28.396672952662417   dF: -1.168e-04   |Residual|: 6.803e-03   |deigs|: 5.272e-03  t[s]:     11.76
	FillingsUpdate:  mu: -0.104693668  nElectrons: 9.000000  magneticMoment: [ Abs: 0.74000  Tot: -0.74000 ]
SCF: Cycle:  3   F: -28.396780182803887   dF: -1.072e-04   |Residual|: 3.702e-03   |deigs|: 4.125e-03  t[s]:     13.58
	FillingsUpdate:  mu: -0.102835098  nElectrons: 9.000000  magneticMoment: [ Abs: 0.74002  Tot: -0.74000 ]
SCF: Cycle:  4   F: -28.396832282610443   dF: -5.210e-05   |Residual|: 2.172e-03   |deigs|: 3.285e-03  t[s]:     15.41
	FillingsUpdate:  mu: -0.101239500  nElectrons: 9.000000  magneticMoment: [ Abs: 0.74024  Tot: -0.74000 ]
SCF: Cycle:  5   F: -28.396852475230553   dF: -2.019e-05   |Residual|: 1.814e-03   |deigs|: 3.322e-03  t[s]:     17.25
	FillingsUpdate:  mu: -0.098969934  nElectrons: 9.000000  magneticMoment: [ Abs: 0.74491  Tot: -0.74000 ]
SCF: Cycle:  6   F: -28.396861761614055   dF: -9.286e-06   |Residual|: 1.372e-03   |deigs|: 2.623e-03  t[s]:     19.16
	FillingsUpdate:  mu: -0.097037539  nElectrons: 9.000000  magneticMoment: [ Abs: 0.74508  Tot: -0.74000 ]
SCF: Cycle:  7   F: -28.396887334304100   dF: -2.557e-05   |Residual|: 9.899e-04   |deigs|: 2.573e-03  t[s]:     21.12
	FillingsUpdate:  mu: -0.096598813  nElectrons: 9.000000  magneticMoment: [ Abs: 0.74138  Tot: -0.74000 ]
SCF: Cycle:  8   F: -28.396908369655200   dF: -2.104e-05   |Residual|: 8.288e-04   |deigs|: 8.349e-04  t[s]:     23.07
	FillingsUpdate:  mu: -0.095729850  nElectrons: 9.000000  magneticMoment: [ Abs: 0.74015  Tot: -0.74000 ]
SCF: Cycle:  9   F: -28.396913893465605   dF: -5.524e-06   |Residual|: 6.641e-04   |deigs|: 8.847e-04  t[s]:     25.07
	FillingsUpdate:  mu: -0.094522203  nElectrons: 9.000000  magneticMoment: [ Abs: 0.74280  Tot: -0.74000 ]
SCF: Cycle: 10   F: -28.396914942063255   dF: -1.049e-06   |Residual|: 5.749e-04   |deigs|: 1.390e-03  t[s]:     27.07
	FillingsUpdate:  mu: -0.093817302  nElectrons: 9.000000  magneticMoment: [ Abs: 0.74331  Tot: -0.74000 ]
SCF: Cycle: 11   F: -28.396917477487218   dF: -2.535e-06   |Residual|: 5.026e-04   |deigs|: 9.162e-04  t[s]:     29.09
	FillingsUpdate:  mu: -0.092903112  nElectrons: 9.000000  magneticMoment: [ Abs: 0.74367  Tot: -0.74000 ]
SCF: Cycle: 12   F: -28.396925525879581   dF: -8.048e-06   |Residual|: 4.694e-04   |deigs|: 9.145e-04  t[s]:     31.07
	FillingsUpdate:  mu: -0.091856324  nElectrons: 9.000000  magneticMoment: [ Abs: 0.74404  Tot: -0.74000 ]
SCF: Cycle: 13   F: -28.396929107486894   dF: -3.582e-06   |Residual|: 3.970e-04   |deigs|: 1.150e-03  t[s]:     33.03
	FillingsUpdate:  mu: -0.090311806  nElectrons: 9.000000  magneticMoment: [ Abs: 0.74231  Tot: -0.74000 ]
SCF: Cycle: 14   F: -28.396933217940152   dF: -4.110e-06   |Residual|: 3.820e-04   |deigs|: 1.612e-03  t[s]:     35.00
	FillingsUpdate:  mu: -0.089514996  nElectrons: 9.000000  magneticMoment: [ Abs: 0.74101  Tot: -0.74000 ]
SCF: Cycle: 15   F: -28.396942013633073   dF: -8.796e-06   |Residual|: 4.464e-04   |deigs|: 1.199e-03  t[s]:     36.96
	FillingsUpdate:  mu: -0.089627562  nElectrons: 9.000000  magneticMoment: [ Abs: 0.74066  Tot: -0.74000 ]
SCF: Cycle: 16   F: -28.396944165606811   dF: -2.152e-06   |Residual|: 3.905e-04   |deigs|: 2.591e-04  t[s]:     38.91
	FillingsUpdate:  mu: -0.089753506  nElectrons: 9.000000  magneticMoment: [ Abs: 0.74027  Tot: -0.74000 ]
SCF: Cycle: 17   F: -28.396945395392631   dF: -1.230e-06   |Residual|: 2.444e-04   |deigs|: 2.208e-04  t[s]:     40.86
	FillingsUpdate:  mu: -0.089558859  nElectrons: 9.000000  magneticMoment: [ Abs: 0.74040  Tot: -0.74000 ]
SCF: Cycle: 18   F: -28.396946221893739   dF: -8.265e-07   |Residual|: 1.649e-04   |deigs|: 2.612e-04  t[s]:     42.87
	FillingsUpdate:  mu: -0.089271223  nElectrons: 9.000000  magneticMoment: [ Abs: 0.74067  Tot: -0.74000 ]
SCF: Cycle: 19   F: -28.396947423914202   dF: -1.202e-06   |Residual|: 1.158e-04   |deigs|: 3.355e-04  t[s]:     44.85
	FillingsUpdate:  mu: -0.089161345  nElectrons: 9.000000  magneticMoment: [ Abs: 0.74064  Tot: -0.74000 ]
SCF: Cycle: 20   F: -28.396947665100626   dF: -2.412e-07   |Residual|: 7.899e-05   |deigs|: 2.012e-04  t[s]:     46.81
	FillingsUpdate:  mu: -0.088976693  nElectrons: 9.000000  magneticMoment: [ Abs: 0.74060  Tot: -0.74000 ]
SCF: Cycle: 21   F: -28.396947833197363   dF: -1.681e-07   |Residual|: 4.115e-05   |deigs|: 2.465e-04  t[s]:     48.79
	FillingsUpdate:  mu: -0.088973767  nElectrons: 9.000000  magneticMoment: [ Abs: 0.74056  Tot: -0.74000 ]
SCF: Cycle: 22   F: -28.396947922942747   dF: -8.975e-08   |Residual|: 3.513e-05   |deigs|: 1.443e-04  t[s]:     50.71
	FillingsUpdate:  mu: -0.089000395  nElectrons: 9.000000  magneticMoment: [ Abs: 0.74050  Tot: -0.74000 ]
SCF: Cycle: 23   F: -28.396947954998836   dF: -3.206e-08   |Residual|: 2.342e-05   |deigs|: 9.777e-05  t[s]:     52.71
	FillingsUpdate:  mu: -0.089026849  nElectrons: 9.000000  magneticMoment: [ Abs: 0.74039  Tot: -0.74000 ]
SCF: Cycle: 24   F: -28.396947981105360   dF: -2.611e-08   |Residual|: 2.425e-05   |deigs|: 6.789e-05  t[s]:     54.70
	FillingsUpdate:  mu: -0.089016878  nElectrons: 9.000000  magneticMoment: [ Abs: 0.74030  Tot: -0.74000 ]
SCF: Cycle: 25   F: -28.396947990091849   dF: -8.986e-09   |Residual|: 1.826e-05   |deigs|: 5.927e-05  t[s]:     56.68
	FillingsUpdate:  mu: -0.088998381  nElectrons: 9.000000  magneticMoment: [ Abs: 0.74025  Tot: -0.74000 ]
SCF: Cycle: 26   F: -28.396948001681622   dF: -1.159e-08   |Residual|: 1.349e-05   |deigs|: 4.635e-05  t[s]:     58.66
	FillingsUpdate:  mu: -0.088998091  nElectrons: 9.000000  magneticMoment: [ Abs: 0.74017  Tot: -0.74000 ]
SCF: Cycle: 27   F: -28.396948031298241   dF: -2.962e-08   |Residual|: 9.559e-06   |deigs|: 2.249e-05  t[s]:     60.67
	FillingsUpdate:  mu: -0.088988335  nElectrons: 9.000000  magneticMoment: [ Abs: 0.74009  Tot: -0.74000 ]
SCF: Cycle: 28   F: -28.396948047080521   dF: -1.578e-08   |Residual|: 6.938e-06   |deigs|: 2.038e-05  t[s]:     62.55
	FillingsUpdate:  mu: -0.088975497  nElectrons: 9.000000  magneticMoment: [ Abs: 0.74006  Tot: -0.74000 ]
SCF: Cycle: 29   F: -28.396948050598134   dF: -3.518e-09   |Residual|: 4.946e-06   |deigs|: 2.014e-05  t[s]:     64.52
	FillingsUpdate:  mu: -0.088969193  nElectrons: 9.000000  magneticMoment: [ Abs: 0.74003  Tot: -0.74000 ]
SCF: Cycle: 30   F: -28.396948055873761   dF: -5.276e-09   |Residual|: 3.208e-06   |deigs|: 1.731e-05  t[s]:     66.49
SCF: Converged (|Delta E|<1.000000e-08 for 2 iters).


# Ionic positions in lattice coordinates:
ion K   0.000000000000000   0.000000000000000   0.000000000000000 0

# Forces in Lattice coordinates:
force K   0.000000000000000   0.000000000000000   0.000000000000000 0

# Energy components:
   Eewald =      -18.0480261003326561
       EH =        4.8822777823245191
     Eloc =      -18.0744869728707158
      Enl =       -2.7783370697608323
   Epulay =        0.0000000041876954
      Exc =       -4.2678717448118126
       KE =        9.8894961885868629
-------------------------------------
     Etot =      -28.3969479126769428
       TS =        0.0000001431968180
-------------------------------------
        F =      -28.3969480558737608

IonicMinimize: Iter:   0  F: -28.396948055873761  |grad|_K:  0.000e+00  t[s]:     66.61
IonicMinimize: Converged (|grad|_K<1.000000e-04).

#--- Lowdin population analysis ---
# oxidation-state K +0.146
# magnetic-moments K -0.598

End date and time: Sat Feb  5 23:31:15 2022  (Duration: 0-0:01:06.64)
Done!
