
*************** JDFTx 1.6.0 (git hash 42ebbcc2) ***************

Start date and time: Sat Feb  5 23:43:06 2022
Executable jdftx with command-line: -i Alkali.in
Running on hosts (process indices):  d-6-8-2 (0-18)
Divided in process groups (process indices):  0 (0)  1 (1)  2 (2)  3 (3)  4 (4)  5 (5)  6 (6)  7 (7)  8 (8)  9 (9)  10 (10)  11 (11)  12 (12)  13 (13)  14 (14)  15 (15)  16 (16)  17 (17)  18 (18)
Resource initialization completed at t[s]:      0.00
Run totals: 19 processes, 48 threads, 0 GPUs


Input parsed successfully to the following command list (including defaults):

basis kpoint-dependent
coords-type Lattice
core-overlap-check vector
coulomb-interaction Slab 001
davidson-band-ratio 1.1
dump End None
dump-name $INPUT.$VAR
elec-cutoff 20
elec-eigen-algo Davidson
elec-ex-corr gga-PBE
elec-initial-magnetization 0.200000 yes
elec-smearing Fermi 1e-05
electronic-minimize  \
	dirUpdateScheme      FletcherReeves \
	linminMethod         DirUpdateRecommended \
	nIterations          100 \
	history              15 \
	knormThreshold       0 \
	energyDiffThreshold  1e-08 \
	nEnergyDiff          2 \
	alphaTstart          1 \
	alphaTmin            1e-10 \
	updateTestStepSize   yes \
	alphaTreduceFactor   0.1 \
	alphaTincreaseFactor 3 \
	nAlphaAdjustMax      3 \
	wolfeEnergy          0.0001 \
	wolfeGradient        0.9 \
	fdTest               no
electronic-scf  \
	nIterations	10000 \
	energyDiffThreshold	1e-08 \
	residualThreshold	1e-07 \
	mixFraction	0.5 \
	qMetric	0.8 \
	history	10 \
	nEigSteps	2 \
	eigDiffThreshold	1e-08 \
	mixedVariable	Density \
	qKerker	0.8 \
	qKappa	-1 \
	verbose	no \
	mixFractionMag	1.5
exchange-regularization WignerSeitzTruncated
fluid None
fluid-ex-corr (null) lda-PZ
fluid-gummel-loop 10 1.000000e-05
fluid-minimize  \
	dirUpdateScheme      PolakRibiere \
	linminMethod         DirUpdateRecommended \
	nIterations          100 \
	history              15 \
	knormThreshold       0 \
	energyDiffThreshold  0 \
	nEnergyDiff          2 \
	alphaTstart          1 \
	alphaTmin            1e-10 \
	updateTestStepSize   yes \
	alphaTreduceFactor   0.1 \
	alphaTincreaseFactor 3 \
	nAlphaAdjustMax      3 \
	wolfeEnergy          0.0001 \
	wolfeGradient        0.9 \
	fdTest               no
fluid-solvent H2O 55.338 ScalarEOS \
	epsBulk 78.4 \
	pMol 0.92466 \
	epsInf 1.77 \
	Pvap 1.06736e-10 \
	sigmaBulk 4.62e-05 \
	Rvdw 2.61727 \
	Res 1.42 \
	tauNuc 343133 \
	poleEl 15 7 1
forces-output-coords Positions
ion K   0.000000000000000   0.000000000000000   0.000000000000000 0
ion-species SG15/$ID_ONCV_PBE.upf
ion-width 0
ionic-minimize  \
	dirUpdateScheme      L-BFGS \
	linminMethod         DirUpdateRecommended \
	nIterations          0 \
	history              15 \
	knormThreshold       0.0001 \
	energyDiffThreshold  1e-06 \
	nEnergyDiff          2 \
	alphaTstart          1 \
	alphaTmin            1e-10 \
	updateTestStepSize   yes \
	alphaTreduceFactor   0.1 \
	alphaTincreaseFactor 3 \
	nAlphaAdjustMax      3 \
	wolfeEnergy          0.0001 \
	wolfeGradient        0.9 \
	fdTest               no
kpoint   0.000000000000   0.000000000000   0.000000000000  1.00000000000000
kpoint-folding 12 12 1 
latt-move-scale 1 1 1
latt-scale 2 2 1 
lattice  \
	   4.727486978767153   -2.363743489383575    0.000000000000000  \
	  -0.000000000000000    4.094123819672498    0.000000000000000  \
	   0.000000000000000    0.000000000000000   40.000000000000000 
lattice-minimize  \
	dirUpdateScheme      L-BFGS \
	linminMethod         DirUpdateRecommended \
	nIterations          0 \
	history              15 \
	knormThreshold       0 \
	energyDiffThreshold  1e-06 \
	nEnergyDiff          2 \
	alphaTstart          1 \
	alphaTmin            1e-10 \
	updateTestStepSize   yes \
	alphaTreduceFactor   0.1 \
	alphaTincreaseFactor 3 \
	nAlphaAdjustMax      3 \
	wolfeEnergy          0.0001 \
	wolfeGradient        0.9 \
	fdTest               no
lcao-params -1 1e-06 1e-05
pcm-variant GLSSA13
spintype z-spin
subspace-rotation-factor 1 yes
symmetries automatic
symmetry-threshold 0.0001



---------- Setting up symmetries ----------

Found 24 point-group symmetries of the bravais lattice
Found 24 space-group symmetries with basis
Applied RMS atom displacement 0 bohrs to make symmetries exact.

---------- Initializing the Grid ----------
R = 
[      9.45497     -4.72749            0  ]
[            0      8.18825            0  ]
[            0            0           40  ]
unit cell volume = 3096.79
G =
[   0.664538   0.383671         -0  ]
[          0   0.767342         -0  ]
[         -0         -0    0.15708  ]
Minimum fftbox size, Smin = [  40  40  164  ]
Chosen fftbox size, S = [  40  40  168  ]

---------- Exchange Correlation functional ----------
Initalized PBE GGA exchange.
Initalized PBE GGA correlation.

---------- Setting up pseudopotentials ----------
Width of ionic core gaussian charges (only for fluid interactions / plotting) set to 0

Reading pseudopotential file '/home/gridsan/aligho/DFT/build-Nov24/pseudopotentials/SG15/K_ONCV_PBE.upf':
  'K' pseudopotential, 'PBE' functional
  Generated using ONCVPSP code by D. R. Hamann
  Author: Martin Schlipf and Francois Gygi  Date: 150915.
  9 valence electrons, 3 orbitals, 6 projectors, 2222 radial grid points, with lMax = 2
  Transforming local potential to a uniform radial grid of dG=0.02 with 1489 points.
  Transforming nonlocal projectors to a uniform radial grid of dG=0.02 with 432 points.
    3S    l: 0   occupation:  2.0   eigenvalue: -1.298836
    3P    l: 1   occupation:  6.0   eigenvalue: -0.691386
    4S    l: 0   occupation:  1.0   eigenvalue: -0.085223
  Transforming atomic orbitals to a uniform radial grid of dG=0.02 with 432 points.
  Core radius for overlap checks: 2.06 bohrs.
  Reading pulay file /home/gridsan/aligho/DFT/build-Nov24/pseudopotentials/SG15/K_ONCV_PBE.pulay ... using dE_dnG = -1.597219e-05 computed for Ecut = 20.

Initialized 1 species with 1 total atoms.

Folded 1 k-points by 12x12x1 to 144 k-points.

---------- Setting up k-points, bands, fillings ----------
Reduced to 19 k-points under symmetry. 
Computing the number of bands and number of electrons
Calculating initial fillings.
nElectrons:   9.000000   nBands: 6   nStates: 38

----- Setting up reduced wavefunction bases (one per k-point) -----
average nbasis = 13230.521 , ideal nbasis = 13229.709

---------- Setting up coulomb interaction ----------
Initialized slab truncation along lattice direction 001

---------- Setting up 2D ewald sum ----------
Optimum gaussian width for ewald sums = 5.249020 bohr.
Real space sums over 289 unit cells with max indices [  8  8  0  ]
Reciprocal space sums over 81 terms with max indices [  4  4  0  ]

---------- Allocating electronic variables ----------
Initializing wave functions:  linear combination of atomic orbitals
Note: number of bands (6) exceeds available atomic orbitals (5)
K pseudo-atom occupations:   s ( 2 1 )  p ( 6 )
	FillingsUpdate:  mu: -0.095018708  nElectrons: 9.000000  magneticMoment: [ Abs: 0.20000  Tot: +0.20000 ]
LCAOMinimize: Iter:   0  F: -28.3983250929430966  |grad|_K:  4.289e-05  alpha:  1.000e+00
	FillingsUpdate:  mu: -0.095008469  nElectrons: 9.000000  magneticMoment: [ Abs: 0.20000  Tot: +0.20000 ]
LCAOMinimize: Iter:   1  F: -28.3983263250942741  |grad|_K:  4.559e-07  alpha:  9.793e-01  linmin: -3.104e-02  cgtest:  5.450e-01  t[s]:      4.47
LCAOMinimize: Encountered beta<0, resetting CG.
	FillingsUpdate:  mu: -0.095008543  nElectrons: 9.000000  magneticMoment: [ Abs: 0.20000  Tot: +0.20000 ]
LCAOMinimize: Iter:   2  F: -28.3983263252370151  |grad|_K:  2.254e-09  alpha:  1.006e+00  linmin:  1.029e-01  cgtest: -9.564e-01  t[s]:      5.65
	FillingsUpdate:  mu: -0.095008543  nElectrons: 9.000000  magneticMoment: [ Abs: 0.20000  Tot: +0.20000 ]
LCAOMinimize: Iter:   3  F: -28.3983263252371714  |grad|_K:  2.253e-09  alpha:  3.809e-03  linmin: -5.696e-03  cgtest:  1.000e+00  t[s]:      6.83
LCAOMinimize: Encountered beta<0, resetting CG.
LCAOMinimize: Converged (|Delta F|<1.000000e-06 for 2 iters).


---- Citations for features of the code used in this run ----

   Software package:
      R. Sundararaman, K. Letchworth-Weaver, K.A. Schwarz, D. Gunceler, Y. Ozhabes and T.A. Arias, 'JDFTx: software for joint density-functional theory', SoftwareX 6, 278 (2017)

   gga-PBE exchange-correlation functional:
      J.P. Perdew, K. Burke and M. Ernzerhof, Phys. Rev. Lett. 77, 3865 (1996)

   Pseudopotentials:
      M Schlipf and F Gygi, Comput. Phys. Commun. 196, 36 (2015)

   Truncated Coulomb potentials:
      R. Sundararaman and T.A. Arias, Phys. Rev. B 87, 165122 (2013)

This list may not be complete. Please suggest additional citations or
report any other bugs at https://github.com/shankar1729/jdftx/issues

Initialization completed successfully at t[s]:      6.92


-------- Electronic minimization -----------
Will mix electronic density at each iteration.
	FillingsUpdate:  mu: -0.095008543  nElectrons: 9.000000  magneticMoment: [ Abs: 0.20000  Tot: +0.20000 ]
	FillingsUpdate:  mu: -0.105610559  nElectrons: 9.000000  magneticMoment: [ Abs: 0.20000  Tot: +0.20000 ]
SCF: Cycle:  0   F: -28.403232147292837   dF: -4.906e-03   |Residual|: 8.400e-03   |deigs|: 1.748e-01  t[s]:      9.31
	FillingsUpdate:  mu: -0.105457048  nElectrons: 9.000000  magneticMoment: [ Abs: 0.20000  Tot: +0.20000 ]
SCF: Cycle:  1   F: -28.403350490574898   dF: -1.183e-04   |Residual|: 6.623e-03   |deigs|: 5.767e-03  t[s]:     11.12
	FillingsUpdate:  mu: -0.103739297  nElectrons: 9.000000  magneticMoment: [ Abs: 0.20506  Tot: +0.20000 ]
SCF: Cycle:  2   F: -28.403397767975811   dF: -4.728e-05   |Residual|: 2.970e-03   |deigs|: 3.820e-03  t[s]:     12.95
	FillingsUpdate:  mu: -0.102873805  nElectrons: 9.000000  magneticMoment: [ Abs: 0.20000  Tot: +0.20000 ]
SCF: Cycle:  3   F: -28.403442591109648   dF: -4.482e-05   |Residual|: 2.008e-03   |deigs|: 4.255e-03  t[s]:     14.88
	FillingsUpdate:  mu: -0.101564571  nElectrons: 9.000000  magneticMoment: [ Abs: 0.20011  Tot: +0.20000 ]
SCF: Cycle:  4   F: -28.403464516528004   dF: -2.193e-05   |Residual|: 1.637e-03   |deigs|: 3.422e-03  t[s]:     16.78
	FillingsUpdate:  mu: -0.099740364  nElectrons: 9.000000  magneticMoment: [ Abs: 0.20310  Tot: +0.20000 ]
SCF: Cycle:  5   F: -28.403477982554012   dF: -1.347e-05   |Residual|: 1.293e-03   |deigs|: 2.397e-03  t[s]:     18.72
	FillingsUpdate:  mu: -0.098127790  nElectrons: 9.000000  magneticMoment: [ Abs: 0.20522  Tot: +0.20000 ]
SCF: Cycle:  6   F: -28.403484715261307   dF: -6.733e-06   |Residual|: 9.179e-04   |deigs|: 3.641e-03  t[s]:     20.71
	FillingsUpdate:  mu: -0.097112313  nElectrons: 9.000000  magneticMoment: [ Abs: 0.20326  Tot: +0.20000 ]
SCF: Cycle:  7   F: -28.403504137852586   dF: -1.942e-05   |Residual|: 7.859e-04   |deigs|: 1.773e-03  t[s]:     22.63
	FillingsUpdate:  mu: -0.096657140  nElectrons: 9.000000  magneticMoment: [ Abs: 0.20121  Tot: +0.20000 ]
SCF: Cycle:  8   F: -28.403516206337422   dF: -1.207e-05   |Residual|: 6.257e-04   |deigs|: 7.465e-04  t[s]:     24.57
	FillingsUpdate:  mu: -0.095450443  nElectrons: 9.000000  magneticMoment: [ Abs: 0.20246  Tot: +0.20000 ]
SCF: Cycle:  9   F: -28.403517572494685   dF: -1.366e-06   |Residual|: 5.025e-04   |deigs|: 1.265e-03  t[s]:     26.56
	FillingsUpdate:  mu: -0.094406446  nElectrons: 9.000000  magneticMoment: [ Abs: 0.20286  Tot: +0.20000 ]
SCF: Cycle: 10   F: -28.403515404055419   dF: +2.168e-06   |Residual|: 4.837e-04   |deigs|: 1.329e-03  t[s]:     28.55
	FillingsUpdate:  mu: -0.093138003  nElectrons: 9.000000  magneticMoment: [ Abs: 0.20154  Tot: +0.20000 ]
SCF: Cycle: 11   F: -28.403521708800071   dF: -6.305e-06   |Residual|: 4.452e-04   |deigs|: 1.330e-03  t[s]:     30.55
	FillingsUpdate:  mu: -0.092194202  nElectrons: 9.000000  magneticMoment: [ Abs: 0.20335  Tot: +0.20000 ]
SCF: Cycle: 12   F: -28.403530834556257   dF: -9.126e-06   |Residual|: 3.911e-04   |deigs|: 8.413e-04  t[s]:     32.55
	FillingsUpdate:  mu: -0.091088888  nElectrons: 9.000000  magneticMoment: [ Abs: 0.20329  Tot: +0.20000 ]
SCF: Cycle: 13   F: -28.403535151191008   dF: -4.317e-06   |Residual|: 3.634e-04   |deigs|: 1.171e-03  t[s]:     34.49
	FillingsUpdate:  mu: -0.089985760  nElectrons: 9.000000  magneticMoment: [ Abs: 0.20112  Tot: +0.20000 ]
SCF: Cycle: 14   F: -28.403538681174609   dF: -3.530e-06   |Residual|: 3.008e-04   |deigs|: 1.190e-03  t[s]:     36.53
	FillingsUpdate:  mu: -0.089462364  nElectrons: 9.000000  magneticMoment: [ Abs: 0.20002  Tot: +0.20000 ]
SCF: Cycle: 15   F: -28.403540569190682   dF: -1.888e-06   |Residual|: 2.546e-04   |deigs|: 5.973e-04  t[s]:     38.46
	FillingsUpdate:  mu: -0.089111699  nElectrons: 9.000000  magneticMoment: [ Abs: 0.20080  Tot: +0.20000 ]
SCF: Cycle: 16   F: -28.403541770005994   dF: -1.201e-06   |Residual|: 1.469e-04   |deigs|: 3.863e-04  t[s]:     40.43
	FillingsUpdate:  mu: -0.088893826  nElectrons: 9.000000  magneticMoment: [ Abs: 0.20043  Tot: +0.20000 ]
SCF: Cycle: 17   F: -28.403542153231768   dF: -3.832e-07   |Residual|: 8.769e-05   |deigs|: 2.501e-04  t[s]:     42.41
	FillingsUpdate:  mu: -0.088914393  nElectrons: 9.000000  magneticMoment: [ Abs: 0.20011  Tot: +0.20000 ]
SCF: Cycle: 18   F: -28.403542382705954   dF: -2.295e-07   |Residual|: 4.891e-05   |deigs|: 8.680e-05  t[s]:     44.48
	FillingsUpdate:  mu: -0.088903060  nElectrons: 9.000000  magneticMoment: [ Abs: 0.20018  Tot: +0.20000 ]
SCF: Cycle: 19   F: -28.403542490850384   dF: -1.081e-07   |Residual|: 3.083e-05   |deigs|: 5.160e-05  t[s]:     46.39
	FillingsUpdate:  mu: -0.088884137  nElectrons: 9.000000  magneticMoment: [ Abs: 0.20012  Tot: +0.20000 ]
SCF: Cycle: 20   F: -28.403542538976957   dF: -4.813e-08   |Residual|: 1.694e-05   |deigs|: 3.406e-05  t[s]:     48.37
	FillingsUpdate:  mu: -0.088872391  nElectrons: 9.000000  magneticMoment: [ Abs: 0.20009  Tot: +0.20000 ]
SCF: Cycle: 21   F: -28.403542573334821   dF: -3.436e-08   |Residual|: 9.735e-06   |deigs|: 3.850e-05  t[s]:     50.30
	FillingsUpdate:  mu: -0.088873390  nElectrons: 9.000000  magneticMoment: [ Abs: 0.20008  Tot: +0.20000 ]
SCF: Cycle: 22   F: -28.403542595686147   dF: -2.235e-08   |Residual|: 4.846e-06   |deigs|: 1.879e-05  t[s]:     52.22
	FillingsUpdate:  mu: -0.088873282  nElectrons: 9.000000  magneticMoment: [ Abs: 0.20008  Tot: +0.20000 ]
SCF: Cycle: 23   F: -28.403542608897940   dF: -1.321e-08   |Residual|: 3.320e-06   |deigs|: 2.176e-04  t[s]:     54.07
	FillingsUpdate:  mu: -0.088876269  nElectrons: 9.000000  magneticMoment: [ Abs: 0.20007  Tot: +0.20000 ]
SCF: Cycle: 24   F: -28.403542617921239   dF: -9.023e-09   |Residual|: 1.979e-06   |deigs|: 1.504e-04  t[s]:     55.97
	FillingsUpdate:  mu: -0.088875205  nElectrons: 9.000000  magneticMoment: [ Abs: 0.20005  Tot: +0.20000 ]
SCF: Cycle: 25   F: -28.403542623822361   dF: -5.901e-09   |Residual|: 1.730e-06   |deigs|: 1.199e-05  t[s]:     57.90
SCF: Converged (|Delta E|<1.000000e-08 for 2 iters).


# Ionic positions in lattice coordinates:
ion K   0.000000000000000   0.000000000000000   0.000000000000000 0

# Forces in Lattice coordinates:
force K   0.000000000000000  -0.000000000000000   0.000000000000000 0

# Energy components:
   Eewald =      -18.0480261003326561
       EH =        4.8683121733487233
     Eloc =      -18.0607293138967826
      Enl =       -2.7737973366673883
   Epulay =        0.0000000041876954
      Exc =       -4.2625940712362187
       KE =        9.8732925322344851
-------------------------------------
     Etot =      -28.4035421123621319
       TS =        0.0000005114602277
-------------------------------------
        F =      -28.4035426238223607

IonicMinimize: Iter:   0  F: -28.403542623822361  |grad|_K:  0.000e+00  t[s]:     58.02
IonicMinimize: Converged (|grad|_K<1.000000e-04).

#--- Lowdin population analysis ---
# oxidation-state K +0.042
# magnetic-moments K +0.177

End date and time: Sat Feb  5 23:44:04 2022  (Duration: 0-0:00:58.04)
Done!
