
*************** JDFTx 1.6.0 (git hash 42ebbcc2) ***************

Start date and time: Sat Feb  5 23:43:06 2022
Executable jdftx with command-line: -i Alkali.in
Running on hosts (process indices):  d-16-6-2 (0-18)
Divided in process groups (process indices):  0 (0)  1 (1)  2 (2)  3 (3)  4 (4)  5 (5)  6 (6)  7 (7)  8 (8)  9 (9)  10 (10)  11 (11)  12 (12)  13 (13)  14 (14)  15 (15)  16 (16)  17 (17)  18 (18)
Resource initialization completed at t[s]:      0.00
Run totals: 19 processes, 48 threads, 0 GPUs


Input parsed successfully to the following command list (including defaults):

basis kpoint-dependent
coords-type Lattice
core-overlap-check vector
coulomb-interaction Slab 001
davidson-band-ratio 1.1
dump End None
dump-name $INPUT.$VAR
elec-cutoff 20
elec-eigen-algo Davidson
elec-ex-corr gga-PBE
elec-initial-magnetization 0.280000 yes
elec-smearing Fermi 1e-05
electronic-minimize  \
	dirUpdateScheme      FletcherReeves \
	linminMethod         DirUpdateRecommended \
	nIterations          100 \
	history              15 \
	knormThreshold       0 \
	energyDiffThreshold  1e-08 \
	nEnergyDiff          2 \
	alphaTstart          1 \
	alphaTmin            1e-10 \
	updateTestStepSize   yes \
	alphaTreduceFactor   0.1 \
	alphaTincreaseFactor 3 \
	nAlphaAdjustMax      3 \
	wolfeEnergy          0.0001 \
	wolfeGradient        0.9 \
	fdTest               no
electronic-scf  \
	nIterations	10000 \
	energyDiffThreshold	1e-08 \
	residualThreshold	1e-07 \
	mixFraction	0.5 \
	qMetric	0.8 \
	history	10 \
	nEigSteps	2 \
	eigDiffThreshold	1e-08 \
	mixedVariable	Density \
	qKerker	0.8 \
	qKappa	-1 \
	verbose	no \
	mixFractionMag	1.5
exchange-regularization WignerSeitzTruncated
fluid None
fluid-ex-corr (null) lda-PZ
fluid-gummel-loop 10 1.000000e-05
fluid-minimize  \
	dirUpdateScheme      PolakRibiere \
	linminMethod         DirUpdateRecommended \
	nIterations          100 \
	history              15 \
	knormThreshold       0 \
	energyDiffThreshold  0 \
	nEnergyDiff          2 \
	alphaTstart          1 \
	alphaTmin            1e-10 \
	updateTestStepSize   yes \
	alphaTreduceFactor   0.1 \
	alphaTincreaseFactor 3 \
	nAlphaAdjustMax      3 \
	wolfeEnergy          0.0001 \
	wolfeGradient        0.9 \
	fdTest               no
fluid-solvent H2O 55.338 ScalarEOS \
	epsBulk 78.4 \
	pMol 0.92466 \
	epsInf 1.77 \
	Pvap 1.06736e-10 \
	sigmaBulk 4.62e-05 \
	Rvdw 2.61727 \
	Res 1.42 \
	tauNuc 343133 \
	poleEl 15 7 1
forces-output-coords Positions
ion K   0.000000000000000   0.000000000000000   0.000000000000000 0
ion-species SG15/$ID_ONCV_PBE.upf
ion-width 0
ionic-minimize  \
	dirUpdateScheme      L-BFGS \
	linminMethod         DirUpdateRecommended \
	nIterations          0 \
	history              15 \
	knormThreshold       0.0001 \
	energyDiffThreshold  1e-06 \
	nEnergyDiff          2 \
	alphaTstart          1 \
	alphaTmin            1e-10 \
	updateTestStepSize   yes \
	alphaTreduceFactor   0.1 \
	alphaTincreaseFactor 3 \
	nAlphaAdjustMax      3 \
	wolfeEnergy          0.0001 \
	wolfeGradient        0.9 \
	fdTest               no
kpoint   0.000000000000   0.000000000000   0.000000000000  1.00000000000000
kpoint-folding 12 12 1 
latt-move-scale 1 1 1
latt-scale 2 2 1 
lattice  \
	   4.727486978767153   -2.363743489383575    0.000000000000000  \
	  -0.000000000000000    4.094123819672498    0.000000000000000  \
	   0.000000000000000    0.000000000000000   40.000000000000000 
lattice-minimize  \
	dirUpdateScheme      L-BFGS \
	linminMethod         DirUpdateRecommended \
	nIterations          0 \
	history              15 \
	knormThreshold       0 \
	energyDiffThreshold  1e-06 \
	nEnergyDiff          2 \
	alphaTstart          1 \
	alphaTmin            1e-10 \
	updateTestStepSize   yes \
	alphaTreduceFactor   0.1 \
	alphaTincreaseFactor 3 \
	nAlphaAdjustMax      3 \
	wolfeEnergy          0.0001 \
	wolfeGradient        0.9 \
	fdTest               no
lcao-params -1 1e-06 1e-05
pcm-variant GLSSA13
spintype z-spin
subspace-rotation-factor 1 yes
symmetries automatic
symmetry-threshold 0.0001



---------- Setting up symmetries ----------

Found 24 point-group symmetries of the bravais lattice
Found 24 space-group symmetries with basis
Applied RMS atom displacement 0 bohrs to make symmetries exact.

---------- Initializing the Grid ----------
R = 
[      9.45497     -4.72749            0  ]
[            0      8.18825            0  ]
[            0            0           40  ]
unit cell volume = 3096.79
G =
[   0.664538   0.383671         -0  ]
[          0   0.767342         -0  ]
[         -0         -0    0.15708  ]
Minimum fftbox size, Smin = [  40  40  164  ]
Chosen fftbox size, S = [  40  40  168  ]

---------- Exchange Correlation functional ----------
Initalized PBE GGA exchange.
Initalized PBE GGA correlation.

---------- Setting up pseudopotentials ----------
Width of ionic core gaussian charges (only for fluid interactions / plotting) set to 0

Reading pseudopotential file '/home/gridsan/aligho/DFT/build-Nov24/pseudopotentials/SG15/K_ONCV_PBE.upf':
  'K' pseudopotential, 'PBE' functional
  Generated using ONCVPSP code by D. R. Hamann
  Author: Martin Schlipf and Francois Gygi  Date: 150915.
  9 valence electrons, 3 orbitals, 6 projectors, 2222 radial grid points, with lMax = 2
  Transforming local potential to a uniform radial grid of dG=0.02 with 1489 points.
  Transforming nonlocal projectors to a uniform radial grid of dG=0.02 with 432 points.
    3S    l: 0   occupation:  2.0   eigenvalue: -1.298836
    3P    l: 1   occupation:  6.0   eigenvalue: -0.691386
    4S    l: 0   occupation:  1.0   eigenvalue: -0.085223
  Transforming atomic orbitals to a uniform radial grid of dG=0.02 with 432 points.
  Core radius for overlap checks: 2.06 bohrs.
  Reading pulay file /home/gridsan/aligho/DFT/build-Nov24/pseudopotentials/SG15/K_ONCV_PBE.pulay ... using dE_dnG = -1.597219e-05 computed for Ecut = 20.

Initialized 1 species with 1 total atoms.

Folded 1 k-points by 12x12x1 to 144 k-points.

---------- Setting up k-points, bands, fillings ----------
Reduced to 19 k-points under symmetry. 
Computing the number of bands and number of electrons
Calculating initial fillings.
nElectrons:   9.000000   nBands: 6   nStates: 38

----- Setting up reduced wavefunction bases (one per k-point) -----
average nbasis = 13230.521 , ideal nbasis = 13229.709

---------- Setting up coulomb interaction ----------
Initialized slab truncation along lattice direction 001

---------- Setting up 2D ewald sum ----------
Optimum gaussian width for ewald sums = 5.249020 bohr.
Real space sums over 289 unit cells with max indices [  8  8  0  ]
Reciprocal space sums over 81 terms with max indices [  4  4  0  ]

---------- Allocating electronic variables ----------
Initializing wave functions:  linear combination of atomic orbitals
Note: number of bands (6) exceeds available atomic orbitals (5)
K pseudo-atom occupations:   s ( 2 1 )  p ( 6 )
	FillingsUpdate:  mu: -0.094726127  nElectrons: 9.000000  magneticMoment: [ Abs: 0.28000  Tot: +0.28000 ]
LCAOMinimize: Iter:   0  F: -28.3972299398249426  |grad|_K:  4.064e-05  alpha:  1.000e+00
	FillingsUpdate:  mu: -0.094716184  nElectrons: 9.000000  magneticMoment: [ Abs: 0.28000  Tot: +0.28000 ]
LCAOMinimize: Iter:   1  F: -28.3972310462635988  |grad|_K:  4.204e-07  alpha:  9.796e-01  linmin: -3.104e-02  cgtest:  5.299e-01  t[s]:      4.42
LCAOMinimize: Encountered beta<0, resetting CG.
	FillingsUpdate:  mu: -0.094716250  nElectrons: 9.000000  magneticMoment: [ Abs: 0.28000  Tot: +0.28000 ]
LCAOMinimize: Iter:   2  F: -28.3972310463844799  |grad|_K:  6.832e-10  alpha:  1.002e+00  linmin:  8.884e-02  cgtest: -7.540e-01  t[s]:      5.62
LCAOMinimize: 	Wrong curvature in test step, increasing alphaT to 3.006898e+00.
	FillingsUpdate:  mu: -0.094716250  nElectrons: 9.000000  magneticMoment: [ Abs: 0.28000  Tot: +0.28000 ]
LCAOMinimize: Iter:   3  F: -28.3972310463848956  |grad|_K:  5.158e-10  alpha: -3.323e-04  linmin:  3.476e-04  cgtest:  7.424e-01  t[s]:      6.81
LCAOMinimize: Converged (|Delta F|<1.000000e-06 for 2 iters).


---- Citations for features of the code used in this run ----

   Software package:
      R. Sundararaman, K. Letchworth-Weaver, K.A. Schwarz, D. Gunceler, Y. Ozhabes and T.A. Arias, 'JDFTx: software for joint density-functional theory', SoftwareX 6, 278 (2017)

   gga-PBE exchange-correlation functional:
      J.P. Perdew, K. Burke and M. Ernzerhof, Phys. Rev. Lett. 77, 3865 (1996)

   Pseudopotentials:
      M Schlipf and F Gygi, Comput. Phys. Commun. 196, 36 (2015)

   Truncated Coulomb potentials:
      R. Sundararaman and T.A. Arias, Phys. Rev. B 87, 165122 (2013)

This list may not be complete. Please suggest additional citations or
report any other bugs at https://github.com/shankar1729/jdftx/issues

Initialization completed successfully at t[s]:      6.90


-------- Electronic minimization -----------
Will mix electronic density at each iteration.
	FillingsUpdate:  mu: -0.094716250  nElectrons: 9.000000  magneticMoment: [ Abs: 0.28000  Tot: +0.28000 ]
	FillingsUpdate:  mu: -0.106570711  nElectrons: 9.000000  magneticMoment: [ Abs: 0.28000  Tot: +0.28000 ]
SCF: Cycle:  0   F: -28.402584007154392   dF: -5.353e-03   |Residual|: 8.974e-03   |deigs|: 1.746e-01  t[s]:      9.22
	FillingsUpdate:  mu: -0.106310022  nElectrons: 9.000000  magneticMoment: [ Abs: 0.28000  Tot: +0.28000 ]
SCF: Cycle:  1   F: -28.402726228548470   dF: -1.422e-04   |Residual|: 6.955e-03   |deigs|: 5.974e-03  t[s]:     10.99
	FillingsUpdate:  mu: -0.104861426  nElectrons: 9.000000  magneticMoment: [ Abs: 0.28458  Tot: +0.28000 ]
SCF: Cycle:  2   F: -28.402773831110004   dF: -4.760e-05   |Residual|: 3.395e-03   |deigs|: 3.625e-03  t[s]:     12.87
	FillingsUpdate:  mu: -0.104035802  nElectrons: 9.000000  magneticMoment: [ Abs: 0.28000  Tot: +0.28000 ]
SCF: Cycle:  3   F: -28.402825523018020   dF: -5.169e-05   |Residual|: 2.221e-03   |deigs|: 4.246e-03  t[s]:     14.69
	FillingsUpdate:  mu: -0.102688291  nElectrons: 9.000000  magneticMoment: [ Abs: 0.28007  Tot: +0.28000 ]
SCF: Cycle:  4   F: -28.402849998762001   dF: -2.448e-05   |Residual|: 1.683e-03   |deigs|: 3.521e-03  t[s]:     16.55
	FillingsUpdate:  mu: -0.101107682  nElectrons: 9.000000  magneticMoment: [ Abs: 0.28234  Tot: +0.28000 ]
SCF: Cycle:  5   F: -28.402864985186302   dF: -1.499e-05   |Residual|: 1.384e-03   |deigs|: 2.371e-03  t[s]:     18.46
	FillingsUpdate:  mu: -0.099432744  nElectrons: 9.000000  magneticMoment: [ Abs: 0.28568  Tot: +0.28000 ]
SCF: Cycle:  6   F: -28.402870526355390   dF: -5.541e-06   |Residual|: 9.567e-04   |deigs|: 2.592e-03  t[s]:     20.39
	FillingsUpdate:  mu: -0.098005452  nElectrons: 9.000000  magneticMoment: [ Abs: 0.28476  Tot: +0.28000 ]
SCF: Cycle:  7   F: -28.402887403776145   dF: -1.688e-05   |Residual|: 8.253e-04   |deigs|: 2.654e-03  t[s]:     22.32
	FillingsUpdate:  mu: -0.097719979  nElectrons: 9.000000  magneticMoment: [ Abs: 0.28115  Tot: +0.28000 ]
SCF: Cycle:  8   F: -28.402900680827418   dF: -1.328e-05   |Residual|: 6.693e-04   |deigs|: 6.641e-04  t[s]:     24.36
	FillingsUpdate:  mu: -0.096551178  nElectrons: 9.000000  magneticMoment: [ Abs: 0.28273  Tot: +0.28000 ]
SCF: Cycle:  9   F: -28.402903222023685   dF: -2.541e-06   |Residual|: 5.174e-04   |deigs|: 1.270e-03  t[s]:     26.32
	FillingsUpdate:  mu: -0.095430225  nElectrons: 9.000000  magneticMoment: [ Abs: 0.28348  Tot: +0.28000 ]
SCF: Cycle: 10   F: -28.402902173531523   dF: +1.048e-06   |Residual|: 4.844e-04   |deigs|: 1.228e-03  t[s]:     28.32
	FillingsUpdate:  mu: -0.094287121  nElectrons: 9.000000  magneticMoment: [ Abs: 0.28214  Tot: +0.28000 ]
SCF: Cycle: 11   F: -28.402907432618932   dF: -5.259e-06   |Residual|: 4.457e-04   |deigs|: 1.137e-03  t[s]:     30.40
	FillingsUpdate:  mu: -0.093251812  nElectrons: 9.000000  magneticMoment: [ Abs: 0.28397  Tot: +0.28000 ]
SCF: Cycle: 12   F: -28.402916917870389   dF: -9.485e-06   |Residual|: 3.923e-04   |deigs|: 9.182e-04  t[s]:     32.41
	FillingsUpdate:  mu: -0.092137540  nElectrons: 9.000000  magneticMoment: [ Abs: 0.28373  Tot: +0.28000 ]
SCF: Cycle: 13   F: -28.402921454578689   dF: -4.537e-06   |Residual|: 3.632e-04   |deigs|: 1.177e-03  t[s]:     34.38
	FillingsUpdate:  mu: -0.090912088  nElectrons: 9.000000  magneticMoment: [ Abs: 0.28149  Tot: +0.28000 ]
SCF: Cycle: 14   F: -28.402925429445688   dF: -3.975e-06   |Residual|: 3.059e-04   |deigs|: 1.322e-03  t[s]:     36.40
	FillingsUpdate:  mu: -0.090375326  nElectrons: 9.000000  magneticMoment: [ Abs: 0.28001  Tot: +0.28000 ]
SCF: Cycle: 15   F: -28.402927373951730   dF: -1.945e-06   |Residual|: 2.635e-04   |deigs|: 6.701e-04  t[s]:     38.38
	FillingsUpdate:  mu: -0.090008765  nElectrons: 9.000000  magneticMoment: [ Abs: 0.28106  Tot: +0.28000 ]
SCF: Cycle: 16   F: -28.402928693173479   dF: -1.319e-06   |Residual|: 1.553e-04   |deigs|: 5.796e-04  t[s]:     40.42
	FillingsUpdate:  mu: -0.089804842  nElectrons: 9.000000  magneticMoment: [ Abs: 0.28045  Tot: +0.28000 ]
SCF: Cycle: 17   F: -28.402929157770007   dF: -4.646e-07   |Residual|: 8.888e-05   |deigs|: 4.042e-04  t[s]:     42.45
	FillingsUpdate:  mu: -0.089803575  nElectrons: 9.000000  magneticMoment: [ Abs: 0.28014  Tot: +0.28000 ]
SCF: Cycle: 18   F: -28.402929480142912   dF: -3.224e-07   |Residual|: 5.132e-05   |deigs|: 2.241e-04  t[s]:     44.47
	FillingsUpdate:  mu: -0.089786940  nElectrons: 9.000000  magneticMoment: [ Abs: 0.28019  Tot: +0.28000 ]
SCF: Cycle: 19   F: -28.402929603479400   dF: -1.233e-07   |Residual|: 3.472e-05   |deigs|: 1.344e-04  t[s]:     46.39
	FillingsUpdate:  mu: -0.089759452  nElectrons: 9.000000  magneticMoment: [ Abs: 0.28016  Tot: +0.28000 ]
SCF: Cycle: 20   F: -28.402929660677490   dF: -5.720e-08   |Residual|: 1.774e-05   |deigs|: 9.076e-05  t[s]:     48.46
	FillingsUpdate:  mu: -0.089748929  nElectrons: 9.000000  magneticMoment: [ Abs: 0.28013  Tot: +0.28000 ]
SCF: Cycle: 21   F: -28.402929703727345   dF: -4.305e-08   |Residual|: 9.229e-06   |deigs|: 6.995e-05  t[s]:     50.39
	FillingsUpdate:  mu: -0.089752062  nElectrons: 9.000000  magneticMoment: [ Abs: 0.28012  Tot: +0.28000 ]
SCF: Cycle: 22   F: -28.402929727750529   dF: -2.402e-08   |Residual|: 5.012e-06   |deigs|: 4.292e-05  t[s]:     52.33
	FillingsUpdate:  mu: -0.089751359  nElectrons: 9.000000  magneticMoment: [ Abs: 0.28011  Tot: +0.28000 ]
SCF: Cycle: 23   F: -28.402929739485689   dF: -1.174e-08   |Residual|: 3.749e-06   |deigs|: 3.207e-05  t[s]:     54.13
	FillingsUpdate:  mu: -0.089752911  nElectrons: 9.000000  magneticMoment: [ Abs: 0.28009  Tot: +0.28000 ]
SCF: Cycle: 24   F: -28.402929751971232   dF: -1.249e-08   |Residual|: 2.559e-06   |deigs|: 4.347e-05  t[s]:     56.03
	FillingsUpdate:  mu: -0.089752209  nElectrons: 9.000000  magneticMoment: [ Abs: 0.28007  Tot: +0.28000 ]
SCF: Cycle: 25   F: -28.402929757757722   dF: -5.786e-09   |Residual|: 2.673e-06   |deigs|: 2.673e-05  t[s]:     57.87
	FillingsUpdate:  mu: -0.089754399  nElectrons: 9.000000  magneticMoment: [ Abs: 0.28005  Tot: +0.28000 ]
SCF: Cycle: 26   F: -28.402929761781362   dF: -4.024e-09   |Residual|: 2.321e-06   |deigs|: 2.776e-05  t[s]:     59.84
SCF: Converged (|Delta E|<1.000000e-08 for 2 iters).


# Ionic positions in lattice coordinates:
ion K   0.000000000000000   0.000000000000000   0.000000000000000 0

# Forces in Lattice coordinates:
force K   0.000000000000000  -0.000000000000000   0.000000000000000 0

# Energy components:
   Eewald =      -18.0480261003326561
       EH =        4.8701449839303352
     Eloc =      -18.0625768854918576
      Enl =       -2.7741314668299744
   Epulay =        0.0000000041876954
      Exc =       -4.2630346983211354
       KE =        9.8746950860969633
-------------------------------------
     Etot =      -28.4029290767606284
       TS =        0.0000006850207335
-------------------------------------
        F =      -28.4029297617813619

IonicMinimize: Iter:   0  F: -28.402929761781362  |grad|_K:  0.000e+00  t[s]:     59.96
IonicMinimize: Converged (|grad|_K<1.000000e-04).

#--- Lowdin population analysis ---
# oxidation-state K +0.049
# magnetic-moments K +0.246

End date and time: Sat Feb  5 23:44:06 2022  (Duration: 0-0:00:59.98)
Done!
