
*************** JDFTx 1.6.0 (git hash 42ebbcc2) ***************

Start date and time: Sat Feb  5 23:36:43 2022
Executable jdftx with command-line: -i Alkali.in
Running on hosts (process indices):  d-6-8-2 (0-18)
Divided in process groups (process indices):  0 (0)  1 (1)  2 (2)  3 (3)  4 (4)  5 (5)  6 (6)  7 (7)  8 (8)  9 (9)  10 (10)  11 (11)  12 (12)  13 (13)  14 (14)  15 (15)  16 (16)  17 (17)  18 (18)
Resource initialization completed at t[s]:      0.00
Run totals: 19 processes, 48 threads, 0 GPUs


Input parsed successfully to the following command list (including defaults):

basis kpoint-dependent
coords-type Lattice
core-overlap-check vector
coulomb-interaction Slab 001
davidson-band-ratio 1.1
dump End None
dump-name $INPUT.$VAR
elec-cutoff 20
elec-eigen-algo Davidson
elec-ex-corr gga-PBE
elec-initial-magnetization -0.400000 yes
elec-smearing Fermi 1e-05
electronic-minimize  \
	dirUpdateScheme      FletcherReeves \
	linminMethod         DirUpdateRecommended \
	nIterations          100 \
	history              15 \
	knormThreshold       0 \
	energyDiffThreshold  1e-08 \
	nEnergyDiff          2 \
	alphaTstart          1 \
	alphaTmin            1e-10 \
	updateTestStepSize   yes \
	alphaTreduceFactor   0.1 \
	alphaTincreaseFactor 3 \
	nAlphaAdjustMax      3 \
	wolfeEnergy          0.0001 \
	wolfeGradient        0.9 \
	fdTest               no
electronic-scf  \
	nIterations	10000 \
	energyDiffThreshold	1e-08 \
	residualThreshold	1e-07 \
	mixFraction	0.5 \
	qMetric	0.8 \
	history	10 \
	nEigSteps	2 \
	eigDiffThreshold	1e-08 \
	mixedVariable	Density \
	qKerker	0.8 \
	qKappa	-1 \
	verbose	no \
	mixFractionMag	1.5
exchange-regularization WignerSeitzTruncated
fluid None
fluid-ex-corr (null) lda-PZ
fluid-gummel-loop 10 1.000000e-05
fluid-minimize  \
	dirUpdateScheme      PolakRibiere \
	linminMethod         DirUpdateRecommended \
	nIterations          100 \
	history              15 \
	knormThreshold       0 \
	energyDiffThreshold  0 \
	nEnergyDiff          2 \
	alphaTstart          1 \
	alphaTmin            1e-10 \
	updateTestStepSize   yes \
	alphaTreduceFactor   0.1 \
	alphaTincreaseFactor 3 \
	nAlphaAdjustMax      3 \
	wolfeEnergy          0.0001 \
	wolfeGradient        0.9 \
	fdTest               no
fluid-solvent H2O 55.338 ScalarEOS \
	epsBulk 78.4 \
	pMol 0.92466 \
	epsInf 1.77 \
	Pvap 1.06736e-10 \
	sigmaBulk 4.62e-05 \
	Rvdw 2.61727 \
	Res 1.42 \
	tauNuc 343133 \
	poleEl 15 7 1
forces-output-coords Positions
ion K   0.000000000000000   0.000000000000000   0.000000000000000 0
ion-species SG15/$ID_ONCV_PBE.upf
ion-width 0
ionic-minimize  \
	dirUpdateScheme      L-BFGS \
	linminMethod         DirUpdateRecommended \
	nIterations          0 \
	history              15 \
	knormThreshold       0.0001 \
	energyDiffThreshold  1e-06 \
	nEnergyDiff          2 \
	alphaTstart          1 \
	alphaTmin            1e-10 \
	updateTestStepSize   yes \
	alphaTreduceFactor   0.1 \
	alphaTincreaseFactor 3 \
	nAlphaAdjustMax      3 \
	wolfeEnergy          0.0001 \
	wolfeGradient        0.9 \
	fdTest               no
kpoint   0.000000000000   0.000000000000   0.000000000000  1.00000000000000
kpoint-folding 12 12 1 
latt-move-scale 1 1 1
latt-scale 2 2 1 
lattice  \
	   4.727486978767153   -2.363743489383575    0.000000000000000  \
	  -0.000000000000000    4.094123819672498    0.000000000000000  \
	   0.000000000000000    0.000000000000000   40.000000000000000 
lattice-minimize  \
	dirUpdateScheme      L-BFGS \
	linminMethod         DirUpdateRecommended \
	nIterations          0 \
	history              15 \
	knormThreshold       0 \
	energyDiffThreshold  1e-06 \
	nEnergyDiff          2 \
	alphaTstart          1 \
	alphaTmin            1e-10 \
	updateTestStepSize   yes \
	alphaTreduceFactor   0.1 \
	alphaTincreaseFactor 3 \
	nAlphaAdjustMax      3 \
	wolfeEnergy          0.0001 \
	wolfeGradient        0.9 \
	fdTest               no
lcao-params -1 1e-06 1e-05
pcm-variant GLSSA13
spintype z-spin
subspace-rotation-factor 1 yes
symmetries automatic
symmetry-threshold 0.0001



---------- Setting up symmetries ----------

Found 24 point-group symmetries of the bravais lattice
Found 24 space-group symmetries with basis
Applied RMS atom displacement 0 bohrs to make symmetries exact.

---------- Initializing the Grid ----------
R = 
[      9.45497     -4.72749            0  ]
[            0      8.18825            0  ]
[            0            0           40  ]
unit cell volume = 3096.79
G =
[   0.664538   0.383671         -0  ]
[          0   0.767342         -0  ]
[         -0         -0    0.15708  ]
Minimum fftbox size, Smin = [  40  40  164  ]
Chosen fftbox size, S = [  40  40  168  ]

---------- Exchange Correlation functional ----------
Initalized PBE GGA exchange.
Initalized PBE GGA correlation.

---------- Setting up pseudopotentials ----------
Width of ionic core gaussian charges (only for fluid interactions / plotting) set to 0

Reading pseudopotential file '/home/gridsan/aligho/DFT/build-Nov24/pseudopotentials/SG15/K_ONCV_PBE.upf':
  'K' pseudopotential, 'PBE' functional
  Generated using ONCVPSP code by D. R. Hamann
  Author: Martin Schlipf and Francois Gygi  Date: 150915.
  9 valence electrons, 3 orbitals, 6 projectors, 2222 radial grid points, with lMax = 2
  Transforming local potential to a uniform radial grid of dG=0.02 with 1489 points.
  Transforming nonlocal projectors to a uniform radial grid of dG=0.02 with 432 points.
    3S    l: 0   occupation:  2.0   eigenvalue: -1.298836
    3P    l: 1   occupation:  6.0   eigenvalue: -0.691386
    4S    l: 0   occupation:  1.0   eigenvalue: -0.085223
  Transforming atomic orbitals to a uniform radial grid of dG=0.02 with 432 points.
  Core radius for overlap checks: 2.06 bohrs.
  Reading pulay file /home/gridsan/aligho/DFT/build-Nov24/pseudopotentials/SG15/K_ONCV_PBE.pulay ... using dE_dnG = -1.597219e-05 computed for Ecut = 20.

Initialized 1 species with 1 total atoms.

Folded 1 k-points by 12x12x1 to 144 k-points.

---------- Setting up k-points, bands, fillings ----------
Reduced to 19 k-points under symmetry. 
Computing the number of bands and number of electrons
Calculating initial fillings.
nElectrons:   9.000000   nBands: 6   nStates: 38

----- Setting up reduced wavefunction bases (one per k-point) -----
average nbasis = 13230.521 , ideal nbasis = 13229.709

---------- Setting up coulomb interaction ----------
Initialized slab truncation along lattice direction 001

---------- Setting up 2D ewald sum ----------
Optimum gaussian width for ewald sums = 5.249020 bohr.
Real space sums over 289 unit cells with max indices [  8  8  0  ]
Reciprocal space sums over 81 terms with max indices [  4  4  0  ]

---------- Allocating electronic variables ----------
Initializing wave functions:  linear combination of atomic orbitals
Note: number of bands (6) exceeds available atomic orbitals (5)
K pseudo-atom occupations:   s ( 2 1 )  p ( 6 )
	FillingsUpdate:  mu: -0.093503005  nElectrons: 9.000000  magneticMoment: [ Abs: 0.40000  Tot: -0.40000 ]
LCAOMinimize: Iter:   0  F: -28.3950284016982017  |grad|_K:  3.482e-05  alpha:  1.000e+00
	FillingsUpdate:  mu: -0.093492466  nElectrons: 9.000000  magneticMoment: [ Abs: 0.40000  Tot: -0.40000 ]
LCAOMinimize: Iter:   1  F: -28.3950292134531033  |grad|_K:  3.095e-07  alpha:  9.788e-01  linmin: -3.483e-02  cgtest:  5.531e-01  t[s]:      4.53
LCAOMinimize: Encountered beta<0, resetting CG.
	FillingsUpdate:  mu: -0.093492479  nElectrons: 9.000000  magneticMoment: [ Abs: 0.40000  Tot: -0.40000 ]
LCAOMinimize: Iter:   2  F: -28.3950292135193472  |grad|_K:  3.888e-09  alpha:  1.013e+00  linmin:  8.201e-02  cgtest: -9.567e-01  t[s]:      5.72
LCAOMinimize: Converged (|Delta F|<1.000000e-06 for 2 iters).


---- Citations for features of the code used in this run ----

   Software package:
      R. Sundararaman, K. Letchworth-Weaver, K.A. Schwarz, D. Gunceler, Y. Ozhabes and T.A. Arias, 'JDFTx: software for joint density-functional theory', SoftwareX 6, 278 (2017)

   gga-PBE exchange-correlation functional:
      J.P. Perdew, K. Burke and M. Ernzerhof, Phys. Rev. Lett. 77, 3865 (1996)

   Pseudopotentials:
      M Schlipf and F Gygi, Comput. Phys. Commun. 196, 36 (2015)

   Truncated Coulomb potentials:
      R. Sundararaman and T.A. Arias, Phys. Rev. B 87, 165122 (2013)

This list may not be complete. Please suggest additional citations or
report any other bugs at https://github.com/shankar1729/jdftx/issues

Initialization completed successfully at t[s]:      5.81


-------- Electronic minimization -----------
Will mix electronic density at each iteration.
	FillingsUpdate:  mu: -0.093492479  nElectrons: 9.000000  magneticMoment: [ Abs: 0.40000  Tot: -0.40000 ]
	FillingsUpdate:  mu: -0.105207683  nElectrons: 9.000000  magneticMoment: [ Abs: 0.40000  Tot: -0.40000 ]
SCF: Cycle:  0   F: -28.401364778232693   dF: -6.336e-03   |Residual|: 1.014e-02   |deigs|: 1.742e-01  t[s]:      8.19
	FillingsUpdate:  mu: -0.104967701  nElectrons: 9.000000  magneticMoment: [ Abs: 0.40000  Tot: -0.40000 ]
SCF: Cycle:  1   F: -28.401552282772876   dF: -1.875e-04   |Residual|: 7.633e-03   |deigs|: 5.365e-03  t[s]:      9.99
	FillingsUpdate:  mu: -0.103682858  nElectrons: 9.000000  magneticMoment: [ Abs: 0.40394  Tot: -0.40000 ]
SCF: Cycle:  2   F: -28.401595863464404   dF: -4.358e-05   |Residual|: 4.134e-03   |deigs|: 3.982e-03  t[s]:     11.81
	FillingsUpdate:  mu: -0.102985580  nElectrons: 9.000000  magneticMoment: [ Abs: 0.40000  Tot: -0.40000 ]
SCF: Cycle:  3   F: -28.401659655533969   dF: -6.379e-05   |Residual|: 2.651e-03   |deigs|: 3.106e-03  t[s]:     13.65
	FillingsUpdate:  mu: -0.101587902  nElectrons: 9.000000  magneticMoment: [ Abs: 0.40004  Tot: -0.40000 ]
SCF: Cycle:  4   F: -28.401692820850663   dF: -3.317e-05   |Residual|: 1.796e-03   |deigs|: 3.858e-03  t[s]:     15.58
	FillingsUpdate:  mu: -0.100281564  nElectrons: 9.000000  magneticMoment: [ Abs: 0.40113  Tot: -0.40000 ]
SCF: Cycle:  5   F: -28.401711029959770   dF: -1.821e-05   |Residual|: 1.446e-03   |deigs|: 4.158e-03  t[s]:     17.57
	FillingsUpdate:  mu: -0.098372921  nElectrons: 9.000000  magneticMoment: [ Abs: 0.40610  Tot: -0.40000 ]
SCF: Cycle:  6   F: -28.401718604842081   dF: -7.575e-06   |Residual|: 1.036e-03   |deigs|: 3.068e-03  t[s]:     19.47
	FillingsUpdate:  mu: -0.096606631  nElectrons: 9.000000  magneticMoment: [ Abs: 0.40661  Tot: -0.40000 ]
SCF: Cycle:  7   F: -28.401732205590672   dF: -1.360e-05   |Residual|: 8.901e-04   |deigs|: 2.295e-03  t[s]:     21.41
	FillingsUpdate:  mu: -0.096325173  nElectrons: 9.000000  magneticMoment: [ Abs: 0.40169  Tot: -0.40000 ]
SCF: Cycle:  8   F: -28.401747624798194   dF: -1.542e-05   |Residual|: 7.259e-04   |deigs|: 1.844e-03  t[s]:     23.34
	FillingsUpdate:  mu: -0.095341730  nElectrons: 9.000000  magneticMoment: [ Abs: 0.40249  Tot: -0.40000 ]
SCF: Cycle:  9   F: -28.401751110578232   dF: -3.486e-06   |Residual|: 5.637e-04   |deigs|: 1.061e-03  t[s]:     25.33
	FillingsUpdate:  mu: -0.094217376  nElectrons: 9.000000  magneticMoment: [ Abs: 0.40397  Tot: -0.40000 ]
SCF: Cycle: 10   F: -28.401752984239565   dF: -1.874e-06   |Residual|: 4.967e-04   |deigs|: 1.308e-03  t[s]:     27.37
	FillingsUpdate:  mu: -0.093147928  nElectrons: 9.000000  magneticMoment: [ Abs: 0.40298  Tot: -0.40000 ]
SCF: Cycle: 11   F: -28.401755538804576   dF: -2.555e-06   |Residual|: 4.671e-04   |deigs|: 1.206e-03  t[s]:     29.34
	FillingsUpdate:  mu: -0.092060749  nElectrons: 9.000000  magneticMoment: [ Abs: 0.40368  Tot: -0.40000 ]
SCF: Cycle: 12   F: -28.401765091573932   dF: -9.553e-06   |Residual|: 4.077e-04   |deigs|: 9.507e-04  t[s]:     31.44
	FillingsUpdate:  mu: -0.091054548  nElectrons: 9.000000  magneticMoment: [ Abs: 0.40433  Tot: -0.40000 ]
SCF: Cycle: 13   F: -28.401770063397489   dF: -4.972e-06   |Residual|: 3.792e-04   |deigs|: 1.058e-03  t[s]:     33.36
	FillingsUpdate:  mu: -0.089832487  nElectrons: 9.000000  magneticMoment: [ Abs: 0.40236  Tot: -0.40000 ]
SCF: Cycle: 14   F: -28.401774110089544   dF: -4.047e-06   |Residual|: 3.341e-04   |deigs|: 1.315e-03  t[s]:     35.38
	FillingsUpdate:  mu: -0.089031240  nElectrons: 9.000000  magneticMoment: [ Abs: 0.40002  Tot: -0.40000 ]
SCF: Cycle: 15   F: -28.401776684058806   dF: -2.574e-06   |Residual|: 2.686e-04   |deigs|: 8.482e-04  t[s]:     37.36
	FillingsUpdate:  mu: -0.088560720  nElectrons: 9.000000  magneticMoment: [ Abs: 0.40103  Tot: -0.40000 ]
SCF: Cycle: 16   F: -28.401778089333380   dF: -1.405e-06   |Residual|: 1.772e-04   |deigs|: 6.090e-04  t[s]:     39.43
	FillingsUpdate:  mu: -0.088342949  nElectrons: 9.000000  magneticMoment: [ Abs: 0.40071  Tot: -0.40000 ]
SCF: Cycle: 17   F: -28.401778671428566   dF: -5.821e-07   |Residual|: 1.136e-04   |deigs|: 4.520e-04  t[s]:     41.42
	FillingsUpdate:  mu: -0.088277973  nElectrons: 9.000000  magneticMoment: [ Abs: 0.40015  Tot: -0.40000 ]
SCF: Cycle: 18   F: -28.401779067359296   dF: -3.959e-07   |Residual|: 5.901e-05   |deigs|: 2.643e-04  t[s]:     43.40
	FillingsUpdate:  mu: -0.088264952  nElectrons: 9.000000  magneticMoment: [ Abs: 0.40029  Tot: -0.40000 ]
SCF: Cycle: 19   F: -28.401779210167053   dF: -1.428e-07   |Residual|: 4.041e-05   |deigs|: 1.488e-04  t[s]:     45.34
	FillingsUpdate:  mu: -0.088250133  nElectrons: 9.000000  magneticMoment: [ Abs: 0.40024  Tot: -0.40000 ]
SCF: Cycle: 20   F: -28.401779292338631   dF: -8.217e-08   |Residual|: 2.368e-05   |deigs|: 9.994e-05  t[s]:     47.32
	FillingsUpdate:  mu: -0.088228672  nElectrons: 9.000000  magneticMoment: [ Abs: 0.40015  Tot: -0.40000 ]
SCF: Cycle: 21   F: -28.401779335715901   dF: -4.338e-08   |Residual|: 1.031e-05   |deigs|: 7.328e-05  t[s]:     49.29
	FillingsUpdate:  mu: -0.088223576  nElectrons: 9.000000  magneticMoment: [ Abs: 0.40014  Tot: -0.40000 ]
SCF: Cycle: 22   F: -28.401779364797239   dF: -2.908e-08   |Residual|: 6.045e-06   |deigs|: 7.513e-05  t[s]:     51.20
	FillingsUpdate:  mu: -0.088219486  nElectrons: 9.000000  magneticMoment: [ Abs: 0.40014  Tot: -0.40000 ]
SCF: Cycle: 23   F: -28.401779381307506   dF: -1.651e-08   |Residual|: 4.348e-06   |deigs|: 9.747e-05  t[s]:     53.08
	FillingsUpdate:  mu: -0.088216366  nElectrons: 9.000000  magneticMoment: [ Abs: 0.40012  Tot: -0.40000 ]
SCF: Cycle: 24   F: -28.401779390815985   dF: -9.508e-09   |Residual|: 4.366e-06   |deigs|: 9.575e-05  t[s]:     54.96
	FillingsUpdate:  mu: -0.088214172  nElectrons: 9.000000  magneticMoment: [ Abs: 0.40010  Tot: -0.40000 ]
SCF: Cycle: 25   F: -28.401779396214732   dF: -5.399e-09   |Residual|: 3.280e-06   |deigs|: 6.906e-05  t[s]:     56.89
SCF: Converged (|Delta E|<1.000000e-08 for 2 iters).


# Ionic positions in lattice coordinates:
ion K   0.000000000000000   0.000000000000000   0.000000000000000 0

# Forces in Lattice coordinates:
force K   0.000000000000000   0.000000000000000   0.000000000000000 0

# Energy components:
   Eewald =      -18.0480261003326561
       EH =        4.8739569376727783
     Eloc =      -18.0663851121895505
      Enl =       -2.7748612194294973
   Epulay =        0.0000000041876954
      Exc =       -4.2639630110555036
       KE =        9.8774996958464829
-------------------------------------
     Etot =      -28.4017788053002462
       TS =        0.0000005909144852
-------------------------------------
        F =      -28.4017793962147316

IonicMinimize: Iter:   0  F: -28.401779396214732  |grad|_K:  0.000e+00  t[s]:     57.01
IonicMinimize: Converged (|grad|_K<1.000000e-04).

#--- Lowdin population analysis ---
# oxidation-state K +0.064
# magnetic-moments K -0.346

End date and time: Sat Feb  5 23:37:40 2022  (Duration: 0-0:00:57.03)
Done!
