
*************** JDFTx 1.6.0 (git hash 42ebbcc2) ***************

Start date and time: Sat Feb  5 23:30:09 2022
Executable jdftx with command-line: -i Alkali.in
Running on hosts (process indices):  d-16-5-2 (0-18)
Divided in process groups (process indices):  0 (0)  1 (1)  2 (2)  3 (3)  4 (4)  5 (5)  6 (6)  7 (7)  8 (8)  9 (9)  10 (10)  11 (11)  12 (12)  13 (13)  14 (14)  15 (15)  16 (16)  17 (17)  18 (18)
Resource initialization completed at t[s]:      0.00
Run totals: 19 processes, 48 threads, 0 GPUs


Input parsed successfully to the following command list (including defaults):

basis kpoint-dependent
coords-type Lattice
core-overlap-check vector
coulomb-interaction Slab 001
davidson-band-ratio 1.1
dump End None
dump-name $INPUT.$VAR
elec-cutoff 20
elec-eigen-algo Davidson
elec-ex-corr gga-PBE
elec-initial-magnetization -0.640000 yes
elec-smearing Fermi 1e-05
electronic-minimize  \
	dirUpdateScheme      FletcherReeves \
	linminMethod         DirUpdateRecommended \
	nIterations          100 \
	history              15 \
	knormThreshold       0 \
	energyDiffThreshold  1e-08 \
	nEnergyDiff          2 \
	alphaTstart          1 \
	alphaTmin            1e-10 \
	updateTestStepSize   yes \
	alphaTreduceFactor   0.1 \
	alphaTincreaseFactor 3 \
	nAlphaAdjustMax      3 \
	wolfeEnergy          0.0001 \
	wolfeGradient        0.9 \
	fdTest               no
electronic-scf  \
	nIterations	10000 \
	energyDiffThreshold	1e-08 \
	residualThreshold	1e-07 \
	mixFraction	0.5 \
	qMetric	0.8 \
	history	10 \
	nEigSteps	2 \
	eigDiffThreshold	1e-08 \
	mixedVariable	Density \
	qKerker	0.8 \
	qKappa	-1 \
	verbose	no \
	mixFractionMag	1.5
exchange-regularization WignerSeitzTruncated
fluid None
fluid-ex-corr (null) lda-PZ
fluid-gummel-loop 10 1.000000e-05
fluid-minimize  \
	dirUpdateScheme      PolakRibiere \
	linminMethod         DirUpdateRecommended \
	nIterations          100 \
	history              15 \
	knormThreshold       0 \
	energyDiffThreshold  0 \
	nEnergyDiff          2 \
	alphaTstart          1 \
	alphaTmin            1e-10 \
	updateTestStepSize   yes \
	alphaTreduceFactor   0.1 \
	alphaTincreaseFactor 3 \
	nAlphaAdjustMax      3 \
	wolfeEnergy          0.0001 \
	wolfeGradient        0.9 \
	fdTest               no
fluid-solvent H2O 55.338 ScalarEOS \
	epsBulk 78.4 \
	pMol 0.92466 \
	epsInf 1.77 \
	Pvap 1.06736e-10 \
	sigmaBulk 4.62e-05 \
	Rvdw 2.61727 \
	Res 1.42 \
	tauNuc 343133 \
	poleEl 15 7 1
forces-output-coords Positions
ion K   0.000000000000000   0.000000000000000   0.000000000000000 0
ion-species SG15/$ID_ONCV_PBE.upf
ion-width 0
ionic-minimize  \
	dirUpdateScheme      L-BFGS \
	linminMethod         DirUpdateRecommended \
	nIterations          0 \
	history              15 \
	knormThreshold       0.0001 \
	energyDiffThreshold  1e-06 \
	nEnergyDiff          2 \
	alphaTstart          1 \
	alphaTmin            1e-10 \
	updateTestStepSize   yes \
	alphaTreduceFactor   0.1 \
	alphaTincreaseFactor 3 \
	nAlphaAdjustMax      3 \
	wolfeEnergy          0.0001 \
	wolfeGradient        0.9 \
	fdTest               no
kpoint   0.000000000000   0.000000000000   0.000000000000  1.00000000000000
kpoint-folding 12 12 1 
latt-move-scale 1 1 1
latt-scale 2 2 1 
lattice  \
	   4.727486978767153   -2.363743489383575    0.000000000000000  \
	  -0.000000000000000    4.094123819672498    0.000000000000000  \
	   0.000000000000000    0.000000000000000   40.000000000000000 
lattice-minimize  \
	dirUpdateScheme      L-BFGS \
	linminMethod         DirUpdateRecommended \
	nIterations          0 \
	history              15 \
	knormThreshold       0 \
	energyDiffThreshold  1e-06 \
	nEnergyDiff          2 \
	alphaTstart          1 \
	alphaTmin            1e-10 \
	updateTestStepSize   yes \
	alphaTreduceFactor   0.1 \
	alphaTincreaseFactor 3 \
	nAlphaAdjustMax      3 \
	wolfeEnergy          0.0001 \
	wolfeGradient        0.9 \
	fdTest               no
lcao-params -1 1e-06 1e-05
pcm-variant GLSSA13
spintype z-spin
subspace-rotation-factor 1 yes
symmetries automatic
symmetry-threshold 0.0001



---------- Setting up symmetries ----------

Found 24 point-group symmetries of the bravais lattice
Found 24 space-group symmetries with basis
Applied RMS atom displacement 0 bohrs to make symmetries exact.

---------- Initializing the Grid ----------
R = 
[      9.45497     -4.72749            0  ]
[            0      8.18825            0  ]
[            0            0           40  ]
unit cell volume = 3096.79
G =
[   0.664538   0.383671         -0  ]
[          0   0.767342         -0  ]
[         -0         -0    0.15708  ]
Minimum fftbox size, Smin = [  40  40  164  ]
Chosen fftbox size, S = [  40  40  168  ]

---------- Exchange Correlation functional ----------
Initalized PBE GGA exchange.
Initalized PBE GGA correlation.

---------- Setting up pseudopotentials ----------
Width of ionic core gaussian charges (only for fluid interactions / plotting) set to 0

Reading pseudopotential file '/home/gridsan/aligho/DFT/build-Nov24/pseudopotentials/SG15/K_ONCV_PBE.upf':
  'K' pseudopotential, 'PBE' functional
  Generated using ONCVPSP code by D. R. Hamann
  Author: Martin Schlipf and Francois Gygi  Date: 150915.
  9 valence electrons, 3 orbitals, 6 projectors, 2222 radial grid points, with lMax = 2
  Transforming local potential to a uniform radial grid of dG=0.02 with 1489 points.
  Transforming nonlocal projectors to a uniform radial grid of dG=0.02 with 432 points.
    3S    l: 0   occupation:  2.0   eigenvalue: -1.298836
    3P    l: 1   occupation:  6.0   eigenvalue: -0.691386
    4S    l: 0   occupation:  1.0   eigenvalue: -0.085223
  Transforming atomic orbitals to a uniform radial grid of dG=0.02 with 432 points.
  Core radius for overlap checks: 2.06 bohrs.
  Reading pulay file /home/gridsan/aligho/DFT/build-Nov24/pseudopotentials/SG15/K_ONCV_PBE.pulay ... using dE_dnG = -1.597219e-05 computed for Ecut = 20.

Initialized 1 species with 1 total atoms.

Folded 1 k-points by 12x12x1 to 144 k-points.

---------- Setting up k-points, bands, fillings ----------
Reduced to 19 k-points under symmetry. 
Computing the number of bands and number of electrons
Calculating initial fillings.
nElectrons:   9.000000   nBands: 6   nStates: 38

----- Setting up reduced wavefunction bases (one per k-point) -----
average nbasis = 13230.521 , ideal nbasis = 13229.709

---------- Setting up coulomb interaction ----------
Initialized slab truncation along lattice direction 001

---------- Setting up 2D ewald sum ----------
Optimum gaussian width for ewald sums = 5.249020 bohr.
Real space sums over 289 unit cells with max indices [  8  8  0  ]
Reciprocal space sums over 81 terms with max indices [  4  4  0  ]

---------- Allocating electronic variables ----------
Initializing wave functions:  linear combination of atomic orbitals
Note: number of bands (6) exceeds available atomic orbitals (5)
K pseudo-atom occupations:   s ( 2 1 )  p ( 6 )
	FillingsUpdate:  mu: -0.098248032  nElectrons: 9.000000  magneticMoment: [ Abs: 0.64000  Tot: -0.64000 ]
LCAOMinimize: Iter:   0  F: -28.3896368442567777  |grad|_K:  2.404e-05  alpha:  1.000e+00
	FillingsUpdate:  mu: -0.098241604  nElectrons: 9.000000  magneticMoment: [ Abs: 0.64000  Tot: -0.64000 ]
LCAOMinimize: Iter:   1  F: -28.3896372321970816  |grad|_K:  2.074e-07  alpha:  9.818e-01  linmin: -2.392e-02  cgtest:  3.885e-01  t[s]:      4.63
LCAOMinimize: Encountered beta<0, resetting CG.
	FillingsUpdate:  mu: -0.098241641  nElectrons: 9.000000  magneticMoment: [ Abs: 0.64000  Tot: -0.64000 ]
LCAOMinimize: Iter:   2  F: -28.3896372322260611  |grad|_K:  1.678e-09  alpha:  9.932e-01  linmin: -8.777e-02  cgtest:  9.817e-01  t[s]:      5.84
LCAOMinimize: Encountered beta<0, resetting CG.
LCAOMinimize: Converged (|Delta F|<1.000000e-06 for 2 iters).


---- Citations for features of the code used in this run ----

   Software package:
      R. Sundararaman, K. Letchworth-Weaver, K.A. Schwarz, D. Gunceler, Y. Ozhabes and T.A. Arias, 'JDFTx: software for joint density-functional theory', SoftwareX 6, 278 (2017)

   gga-PBE exchange-correlation functional:
      J.P. Perdew, K. Burke and M. Ernzerhof, Phys. Rev. Lett. 77, 3865 (1996)

   Pseudopotentials:
      M Schlipf and F Gygi, Comput. Phys. Commun. 196, 36 (2015)

   Truncated Coulomb potentials:
      R. Sundararaman and T.A. Arias, Phys. Rev. B 87, 165122 (2013)

This list may not be complete. Please suggest additional citations or
report any other bugs at https://github.com/shankar1729/jdftx/issues

Initialization completed successfully at t[s]:      5.93


-------- Electronic minimization -----------
Will mix electronic density at each iteration.
	FillingsUpdate:  mu: -0.098241641  nElectrons: 9.000000  magneticMoment: [ Abs: 0.64000  Tot: -0.64000 ]
	FillingsUpdate:  mu: -0.107977704  nElectrons: 9.000000  magneticMoment: [ Abs: 0.64000  Tot: -0.64000 ]
SCF: Cycle:  0   F: -28.398062714751898   dF: -8.425e-03   |Residual|: 1.314e-02   |deigs|: 1.731e-01  t[s]:      8.38
	FillingsUpdate:  mu: -0.108284563  nElectrons: 9.000000  magneticMoment: [ Abs: 0.64000  Tot: -0.64000 ]
SCF: Cycle:  1   F: -28.398401133572804   dF: -3.384e-04   |Residual|: 9.617e-03   |deigs|: 7.019e-03  t[s]:     10.22
	FillingsUpdate:  mu: -0.107754215  nElectrons: 9.000000  magneticMoment: [ Abs: 0.64332  Tot: -0.64000 ]
SCF: Cycle:  2   F: -28.398486126416884   dF: -8.499e-05   |Residual|: 5.733e-03   |deigs|: 4.207e-03  t[s]:     12.09
	FillingsUpdate:  mu: -0.106506334  nElectrons: 9.000000  magneticMoment: [ Abs: 0.64000  Tot: -0.64000 ]
SCF: Cycle:  3   F: -28.398555354322394   dF: -6.923e-05   |Residual|: 3.403e-03   |deigs|: 4.706e-03  t[s]:     13.98
	FillingsUpdate:  mu: -0.104924901  nElectrons: 9.000000  magneticMoment: [ Abs: 0.64002  Tot: -0.64000 ]
SCF: Cycle:  4   F: -28.398607777752233   dF: -5.242e-05   |Residual|: 2.043e-03   |deigs|: 4.238e-03  t[s]:     15.94
	FillingsUpdate:  mu: -0.103384515  nElectrons: 9.000000  magneticMoment: [ Abs: 0.64093  Tot: -0.64000 ]
SCF: Cycle:  5   F: -28.398628256658338   dF: -2.048e-05   |Residual|: 1.679e-03   |deigs|: 2.757e-03  t[s]:     17.97
	FillingsUpdate:  mu: -0.101446053  nElectrons: 9.000000  magneticMoment: [ Abs: 0.64568  Tot: -0.64000 ]
SCF: Cycle:  6   F: -28.398637563199713   dF: -9.307e-06   |Residual|: 1.240e-03   |deigs|: 2.896e-03  t[s]:     19.96
	FillingsUpdate:  mu: -0.099224158  nElectrons: 9.000000  magneticMoment: [ Abs: 0.64685  Tot: -0.64000 ]
SCF: Cycle:  7   F: -28.398657102880609   dF: -1.954e-05   |Residual|: 9.616e-04   |deigs|: 2.832e-03  t[s]:     22.11
	FillingsUpdate:  mu: -0.098880183  nElectrons: 9.000000  magneticMoment: [ Abs: 0.64179  Tot: -0.64000 ]
SCF: Cycle:  8   F: -28.398678289045662   dF: -2.119e-05   |Residual|: 7.830e-04   |deigs|: 6.430e-04  t[s]:     24.10
	FillingsUpdate:  mu: -0.098299404  nElectrons: 9.000000  magneticMoment: [ Abs: 0.64120  Tot: -0.64000 ]
SCF: Cycle:  9   F: -28.398685291601844   dF: -7.003e-06   |Residual|: 6.334e-04   |deigs|: 6.850e-04  t[s]:     26.22
	FillingsUpdate:  mu: -0.097058651  nElectrons: 9.000000  magneticMoment: [ Abs: 0.64354  Tot: -0.64000 ]
SCF: Cycle: 10   F: -28.398685556481947   dF: -2.649e-07   |Residual|: 5.369e-04   |deigs|: 1.492e-03  t[s]:     28.34
	FillingsUpdate:  mu: -0.095964518  nElectrons: 9.000000  magneticMoment: [ Abs: 0.64357  Tot: -0.64000 ]
SCF: Cycle: 11   F: -28.398685521862767   dF: +3.462e-08   |Residual|: 4.924e-04   |deigs|: 1.235e-03  t[s]:     30.38
	FillingsUpdate:  mu: -0.095092974  nElectrons: 9.000000  magneticMoment: [ Abs: 0.64338  Tot: -0.64000 ]
SCF: Cycle: 12   F: -28.398692400695449   dF: -6.879e-06   |Residual|: 4.343e-04   |deigs|: 8.478e-04  t[s]:     32.47
	FillingsUpdate:  mu: -0.094168195  nElectrons: 9.000000  magneticMoment: [ Abs: 0.64444  Tot: -0.64000 ]
SCF: Cycle: 13   F: -28.398697802811977   dF: -5.402e-06   |Residual|: 3.819e-04   |deigs|: 9.291e-04  t[s]:     34.56
	FillingsUpdate:  mu: -0.092593940  nElectrons: 9.000000  magneticMoment: [ Abs: 0.64241  Tot: -0.64000 ]
SCF: Cycle: 14   F: -28.398702447217921   dF: -4.644e-06   |Residual|: 3.658e-04   |deigs|: 1.635e-03  t[s]:     36.62
	FillingsUpdate:  mu: -0.091689871  nElectrons: 9.000000  magneticMoment: [ Abs: 0.64051  Tot: -0.64000 ]
SCF: Cycle: 15   F: -28.398704793568719   dF: -2.346e-06   |Residual|: 3.254e-04   |deigs|: 1.105e-03  t[s]:     38.63
	FillingsUpdate:  mu: -0.090976098  nElectrons: 9.000000  magneticMoment: [ Abs: 0.64137  Tot: -0.64000 ]
SCF: Cycle: 16   F: -28.398706871972863   dF: -2.078e-06   |Residual|: 2.364e-04   |deigs|: 8.096e-04  t[s]:     40.70
	FillingsUpdate:  mu: -0.090656625  nElectrons: 9.000000  magneticMoment: [ Abs: 0.64060  Tot: -0.64000 ]
SCF: Cycle: 17   F: -28.398707753694758   dF: -8.817e-07   |Residual|: 1.426e-04   |deigs|: 3.198e-04  t[s]:     42.82
	FillingsUpdate:  mu: -0.090520622  nElectrons: 9.000000  magneticMoment: [ Abs: 0.64035  Tot: -0.64000 ]
SCF: Cycle: 18   F: -28.398708208730039   dF: -4.550e-07   |Residual|: 9.270e-05   |deigs|: 1.490e-04  t[s]:     44.94
	FillingsUpdate:  mu: -0.090464413  nElectrons: 9.000000  magneticMoment: [ Abs: 0.64037  Tot: -0.64000 ]
SCF: Cycle: 19   F: -28.398708476529237   dF: -2.678e-07   |Residual|: 6.685e-05   |deigs|: 9.161e-05  t[s]:     47.02
	FillingsUpdate:  mu: -0.090473172  nElectrons: 9.000000  magneticMoment: [ Abs: 0.64034  Tot: -0.64000 ]
SCF: Cycle: 20   F: -28.398708572473005   dF: -9.594e-08   |Residual|: 3.221e-05   |deigs|: 9.797e-05  t[s]:     49.11
	FillingsUpdate:  mu: -0.090450837  nElectrons: 9.000000  magneticMoment: [ Abs: 0.64031  Tot: -0.64000 ]
SCF: Cycle: 21   F: -28.398708619487408   dF: -4.701e-08   |Residual|: 1.965e-05   |deigs|: 1.232e-04  t[s]:     51.12
	FillingsUpdate:  mu: -0.090438640  nElectrons: 9.000000  magneticMoment: [ Abs: 0.64032  Tot: -0.64000 ]
SCF: Cycle: 22   F: -28.398708646555356   dF: -2.707e-08   |Residual|: 1.379e-05   |deigs|: 1.447e-04  t[s]:     53.18
	FillingsUpdate:  mu: -0.090433366  nElectrons: 9.000000  magneticMoment: [ Abs: 0.64030  Tot: -0.64000 ]
SCF: Cycle: 23   F: -28.398708660464827   dF: -1.391e-08   |Residual|: 1.126e-05   |deigs|: 1.499e-04  t[s]:     55.24
	FillingsUpdate:  mu: -0.090429231  nElectrons: 9.000000  magneticMoment: [ Abs: 0.64023  Tot: -0.64000 ]
SCF: Cycle: 24   F: -28.398708674582377   dF: -1.412e-08   |Residual|: 9.625e-06   |deigs|: 1.316e-04  t[s]:     57.35
	FillingsUpdate:  mu: -0.090431093  nElectrons: 9.000000  magneticMoment: [ Abs: 0.64014  Tot: -0.64000 ]
SCF: Cycle: 25   F: -28.398708682179112   dF: -7.597e-09   |Residual|: 8.224e-06   |deigs|: 9.867e-05  t[s]:     59.47
	FillingsUpdate:  mu: -0.090423905  nElectrons: 9.000000  magneticMoment: [ Abs: 0.64009  Tot: -0.64000 ]
SCF: Cycle: 26   F: -28.398708689311366   dF: -7.132e-09   |Residual|: 5.911e-06   |deigs|: 7.268e-05  t[s]:     61.54
SCF: Converged (|Delta E|<1.000000e-08 for 2 iters).


# Ionic positions in lattice coordinates:
ion K   0.000000000000000   0.000000000000000   0.000000000000000 0

# Forces in Lattice coordinates:
force K   0.000000000000000   0.000000000000000   0.000000000000000 0

# Energy components:
   Eewald =      -18.0480261003326561
       EH =        4.8859558796303952
     Eloc =      -18.0784011941331286
      Enl =       -2.7768875786680054
   Epulay =        0.0000000041876954
      Exc =       -4.2667326822607645
       KE =        9.8853840124625556
-------------------------------------
     Etot =      -28.3987076591139065
       TS =        0.0000010301974605
-------------------------------------
        F =      -28.3987086893113663

IonicMinimize: Iter:   0  F: -28.398708689311366  |grad|_K:  0.000e+00  t[s]:     61.66
IonicMinimize: Converged (|grad|_K<1.000000e-04).

#--- Lowdin population analysis ---
# oxidation-state K +0.108
# magnetic-moments K -0.537

End date and time: Sat Feb  5 23:31:10 2022  (Duration: 0-0:01:01.69)
Done!
