
*************** JDFTx 1.6.0 (git hash 42ebbcc2) ***************

Start date and time: Sat Feb  5 23:36:45 2022
Executable jdftx with command-line: -i Alkali.in
Running on hosts (process indices):  d-16-6-4 (0-18)
Divided in process groups (process indices):  0 (0)  1 (1)  2 (2)  3 (3)  4 (4)  5 (5)  6 (6)  7 (7)  8 (8)  9 (9)  10 (10)  11 (11)  12 (12)  13 (13)  14 (14)  15 (15)  16 (16)  17 (17)  18 (18)
Resource initialization completed at t[s]:      0.00
Run totals: 19 processes, 48 threads, 0 GPUs


Input parsed successfully to the following command list (including defaults):

basis kpoint-dependent
coords-type Lattice
core-overlap-check vector
coulomb-interaction Slab 001
davidson-band-ratio 1.1
dump End None
dump-name $INPUT.$VAR
elec-cutoff 20
elec-eigen-algo Davidson
elec-ex-corr gga-PBE
elec-initial-magnetization -0.200000 yes
elec-smearing Fermi 1e-05
electronic-minimize  \
	dirUpdateScheme      FletcherReeves \
	linminMethod         DirUpdateRecommended \
	nIterations          100 \
	history              15 \
	knormThreshold       0 \
	energyDiffThreshold  1e-08 \
	nEnergyDiff          2 \
	alphaTstart          1 \
	alphaTmin            1e-10 \
	updateTestStepSize   yes \
	alphaTreduceFactor   0.1 \
	alphaTincreaseFactor 3 \
	nAlphaAdjustMax      3 \
	wolfeEnergy          0.0001 \
	wolfeGradient        0.9 \
	fdTest               no
electronic-scf  \
	nIterations	10000 \
	energyDiffThreshold	1e-08 \
	residualThreshold	1e-07 \
	mixFraction	0.5 \
	qMetric	0.8 \
	history	10 \
	nEigSteps	2 \
	eigDiffThreshold	1e-08 \
	mixedVariable	Density \
	qKerker	0.8 \
	qKappa	-1 \
	verbose	no \
	mixFractionMag	1.5
exchange-regularization WignerSeitzTruncated
fluid None
fluid-ex-corr (null) lda-PZ
fluid-gummel-loop 10 1.000000e-05
fluid-minimize  \
	dirUpdateScheme      PolakRibiere \
	linminMethod         DirUpdateRecommended \
	nIterations          100 \
	history              15 \
	knormThreshold       0 \
	energyDiffThreshold  0 \
	nEnergyDiff          2 \
	alphaTstart          1 \
	alphaTmin            1e-10 \
	updateTestStepSize   yes \
	alphaTreduceFactor   0.1 \
	alphaTincreaseFactor 3 \
	nAlphaAdjustMax      3 \
	wolfeEnergy          0.0001 \
	wolfeGradient        0.9 \
	fdTest               no
fluid-solvent H2O 55.338 ScalarEOS \
	epsBulk 78.4 \
	pMol 0.92466 \
	epsInf 1.77 \
	Pvap 1.06736e-10 \
	sigmaBulk 4.62e-05 \
	Rvdw 2.61727 \
	Res 1.42 \
	tauNuc 343133 \
	poleEl 15 7 1
forces-output-coords Positions
ion K   0.000000000000000   0.000000000000000   0.000000000000000 0
ion-species SG15/$ID_ONCV_PBE.upf
ion-width 0
ionic-minimize  \
	dirUpdateScheme      L-BFGS \
	linminMethod         DirUpdateRecommended \
	nIterations          0 \
	history              15 \
	knormThreshold       0.0001 \
	energyDiffThreshold  1e-06 \
	nEnergyDiff          2 \
	alphaTstart          1 \
	alphaTmin            1e-10 \
	updateTestStepSize   yes \
	alphaTreduceFactor   0.1 \
	alphaTincreaseFactor 3 \
	nAlphaAdjustMax      3 \
	wolfeEnergy          0.0001 \
	wolfeGradient        0.9 \
	fdTest               no
kpoint   0.000000000000   0.000000000000   0.000000000000  1.00000000000000
kpoint-folding 12 12 1 
latt-move-scale 1 1 1
latt-scale 2 2 1 
lattice  \
	   4.727486978767153   -2.363743489383575    0.000000000000000  \
	  -0.000000000000000    4.094123819672498    0.000000000000000  \
	   0.000000000000000    0.000000000000000   40.000000000000000 
lattice-minimize  \
	dirUpdateScheme      L-BFGS \
	linminMethod         DirUpdateRecommended \
	nIterations          0 \
	history              15 \
	knormThreshold       0 \
	energyDiffThreshold  1e-06 \
	nEnergyDiff          2 \
	alphaTstart          1 \
	alphaTmin            1e-10 \
	updateTestStepSize   yes \
	alphaTreduceFactor   0.1 \
	alphaTincreaseFactor 3 \
	nAlphaAdjustMax      3 \
	wolfeEnergy          0.0001 \
	wolfeGradient        0.9 \
	fdTest               no
lcao-params -1 1e-06 1e-05
pcm-variant GLSSA13
spintype z-spin
subspace-rotation-factor 1 yes
symmetries automatic
symmetry-threshold 0.0001



---------- Setting up symmetries ----------

Found 24 point-group symmetries of the bravais lattice
Found 24 space-group symmetries with basis
Applied RMS atom displacement 0 bohrs to make symmetries exact.

---------- Initializing the Grid ----------
R = 
[      9.45497     -4.72749            0  ]
[            0      8.18825            0  ]
[            0            0           40  ]
unit cell volume = 3096.79
G =
[   0.664538   0.383671         -0  ]
[          0   0.767342         -0  ]
[         -0         -0    0.15708  ]
Minimum fftbox size, Smin = [  40  40  164  ]
Chosen fftbox size, S = [  40  40  168  ]

---------- Exchange Correlation functional ----------
Initalized PBE GGA exchange.
Initalized PBE GGA correlation.

---------- Setting up pseudopotentials ----------
Width of ionic core gaussian charges (only for fluid interactions / plotting) set to 0

Reading pseudopotential file '/home/gridsan/aligho/DFT/build-Nov24/pseudopotentials/SG15/K_ONCV_PBE.upf':
  'K' pseudopotential, 'PBE' functional
  Generated using ONCVPSP code by D. R. Hamann
  Author: Martin Schlipf and Francois Gygi  Date: 150915.
  9 valence electrons, 3 orbitals, 6 projectors, 2222 radial grid points, with lMax = 2
  Transforming local potential to a uniform radial grid of dG=0.02 with 1489 points.
  Transforming nonlocal projectors to a uniform radial grid of dG=0.02 with 432 points.
    3S    l: 0   occupation:  2.0   eigenvalue: -1.298836
    3P    l: 1   occupation:  6.0   eigenvalue: -0.691386
    4S    l: 0   occupation:  1.0   eigenvalue: -0.085223
  Transforming atomic orbitals to a uniform radial grid of dG=0.02 with 432 points.
  Core radius for overlap checks: 2.06 bohrs.
  Reading pulay file /home/gridsan/aligho/DFT/build-Nov24/pseudopotentials/SG15/K_ONCV_PBE.pulay ... using dE_dnG = -1.597219e-05 computed for Ecut = 20.

Initialized 1 species with 1 total atoms.

Folded 1 k-points by 12x12x1 to 144 k-points.

---------- Setting up k-points, bands, fillings ----------
Reduced to 19 k-points under symmetry. 
Computing the number of bands and number of electrons
Calculating initial fillings.
nElectrons:   9.000000   nBands: 6   nStates: 38

----- Setting up reduced wavefunction bases (one per k-point) -----
average nbasis = 13230.521 , ideal nbasis = 13229.709

---------- Setting up coulomb interaction ----------
Initialized slab truncation along lattice direction 001

---------- Setting up 2D ewald sum ----------
Optimum gaussian width for ewald sums = 5.249020 bohr.
Real space sums over 289 unit cells with max indices [  8  8  0  ]
Reciprocal space sums over 81 terms with max indices [  4  4  0  ]

---------- Allocating electronic variables ----------
Initializing wave functions:  linear combination of atomic orbitals
Note: number of bands (6) exceeds available atomic orbitals (5)
K pseudo-atom occupations:   s ( 2 1 )  p ( 6 )
	FillingsUpdate:  mu: -0.094999692  nElectrons: 9.000000  magneticMoment: [ Abs: 0.20000  Tot: -0.20000 ]
LCAOMinimize: Iter:   0  F: -28.3983223660429829  |grad|_K:  4.199e-05  alpha:  1.000e+00
	FillingsUpdate:  mu: -0.094987145  nElectrons: 9.000000  magneticMoment: [ Abs: 0.20000  Tot: -0.20000 ]
LCAOMinimize: Iter:   1  F: -28.3983235454919196  |grad|_K:  4.148e-07  alpha:  9.781e-01  linmin: -3.457e-02  cgtest:  5.926e-01  t[s]:      4.68
LCAOMinimize: Encountered beta<0, resetting CG.
	FillingsUpdate:  mu: -0.094987149  nElectrons: 9.000000  magneticMoment: [ Abs: 0.20000  Tot: -0.20000 ]
LCAOMinimize: Iter:   2  F: -28.3983235456090775  |grad|_K:  2.058e-09  alpha:  9.974e-01  linmin: -5.818e-02  cgtest:  6.073e-01  t[s]:      5.87
LCAOMinimize: Encountered beta<0, resetting CG.
LCAOMinimize: 	Wrong curvature in test step, increasing alphaT to 2.992123e+00.
	FillingsUpdate:  mu: -0.094987150  nElectrons: 9.000000  magneticMoment: [ Abs: 0.20000  Tot: -0.20000 ]
LCAOMinimize: Iter:   3  F: -28.3983235456092444  |grad|_K:  2.444e-11  alpha: -1.802e-02  linmin:  4.695e-02  cgtest: -4.523e-01  t[s]:      7.06
LCAOMinimize: Converged (|Delta F|<1.000000e-06 for 2 iters).


---- Citations for features of the code used in this run ----

   Software package:
      R. Sundararaman, K. Letchworth-Weaver, K.A. Schwarz, D. Gunceler, Y. Ozhabes and T.A. Arias, 'JDFTx: software for joint density-functional theory', SoftwareX 6, 278 (2017)

   gga-PBE exchange-correlation functional:
      J.P. Perdew, K. Burke and M. Ernzerhof, Phys. Rev. Lett. 77, 3865 (1996)

   Pseudopotentials:
      M Schlipf and F Gygi, Comput. Phys. Commun. 196, 36 (2015)

   Truncated Coulomb potentials:
      R. Sundararaman and T.A. Arias, Phys. Rev. B 87, 165122 (2013)

This list may not be complete. Please suggest additional citations or
report any other bugs at https://github.com/shankar1729/jdftx/issues

Initialization completed successfully at t[s]:      7.16


-------- Electronic minimization -----------
Will mix electronic density at each iteration.
	FillingsUpdate:  mu: -0.094987150  nElectrons: 9.000000  magneticMoment: [ Abs: 0.20000  Tot: -0.20000 ]
	FillingsUpdate:  mu: -0.105576731  nElectrons: 9.000000  magneticMoment: [ Abs: 0.20000  Tot: -0.20000 ]
SCF: Cycle:  0   F: -28.403238512594562   dF: -4.915e-03   |Residual|: 8.389e-03   |deigs|: 1.747e-01  t[s]:      9.56
	FillingsUpdate:  mu: -0.105448346  nElectrons: 9.000000  magneticMoment: [ Abs: 0.20000  Tot: -0.20000 ]
SCF: Cycle:  1   F: -28.403353680684379   dF: -1.152e-04   |Residual|: 6.597e-03   |deigs|: 4.951e-03  t[s]:     11.40
	FillingsUpdate:  mu: -0.103757223  nElectrons: 9.000000  magneticMoment: [ Abs: 0.20486  Tot: -0.20000 ]
SCF: Cycle:  2   F: -28.403399938061803   dF: -4.626e-05   |Residual|: 2.978e-03   |deigs|: 4.016e-03  t[s]:     13.23
	FillingsUpdate:  mu: -0.102840717  nElectrons: 9.000000  magneticMoment: [ Abs: 0.20000  Tot: -0.20000 ]
SCF: Cycle:  3   F: -28.403444296921926   dF: -4.436e-05   |Residual|: 1.997e-03   |deigs|: 4.981e-03  t[s]:     15.10
	FillingsUpdate:  mu: -0.101577747  nElectrons: 9.000000  magneticMoment: [ Abs: 0.20011  Tot: -0.20000 ]
SCF: Cycle:  4   F: -28.403466270309718   dF: -2.197e-05   |Residual|: 1.636e-03   |deigs|: 3.906e-03  t[s]:     17.00
	FillingsUpdate:  mu: -0.099719287  nElectrons: 9.000000  magneticMoment: [ Abs: 0.20296  Tot: -0.20000 ]
SCF: Cycle:  5   F: -28.403478138726015   dF: -1.187e-05   |Residual|: 1.254e-03   |deigs|: 3.004e-03  t[s]:     18.90
	FillingsUpdate:  mu: -0.098024081  nElectrons: 9.000000  magneticMoment: [ Abs: 0.20517  Tot: -0.20000 ]
SCF: Cycle:  6   F: -28.403484631553830   dF: -6.493e-06   |Residual|: 9.120e-04   |deigs|: 2.778e-03  t[s]:     20.86
	FillingsUpdate:  mu: -0.097114860  nElectrons: 9.000000  magneticMoment: [ Abs: 0.20329  Tot: -0.20000 ]
SCF: Cycle:  7   F: -28.403504603091584   dF: -1.997e-05   |Residual|: 7.868e-04   |deigs|: 1.443e-03  t[s]:     22.83
	FillingsUpdate:  mu: -0.096706650  nElectrons: 9.000000  magneticMoment: [ Abs: 0.20117  Tot: -0.20000 ]
SCF: Cycle:  8   F: -28.403516574513191   dF: -1.197e-05   |Residual|: 6.240e-04   |deigs|: 5.309e-04  t[s]:     24.83
	FillingsUpdate:  mu: -0.095443807  nElectrons: 9.000000  magneticMoment: [ Abs: 0.20246  Tot: -0.20000 ]
SCF: Cycle:  9   F: -28.403517682528410   dF: -1.108e-06   |Residual|: 5.019e-04   |deigs|: 1.309e-03  t[s]:     26.92
	FillingsUpdate:  mu: -0.094423115  nElectrons: 9.000000  magneticMoment: [ Abs: 0.20287  Tot: -0.20000 ]
SCF: Cycle: 10   F: -28.403515483437822   dF: +2.199e-06   |Residual|: 4.849e-04   |deigs|: 1.310e-03  t[s]:     28.96
	FillingsUpdate:  mu: -0.093192825  nElectrons: 9.000000  magneticMoment: [ Abs: 0.20168  Tot: -0.20000 ]
SCF: Cycle: 11   F: -28.403522267729169   dF: -6.784e-06   |Residual|: 4.457e-04   |deigs|: 1.329e-03  t[s]:     30.99
	FillingsUpdate:  mu: -0.092192154  nElectrons: 9.000000  magneticMoment: [ Abs: 0.20252  Tot: -0.20000 ]
SCF: Cycle: 12   F: -28.403531032112170   dF: -8.764e-06   |Residual|: 3.858e-04   |deigs|: 9.160e-04  t[s]:     33.03
	FillingsUpdate:  mu: -0.091044736  nElectrons: 9.000000  magneticMoment: [ Abs: 0.20267  Tot: -0.20000 ]
SCF: Cycle: 13   F: -28.403535335784788   dF: -4.304e-06   |Residual|: 3.699e-04   |deigs|: 1.200e-03  t[s]:     35.01
	FillingsUpdate:  mu: -0.090186034  nElectrons: 9.000000  magneticMoment: [ Abs: 0.20094  Tot: -0.20000 ]
SCF: Cycle: 14   F: -28.403538432545428   dF: -3.097e-06   |Residual|: 3.173e-04   |deigs|: 9.219e-04  t[s]:     37.09
	FillingsUpdate:  mu: -0.089500163  nElectrons: 9.000000  magneticMoment: [ Abs: 0.20015  Tot: -0.20000 ]
SCF: Cycle: 15   F: -28.403540550876052   dF: -2.118e-06   |Residual|: 2.447e-04   |deigs|: 7.893e-04  t[s]:     39.13
	FillingsUpdate:  mu: -0.089090367  nElectrons: 9.000000  magneticMoment: [ Abs: 0.20068  Tot: -0.20000 ]
SCF: Cycle: 16   F: -28.403541885698914   dF: -1.335e-06   |Residual|: 1.271e-04   |deigs|: 4.727e-04  t[s]:     41.16
	FillingsUpdate:  mu: -0.088923939  nElectrons: 9.000000  magneticMoment: [ Abs: 0.20026  Tot: -0.20000 ]
SCF: Cycle: 17   F: -28.403542214507361   dF: -3.288e-07   |Residual|: 8.285e-05   |deigs|: 3.102e-04  t[s]:     43.15
	FillingsUpdate:  mu: -0.088930825  nElectrons: 9.000000  magneticMoment: [ Abs: 0.20006  Tot: -0.20000 ]
SCF: Cycle: 18   F: -28.403542387175811   dF: -1.727e-07   |Residual|: 5.628e-05   |deigs|: 3.130e-04  t[s]:     45.23
	FillingsUpdate:  mu: -0.088888915  nElectrons: 9.000000  magneticMoment: [ Abs: 0.20018  Tot: -0.20000 ]
SCF: Cycle: 19   F: -28.403542488497663   dF: -1.013e-07   |Residual|: 3.043e-05   |deigs|: 1.959e-04  t[s]:     47.26
	FillingsUpdate:  mu: -0.088875299  nElectrons: 9.000000  magneticMoment: [ Abs: 0.20010  Tot: -0.20000 ]
SCF: Cycle: 20   F: -28.403542539317662   dF: -5.082e-08   |Residual|: 1.370e-05   |deigs|: 1.294e-04  t[s]:     49.26
	FillingsUpdate:  mu: -0.088876974  nElectrons: 9.000000  magneticMoment: [ Abs: 0.20005  Tot: -0.20000 ]
SCF: Cycle: 21   F: -28.403542570663092   dF: -3.135e-08   |Residual|: 6.771e-06   |deigs|: 1.098e-04  t[s]:     51.18
	FillingsUpdate:  mu: -0.088875028  nElectrons: 9.000000  magneticMoment: [ Abs: 0.20004  Tot: -0.20000 ]
SCF: Cycle: 22   F: -28.403542594552434   dF: -2.389e-08   |Residual|: 3.774e-06   |deigs|: 7.189e-05  t[s]:     53.11
	FillingsUpdate:  mu: -0.088872974  nElectrons: 9.000000  magneticMoment: [ Abs: 0.20004  Tot: -0.20000 ]
SCF: Cycle: 23   F: -28.403542607842915   dF: -1.329e-08   |Residual|: 2.471e-06   |deigs|: 5.039e-05  t[s]:     55.04
	FillingsUpdate:  mu: -0.088872432  nElectrons: 9.000000  magneticMoment: [ Abs: 0.20004  Tot: -0.20000 ]
SCF: Cycle: 24   F: -28.403542615499237   dF: -7.656e-09   |Residual|: 1.798e-06   |deigs|: 3.594e-05  t[s]:     56.92
	FillingsUpdate:  mu: -0.088872063  nElectrons: 9.000000  magneticMoment: [ Abs: 0.20003  Tot: -0.20000 ]
SCF: Cycle: 25   F: -28.403542622021661   dF: -6.522e-09   |Residual|: 1.287e-06   |deigs|: 2.467e-05  t[s]:     58.87
SCF: Converged (|Delta E|<1.000000e-08 for 2 iters).


# Ionic positions in lattice coordinates:
ion K   0.000000000000000   0.000000000000000   0.000000000000000 0

# Forces in Lattice coordinates:
force K  -0.000000000000000   0.000000000000000   0.000000000000000 0

# Energy components:
   Eewald =      -18.0480261003326561
       EH =        4.8683178946485022
     Eloc =      -18.0607347394631859
      Enl =       -2.7737968025340889
   Epulay =        0.0000000041876954
      Exc =       -4.2625940269474540
       KE =        9.8732916598797527
-------------------------------------
     Etot =      -28.4035421105614319
       TS =        0.0000005114602277
-------------------------------------
        F =      -28.4035426220216607

IonicMinimize: Iter:   0  F: -28.403542622021661  |grad|_K:  0.000e+00  t[s]:     58.99
IonicMinimize: Converged (|grad|_K<1.000000e-04).

#--- Lowdin population analysis ---
# oxidation-state K +0.042
# magnetic-moments K -0.177

End date and time: Sat Feb  5 23:37:44 2022  (Duration: 0-0:00:59.01)
Done!
