
*************** JDFTx 1.6.0 (git hash 42ebbcc2) ***************

Start date and time: Sat Feb  5 23:36:05 2022
Executable jdftx with command-line: -i Alkali.in
Running on hosts (process indices):  d-3-4-2 (0-18)
Divided in process groups (process indices):  0 (0)  1 (1)  2 (2)  3 (3)  4 (4)  5 (5)  6 (6)  7 (7)  8 (8)  9 (9)  10 (10)  11 (11)  12 (12)  13 (13)  14 (14)  15 (15)  16 (16)  17 (17)  18 (18)
Resource initialization completed at t[s]:      0.00
Run totals: 19 processes, 48 threads, 0 GPUs


Input parsed successfully to the following command list (including defaults):

basis kpoint-dependent
coords-type Lattice
core-overlap-check vector
coulomb-interaction Slab 001
davidson-band-ratio 1.1
dump End None
dump-name $INPUT.$VAR
elec-cutoff 20
elec-eigen-algo Davidson
elec-ex-corr gga-PBE
elec-initial-magnetization -0.540000 yes
elec-smearing Fermi 1e-05
electronic-minimize  \
	dirUpdateScheme      FletcherReeves \
	linminMethod         DirUpdateRecommended \
	nIterations          100 \
	history              15 \
	knormThreshold       0 \
	energyDiffThreshold  1e-08 \
	nEnergyDiff          2 \
	alphaTstart          1 \
	alphaTmin            1e-10 \
	updateTestStepSize   yes \
	alphaTreduceFactor   0.1 \
	alphaTincreaseFactor 3 \
	nAlphaAdjustMax      3 \
	wolfeEnergy          0.0001 \
	wolfeGradient        0.9 \
	fdTest               no
electronic-scf  \
	nIterations	10000 \
	energyDiffThreshold	1e-08 \
	residualThreshold	1e-07 \
	mixFraction	0.5 \
	qMetric	0.8 \
	history	10 \
	nEigSteps	2 \
	eigDiffThreshold	1e-08 \
	mixedVariable	Density \
	qKerker	0.8 \
	qKappa	-1 \
	verbose	no \
	mixFractionMag	1.5
exchange-regularization WignerSeitzTruncated
fluid None
fluid-ex-corr (null) lda-PZ
fluid-gummel-loop 10 1.000000e-05
fluid-minimize  \
	dirUpdateScheme      PolakRibiere \
	linminMethod         DirUpdateRecommended \
	nIterations          100 \
	history              15 \
	knormThreshold       0 \
	energyDiffThreshold  0 \
	nEnergyDiff          2 \
	alphaTstart          1 \
	alphaTmin            1e-10 \
	updateTestStepSize   yes \
	alphaTreduceFactor   0.1 \
	alphaTincreaseFactor 3 \
	nAlphaAdjustMax      3 \
	wolfeEnergy          0.0001 \
	wolfeGradient        0.9 \
	fdTest               no
fluid-solvent H2O 55.338 ScalarEOS \
	epsBulk 78.4 \
	pMol 0.92466 \
	epsInf 1.77 \
	Pvap 1.06736e-10 \
	sigmaBulk 4.62e-05 \
	Rvdw 2.61727 \
	Res 1.42 \
	tauNuc 343133 \
	poleEl 15 7 1
forces-output-coords Positions
ion K   0.000000000000000   0.000000000000000   0.000000000000000 0
ion-species SG15/$ID_ONCV_PBE.upf
ion-width 0
ionic-minimize  \
	dirUpdateScheme      L-BFGS \
	linminMethod         DirUpdateRecommended \
	nIterations          0 \
	history              15 \
	knormThreshold       0.0001 \
	energyDiffThreshold  1e-06 \
	nEnergyDiff          2 \
	alphaTstart          1 \
	alphaTmin            1e-10 \
	updateTestStepSize   yes \
	alphaTreduceFactor   0.1 \
	alphaTincreaseFactor 3 \
	nAlphaAdjustMax      3 \
	wolfeEnergy          0.0001 \
	wolfeGradient        0.9 \
	fdTest               no
kpoint   0.000000000000   0.000000000000   0.000000000000  1.00000000000000
kpoint-folding 12 12 1 
latt-move-scale 1 1 1
latt-scale 2 2 1 
lattice  \
	   4.727486978767153   -2.363743489383575    0.000000000000000  \
	  -0.000000000000000    4.094123819672498    0.000000000000000  \
	   0.000000000000000    0.000000000000000   40.000000000000000 
lattice-minimize  \
	dirUpdateScheme      L-BFGS \
	linminMethod         DirUpdateRecommended \
	nIterations          0 \
	history              15 \
	knormThreshold       0 \
	energyDiffThreshold  1e-06 \
	nEnergyDiff          2 \
	alphaTstart          1 \
	alphaTmin            1e-10 \
	updateTestStepSize   yes \
	alphaTreduceFactor   0.1 \
	alphaTincreaseFactor 3 \
	nAlphaAdjustMax      3 \
	wolfeEnergy          0.0001 \
	wolfeGradient        0.9 \
	fdTest               no
lcao-params -1 1e-06 1e-05
pcm-variant GLSSA13
spintype z-spin
subspace-rotation-factor 1 yes
symmetries automatic
symmetry-threshold 0.0001



---------- Setting up symmetries ----------

Found 24 point-group symmetries of the bravais lattice
Found 24 space-group symmetries with basis
Applied RMS atom displacement 0 bohrs to make symmetries exact.

---------- Initializing the Grid ----------
R = 
[      9.45497     -4.72749            0  ]
[            0      8.18825            0  ]
[            0            0           40  ]
unit cell volume = 3096.79
G =
[   0.664538   0.383671         -0  ]
[          0   0.767342         -0  ]
[         -0         -0    0.15708  ]
Minimum fftbox size, Smin = [  40  40  164  ]
Chosen fftbox size, S = [  40  40  168  ]

---------- Exchange Correlation functional ----------
Initalized PBE GGA exchange.
Initalized PBE GGA correlation.

---------- Setting up pseudopotentials ----------
Width of ionic core gaussian charges (only for fluid interactions / plotting) set to 0

Reading pseudopotential file '/home/gridsan/aligho/DFT/build-Nov24/pseudopotentials/SG15/K_ONCV_PBE.upf':
  'K' pseudopotential, 'PBE' functional
  Generated using ONCVPSP code by D. R. Hamann
  Author: Martin Schlipf and Francois Gygi  Date: 150915.
  9 valence electrons, 3 orbitals, 6 projectors, 2222 radial grid points, with lMax = 2
  Transforming local potential to a uniform radial grid of dG=0.02 with 1489 points.
  Transforming nonlocal projectors to a uniform radial grid of dG=0.02 with 432 points.
    3S    l: 0   occupation:  2.0   eigenvalue: -1.298836
    3P    l: 1   occupation:  6.0   eigenvalue: -0.691386
    4S    l: 0   occupation:  1.0   eigenvalue: -0.085223
  Transforming atomic orbitals to a uniform radial grid of dG=0.02 with 432 points.
  Core radius for overlap checks: 2.06 bohrs.
  Reading pulay file /home/gridsan/aligho/DFT/build-Nov24/pseudopotentials/SG15/K_ONCV_PBE.pulay ... using dE_dnG = -1.597219e-05 computed for Ecut = 20.

Initialized 1 species with 1 total atoms.

Folded 1 k-points by 12x12x1 to 144 k-points.

---------- Setting up k-points, bands, fillings ----------
Reduced to 19 k-points under symmetry. 
Computing the number of bands and number of electrons
Calculating initial fillings.
nElectrons:   9.000000   nBands: 6   nStates: 38

----- Setting up reduced wavefunction bases (one per k-point) -----
average nbasis = 13230.521 , ideal nbasis = 13229.709

---------- Setting up coulomb interaction ----------
Initialized slab truncation along lattice direction 001

---------- Setting up 2D ewald sum ----------
Optimum gaussian width for ewald sums = 5.249020 bohr.
Real space sums over 289 unit cells with max indices [  8  8  0  ]
Reciprocal space sums over 81 terms with max indices [  4  4  0  ]

---------- Allocating electronic variables ----------
Initializing wave functions:  linear combination of atomic orbitals
Note: number of bands (6) exceeds available atomic orbitals (5)
K pseudo-atom occupations:   s ( 2 1 )  p ( 6 )
	FillingsUpdate:  mu: -0.096194590  nElectrons: 9.000000  magneticMoment: [ Abs: 0.54000  Tot: -0.54000 ]
LCAOMinimize: Iter:   0  F: -28.3921459827128260  |grad|_K:  2.905e-05  alpha:  1.000e+00
	FillingsUpdate:  mu: -0.096186369  nElectrons: 9.000000  magneticMoment: [ Abs: 0.54000  Tot: -0.54000 ]
LCAOMinimize: Iter:   1  F: -28.3921465485707039  |grad|_K:  2.531e-07  alpha:  9.804e-01  linmin: -2.884e-02  cgtest:  4.656e-01  t[s]:      4.48
LCAOMinimize: Encountered beta<0, resetting CG.
	FillingsUpdate:  mu: -0.096186402  nElectrons: 9.000000  magneticMoment: [ Abs: 0.54000  Tot: -0.54000 ]
LCAOMinimize: Iter:   2  F: -28.3921465486151803  |grad|_K:  4.479e-09  alpha:  1.019e+00  linmin:  8.475e-02  cgtest: -9.977e-01  t[s]:      5.66
LCAOMinimize: Converged (|Delta F|<1.000000e-06 for 2 iters).


---- Citations for features of the code used in this run ----

   Software package:
      R. Sundararaman, K. Letchworth-Weaver, K.A. Schwarz, D. Gunceler, Y. Ozhabes and T.A. Arias, 'JDFTx: software for joint density-functional theory', SoftwareX 6, 278 (2017)

   gga-PBE exchange-correlation functional:
      J.P. Perdew, K. Burke and M. Ernzerhof, Phys. Rev. Lett. 77, 3865 (1996)

   Pseudopotentials:
      M Schlipf and F Gygi, Comput. Phys. Commun. 196, 36 (2015)

   Truncated Coulomb potentials:
      R. Sundararaman and T.A. Arias, Phys. Rev. B 87, 165122 (2013)

This list may not be complete. Please suggest additional citations or
report any other bugs at https://github.com/shankar1729/jdftx/issues

Initialization completed successfully at t[s]:      5.76


-------- Electronic minimization -----------
Will mix electronic density at each iteration.
	FillingsUpdate:  mu: -0.096186402  nElectrons: 9.000000  magneticMoment: [ Abs: 0.54000  Tot: -0.54000 ]
	FillingsUpdate:  mu: -0.106075424  nElectrons: 9.000000  magneticMoment: [ Abs: 0.54000  Tot: -0.54000 ]
SCF: Cycle:  0   F: -28.399708904118278   dF: -7.562e-03   |Residual|: 1.179e-02   |deigs|: 1.733e-01  t[s]:      8.12
	FillingsUpdate:  mu: -0.106062195  nElectrons: 9.000000  magneticMoment: [ Abs: 0.54000  Tot: -0.54000 ]
SCF: Cycle:  1   F: -28.399974181222092   dF: -2.653e-04   |Residual|: 8.686e-03   |deigs|: 6.325e-03  t[s]:      9.92
	FillingsUpdate:  mu: -0.104802215  nElectrons: 9.000000  magneticMoment: [ Abs: 0.54349  Tot: -0.54000 ]
SCF: Cycle:  2   F: -28.400019331302037   dF: -4.515e-05   |Residual|: 4.955e-03   |deigs|: 3.860e-03  t[s]:     11.75
	FillingsUpdate:  mu: -0.104271037  nElectrons: 9.000000  magneticMoment: [ Abs: 0.54000  Tot: -0.54000 ]
SCF: Cycle:  3   F: -28.400095073683119   dF: -7.574e-05   |Residual|: 3.122e-03   |deigs|: 3.968e-03  t[s]:     13.62
	FillingsUpdate:  mu: -0.102880784  nElectrons: 9.000000  magneticMoment: [ Abs: 0.54002  Tot: -0.54000 ]
SCF: Cycle:  4   F: -28.400147510436675   dF: -5.244e-05   |Residual|: 1.928e-03   |deigs|: 3.543e-03  t[s]:     15.48
	FillingsUpdate:  mu: -0.101468908  nElectrons: 9.000000  magneticMoment: [ Abs: 0.54124  Tot: -0.54000 ]
SCF: Cycle:  5   F: -28.400167327771200   dF: -1.982e-05   |Residual|: 1.556e-03   |deigs|: 4.765e-03  t[s]:     17.41
	FillingsUpdate:  mu: -0.099694038  nElectrons: 9.000000  magneticMoment: [ Abs: 0.54593  Tot: -0.54000 ]
SCF: Cycle:  6   F: -28.400177759103897   dF: -1.043e-05   |Residual|: 1.147e-03   |deigs|: 2.418e-03  t[s]:     19.34
	FillingsUpdate:  mu: -0.097487322  nElectrons: 9.000000  magneticMoment: [ Abs: 0.54723  Tot: -0.54000 ]
SCF: Cycle:  7   F: -28.400191685915665   dF: -1.393e-05   |Residual|: 9.124e-04   |deigs|: 2.813e-03  t[s]:     21.29
	FillingsUpdate:  mu: -0.097130943  nElectrons: 9.000000  magneticMoment: [ Abs: 0.54239  Tot: -0.54000 ]
SCF: Cycle:  8   F: -28.400211085432893   dF: -1.940e-05   |Residual|: 7.506e-04   |deigs|: 5.755e-04  t[s]:     23.27
	FillingsUpdate:  mu: -0.096626415  nElectrons: 9.000000  magneticMoment: [ Abs: 0.54144  Tot: -0.54000 ]
SCF: Cycle:  9   F: -28.400217611144420   dF: -6.526e-06   |Residual|: 6.077e-04   |deigs|: 5.491e-04  t[s]:     25.28
	FillingsUpdate:  mu: -0.095430110  nElectrons: 9.000000  magneticMoment: [ Abs: 0.54389  Tot: -0.54000 ]
SCF: Cycle: 10   F: -28.400217622060172   dF: -1.092e-08   |Residual|: 5.136e-04   |deigs|: 1.551e-03  t[s]:     27.32
	FillingsUpdate:  mu: -0.094191590  nElectrons: 9.000000  magneticMoment: [ Abs: 0.54376  Tot: -0.54000 ]
SCF: Cycle: 11   F: -28.400216168908521   dF: +1.453e-06   |Residual|: 4.798e-04   |deigs|: 1.350e-03  t[s]:     29.34
	FillingsUpdate:  mu: -0.093284536  nElectrons: 9.000000  magneticMoment: [ Abs: 0.54286  Tot: -0.54000 ]
SCF: Cycle: 12   F: -28.400223079387239   dF: -6.910e-06   |Residual|: 4.259e-04   |deigs|: 8.538e-04  t[s]:     31.41
	FillingsUpdate:  mu: -0.092515334  nElectrons: 9.000000  magneticMoment: [ Abs: 0.54402  Tot: -0.54000 ]
SCF: Cycle: 13   F: -28.400229442149495   dF: -6.363e-06   |Residual|: 3.798e-04   |deigs|: 7.432e-04  t[s]:     33.41
	FillingsUpdate:  mu: -0.090846638  nElectrons: 9.000000  magneticMoment: [ Abs: 0.54296  Tot: -0.54000 ]
SCF: Cycle: 14   F: -28.400234378273389   dF: -4.936e-06   |Residual|: 3.432e-04   |deigs|: 1.777e-03  t[s]:     35.41
	FillingsUpdate:  mu: -0.090066299  nElectrons: 9.000000  magneticMoment: [ Abs: 0.54045  Tot: -0.54000 ]
SCF: Cycle: 15   F: -28.400236734686150   dF: -2.356e-06   |Residual|: 3.051e-04   |deigs|: 9.912e-04  t[s]:     37.38
	FillingsUpdate:  mu: -0.089377958  nElectrons: 9.000000  magneticMoment: [ Abs: 0.54125  Tot: -0.54000 ]
SCF: Cycle: 16   F: -28.400238367762157   dF: -1.633e-06   |Residual|: 2.260e-04   |deigs|: 7.782e-04  t[s]:     39.36
	FillingsUpdate:  mu: -0.089038325  nElectrons: 9.000000  magneticMoment: [ Abs: 0.54101  Tot: -0.54000 ]
SCF: Cycle: 17   F: -28.400239180258552   dF: -8.125e-07   |Residual|: 1.373e-04   |deigs|: 3.705e-04  t[s]:     41.33
	FillingsUpdate:  mu: -0.088936693  nElectrons: 9.000000  magneticMoment: [ Abs: 0.54014  Tot: -0.54000 ]
SCF: Cycle: 18   F: -28.400239704323955   dF: -5.241e-07   |Residual|: 8.132e-05   |deigs|: 2.403e-04  t[s]:     43.32
	FillingsUpdate:  mu: -0.088905038  nElectrons: 9.000000  magneticMoment: [ Abs: 0.54024  Tot: -0.54000 ]
SCF: Cycle: 19   F: -28.400239877227818   dF: -1.729e-07   |Residual|: 5.778e-05   |deigs|: 2.137e-04  t[s]:     45.31
	FillingsUpdate:  mu: -0.088886526  nElectrons: 9.000000  magneticMoment: [ Abs: 0.54037  Tot: -0.54000 ]
SCF: Cycle: 20   F: -28.400239973804986   dF: -9.658e-08   |Residual|: 3.275e-05   |deigs|: 1.755e-04  t[s]:     47.30
	FillingsUpdate:  mu: -0.088876896  nElectrons: 9.000000  magneticMoment: [ Abs: 0.54032  Tot: -0.54000 ]
SCF: Cycle: 21   F: -28.400240017639931   dF: -4.383e-08   |Residual|: 2.024e-05   |deigs|: 1.105e-04  t[s]:     49.26
	FillingsUpdate:  mu: -0.088856292  nElectrons: 9.000000  magneticMoment: [ Abs: 0.54023  Tot: -0.54000 ]
SCF: Cycle: 22   F: -28.400240054071766   dF: -3.643e-08   |Residual|: 1.102e-05   |deigs|: 7.111e-05  t[s]:     51.19
	FillingsUpdate:  mu: -0.088852970  nElectrons: 9.000000  magneticMoment: [ Abs: 0.54023  Tot: -0.54000 ]
SCF: Cycle: 23   F: -28.400240071047719   dF: -1.698e-08   |Residual|: 7.776e-06   |deigs|: 5.363e-05  t[s]:     53.04
	FillingsUpdate:  mu: -0.088846281  nElectrons: 9.000000  magneticMoment: [ Abs: 0.54020  Tot: -0.54000 ]
SCF: Cycle: 24   F: -28.400240080944194   dF: -9.896e-09   |Residual|: 6.427e-06   |deigs|: 3.392e-05  t[s]:     55.01
	FillingsUpdate:  mu: -0.088843556  nElectrons: 9.000000  magneticMoment: [ Abs: 0.54016  Tot: -0.54000 ]
SCF: Cycle: 25   F: -28.400240086806686   dF: -5.862e-09   |Residual|: 5.777e-06   |deigs|: 1.738e-05  t[s]:     56.94
SCF: Converged (|Delta E|<1.000000e-08 for 2 iters).


# Ionic positions in lattice coordinates:
ion K   0.000000000000000   0.000000000000000   0.000000000000000 0

# Forces in Lattice coordinates:
force K   0.000000000000000  -0.000000000000000   0.000000000000000 0

# Energy components:
   Eewald =      -18.0480261003326561
       EH =        4.8802180998935114
     Eloc =      -18.0726437461488132
      Enl =       -2.7759148311304394
   Epulay =        0.0000000041876954
      Exc =       -4.2654309415711271
       KE =        9.8815580606649256
-------------------------------------
     Etot =      -28.4002394544369032
       TS =        0.0000006323697840
-------------------------------------
        F =      -28.4002400868066864

IonicMinimize: Iter:   0  F: -28.400240086806686  |grad|_K:  0.000e+00  t[s]:     57.06
IonicMinimize: Converged (|grad|_K<1.000000e-04).

#--- Lowdin population analysis ---
# oxidation-state K +0.086
# magnetic-moments K -0.461

End date and time: Sat Feb  5 23:37:02 2022  (Duration: 0-0:00:57.08)
Done!
