
*************** JDFTx 1.6.0 (git hash 42ebbcc2) ***************

Start date and time: Sat Feb  5 23:48:21 2022
Executable jdftx with command-line: -i Alkali.in
Running on hosts (process indices):  d-5-12-1 (0-18)
Divided in process groups (process indices):  0 (0)  1 (1)  2 (2)  3 (3)  4 (4)  5 (5)  6 (6)  7 (7)  8 (8)  9 (9)  10 (10)  11 (11)  12 (12)  13 (13)  14 (14)  15 (15)  16 (16)  17 (17)  18 (18)
Resource initialization completed at t[s]:      0.00
Run totals: 19 processes, 48 threads, 0 GPUs


Input parsed successfully to the following command list (including defaults):

basis kpoint-dependent
coords-type Lattice
core-overlap-check vector
coulomb-interaction Slab 001
davidson-band-ratio 1.1
dump End None
dump-name $INPUT.$VAR
elec-cutoff 20
elec-eigen-algo Davidson
elec-ex-corr gga-PBE
elec-initial-magnetization 0.480000 yes
elec-smearing Fermi 1e-05
electronic-minimize  \
	dirUpdateScheme      FletcherReeves \
	linminMethod         DirUpdateRecommended \
	nIterations          100 \
	history              15 \
	knormThreshold       0 \
	energyDiffThreshold  1e-08 \
	nEnergyDiff          2 \
	alphaTstart          1 \
	alphaTmin            1e-10 \
	updateTestStepSize   yes \
	alphaTreduceFactor   0.1 \
	alphaTincreaseFactor 3 \
	nAlphaAdjustMax      3 \
	wolfeEnergy          0.0001 \
	wolfeGradient        0.9 \
	fdTest               no
electronic-scf  \
	nIterations	10000 \
	energyDiffThreshold	1e-08 \
	residualThreshold	1e-07 \
	mixFraction	0.5 \
	qMetric	0.8 \
	history	10 \
	nEigSteps	2 \
	eigDiffThreshold	1e-08 \
	mixedVariable	Density \
	qKerker	0.8 \
	qKappa	-1 \
	verbose	no \
	mixFractionMag	1.5
exchange-regularization WignerSeitzTruncated
fluid None
fluid-ex-corr (null) lda-PZ
fluid-gummel-loop 10 1.000000e-05
fluid-minimize  \
	dirUpdateScheme      PolakRibiere \
	linminMethod         DirUpdateRecommended \
	nIterations          100 \
	history              15 \
	knormThreshold       0 \
	energyDiffThreshold  0 \
	nEnergyDiff          2 \
	alphaTstart          1 \
	alphaTmin            1e-10 \
	updateTestStepSize   yes \
	alphaTreduceFactor   0.1 \
	alphaTincreaseFactor 3 \
	nAlphaAdjustMax      3 \
	wolfeEnergy          0.0001 \
	wolfeGradient        0.9 \
	fdTest               no
fluid-solvent H2O 55.338 ScalarEOS \
	epsBulk 78.4 \
	pMol 0.92466 \
	epsInf 1.77 \
	Pvap 1.06736e-10 \
	sigmaBulk 4.62e-05 \
	Rvdw 2.61727 \
	Res 1.42 \
	tauNuc 343133 \
	poleEl 15 7 1
forces-output-coords Positions
ion K   0.000000000000000   0.000000000000000   0.000000000000000 0
ion-species SG15/$ID_ONCV_PBE.upf
ion-width 0
ionic-minimize  \
	dirUpdateScheme      L-BFGS \
	linminMethod         DirUpdateRecommended \
	nIterations          0 \
	history              15 \
	knormThreshold       0.0001 \
	energyDiffThreshold  1e-06 \
	nEnergyDiff          2 \
	alphaTstart          1 \
	alphaTmin            1e-10 \
	updateTestStepSize   yes \
	alphaTreduceFactor   0.1 \
	alphaTincreaseFactor 3 \
	nAlphaAdjustMax      3 \
	wolfeEnergy          0.0001 \
	wolfeGradient        0.9 \
	fdTest               no
kpoint   0.000000000000   0.000000000000   0.000000000000  1.00000000000000
kpoint-folding 12 12 1 
latt-move-scale 1 1 1
latt-scale 2 2 1 
lattice  \
	   4.727486978767153   -2.363743489383575    0.000000000000000  \
	  -0.000000000000000    4.094123819672498    0.000000000000000  \
	   0.000000000000000    0.000000000000000   40.000000000000000 
lattice-minimize  \
	dirUpdateScheme      L-BFGS \
	linminMethod         DirUpdateRecommended \
	nIterations          0 \
	history              15 \
	knormThreshold       0 \
	energyDiffThreshold  1e-06 \
	nEnergyDiff          2 \
	alphaTstart          1 \
	alphaTmin            1e-10 \
	updateTestStepSize   yes \
	alphaTreduceFactor   0.1 \
	alphaTincreaseFactor 3 \
	nAlphaAdjustMax      3 \
	wolfeEnergy          0.0001 \
	wolfeGradient        0.9 \
	fdTest               no
lcao-params -1 1e-06 1e-05
pcm-variant GLSSA13
spintype z-spin
subspace-rotation-factor 1 yes
symmetries automatic
symmetry-threshold 0.0001



---------- Setting up symmetries ----------

Found 24 point-group symmetries of the bravais lattice
Found 24 space-group symmetries with basis
Applied RMS atom displacement 0 bohrs to make symmetries exact.

---------- Initializing the Grid ----------
R = 
[      9.45497     -4.72749            0  ]
[            0      8.18825            0  ]
[            0            0           40  ]
unit cell volume = 3096.79
G =
[   0.664538   0.383671         -0  ]
[          0   0.767342         -0  ]
[         -0         -0    0.15708  ]
Minimum fftbox size, Smin = [  40  40  164  ]
Chosen fftbox size, S = [  40  40  168  ]

---------- Exchange Correlation functional ----------
Initalized PBE GGA exchange.
Initalized PBE GGA correlation.

---------- Setting up pseudopotentials ----------
Width of ionic core gaussian charges (only for fluid interactions / plotting) set to 0

Reading pseudopotential file '/home/gridsan/aligho/DFT/build-Nov24/pseudopotentials/SG15/K_ONCV_PBE.upf':
  'K' pseudopotential, 'PBE' functional
  Generated using ONCVPSP code by D. R. Hamann
  Author: Martin Schlipf and Francois Gygi  Date: 150915.
  9 valence electrons, 3 orbitals, 6 projectors, 2222 radial grid points, with lMax = 2
  Transforming local potential to a uniform radial grid of dG=0.02 with 1489 points.
  Transforming nonlocal projectors to a uniform radial grid of dG=0.02 with 432 points.
    3S    l: 0   occupation:  2.0   eigenvalue: -1.298836
    3P    l: 1   occupation:  6.0   eigenvalue: -0.691386
    4S    l: 0   occupation:  1.0   eigenvalue: -0.085223
  Transforming atomic orbitals to a uniform radial grid of dG=0.02 with 432 points.
  Core radius for overlap checks: 2.06 bohrs.
  Reading pulay file /home/gridsan/aligho/DFT/build-Nov24/pseudopotentials/SG15/K_ONCV_PBE.pulay ... using dE_dnG = -1.597219e-05 computed for Ecut = 20.

Initialized 1 species with 1 total atoms.

Folded 1 k-points by 12x12x1 to 144 k-points.

---------- Setting up k-points, bands, fillings ----------
Reduced to 19 k-points under symmetry. 
Computing the number of bands and number of electrons
Calculating initial fillings.
nElectrons:   9.000000   nBands: 6   nStates: 38

----- Setting up reduced wavefunction bases (one per k-point) -----
average nbasis = 13230.521 , ideal nbasis = 13229.709

---------- Setting up coulomb interaction ----------
Initialized slab truncation along lattice direction 001

---------- Setting up 2D ewald sum ----------
Optimum gaussian width for ewald sums = 5.249020 bohr.
Real space sums over 289 unit cells with max indices [  8  8  0  ]
Reciprocal space sums over 81 terms with max indices [  4  4  0  ]

---------- Allocating electronic variables ----------
Initializing wave functions:  linear combination of atomic orbitals
Note: number of bands (6) exceeds available atomic orbitals (5)
K pseudo-atom occupations:   s ( 2 1 )  p ( 6 )
	FillingsUpdate:  mu: -0.094571686  nElectrons: 9.000000  magneticMoment: [ Abs: 0.48000  Tot: +0.48000 ]
LCAOMinimize: Iter:   0  F: -28.3935078459599062  |grad|_K:  3.296e-05  alpha:  1.000e+00
	FillingsUpdate:  mu: -0.094562270  nElectrons: 9.000000  magneticMoment: [ Abs: 0.48000  Tot: +0.48000 ]
LCAOMinimize: Iter:   1  F: -28.3935085751598315  |grad|_K:  3.251e-07  alpha:  9.814e-01  linmin: -2.682e-02  cgtest:  4.439e-01  t[s]:      4.58
LCAOMinimize: Encountered beta<0, resetting CG.
	FillingsUpdate:  mu: -0.094562304  nElectrons: 9.000000  magneticMoment: [ Abs: 0.48000  Tot: +0.48000 ]
LCAOMinimize: Iter:   2  F: -28.3935085752326941  |grad|_K:  1.502e-09  alpha:  1.006e+00  linmin:  1.131e-01  cgtest: -9.343e-01  t[s]:      5.79
LCAOMinimize: Converged (|Delta F|<1.000000e-06 for 2 iters).


---- Citations for features of the code used in this run ----

   Software package:
      R. Sundararaman, K. Letchworth-Weaver, K.A. Schwarz, D. Gunceler, Y. Ozhabes and T.A. Arias, 'JDFTx: software for joint density-functional theory', SoftwareX 6, 278 (2017)

   gga-PBE exchange-correlation functional:
      J.P. Perdew, K. Burke and M. Ernzerhof, Phys. Rev. Lett. 77, 3865 (1996)

   Pseudopotentials:
      M Schlipf and F Gygi, Comput. Phys. Commun. 196, 36 (2015)

   Truncated Coulomb potentials:
      R. Sundararaman and T.A. Arias, Phys. Rev. B 87, 165122 (2013)

This list may not be complete. Please suggest additional citations or
report any other bugs at https://github.com/shankar1729/jdftx/issues

Initialization completed successfully at t[s]:      5.89


-------- Electronic minimization -----------
Will mix electronic density at each iteration.
	FillingsUpdate:  mu: -0.094562304  nElectrons: 9.000000  magneticMoment: [ Abs: 0.48000  Tot: +0.48000 ]
	FillingsUpdate:  mu: -0.105984586  nElectrons: 9.000000  magneticMoment: [ Abs: 0.48000  Tot: +0.48000 ]
SCF: Cycle:  0   F: -28.400523050275755   dF: -7.014e-03   |Residual|: 1.107e-02   |deigs|: 1.736e-01  t[s]:      8.31
	FillingsUpdate:  mu: -0.105739600  nElectrons: 9.000000  magneticMoment: [ Abs: 0.48000  Tot: +0.48000 ]
SCF: Cycle:  1   F: -28.400758902564089   dF: -2.359e-04   |Residual|: 8.205e-03   |deigs|: 7.145e-03  t[s]:     10.16
	FillingsUpdate:  mu: -0.104441862  nElectrons: 9.000000  magneticMoment: [ Abs: 0.48369  Tot: +0.48000 ]
SCF: Cycle:  2   F: -28.400801648363803   dF: -4.275e-05   |Residual|: 4.546e-03   |deigs|: 3.655e-03  t[s]:     12.10
	FillingsUpdate:  mu: -0.103883526  nElectrons: 9.000000  magneticMoment: [ Abs: 0.48000  Tot: +0.48000 ]
SCF: Cycle:  3   F: -28.400875516269672   dF: -7.387e-05   |Residual|: 2.900e-03   |deigs|: 3.537e-03  t[s]:     14.12
	FillingsUpdate:  mu: -0.102515365  nElectrons: 9.000000  magneticMoment: [ Abs: 0.48001  Tot: +0.48000 ]
SCF: Cycle:  4   F: -28.400915894757489   dF: -4.038e-05   |Residual|: 1.850e-03   |deigs|: 3.227e-03  t[s]:     16.07
	FillingsUpdate:  mu: -0.101154758  nElectrons: 9.000000  magneticMoment: [ Abs: 0.48095  Tot: +0.48000 ]
SCF: Cycle:  5   F: -28.400935024571879   dF: -1.913e-05   |Residual|: 1.549e-03   |deigs|: 1.928e-03  t[s]:     18.01
	FillingsUpdate:  mu: -0.099335684  nElectrons: 9.000000  magneticMoment: [ Abs: 0.48592  Tot: +0.48000 ]
SCF: Cycle:  6   F: -28.400944911194905   dF: -9.887e-06   |Residual|: 1.098e-03   |deigs|: 2.989e-03  t[s]:     20.09
	FillingsUpdate:  mu: -0.097372009  nElectrons: 9.000000  magneticMoment: [ Abs: 0.48689  Tot: +0.48000 ]
SCF: Cycle:  7   F: -28.400959732108618   dF: -1.482e-05   |Residual|: 9.020e-04   |deigs|: 3.383e-03  t[s]:     22.12
	FillingsUpdate:  mu: -0.096930584  nElectrons: 9.000000  magneticMoment: [ Abs: 0.48203  Tot: +0.48000 ]
SCF: Cycle:  8   F: -28.400977401588136   dF: -1.767e-05   |Residual|: 7.307e-04   |deigs|: 9.675e-04  t[s]:     24.14
	FillingsUpdate:  mu: -0.096164696  nElectrons: 9.000000  magneticMoment: [ Abs: 0.48219  Tot: +0.48000 ]
SCF: Cycle:  9   F: -28.400983111505486   dF: -5.710e-06   |Residual|: 5.708e-04   |deigs|: 8.731e-04  t[s]:     26.17
	FillingsUpdate:  mu: -0.095054023  nElectrons: 9.000000  magneticMoment: [ Abs: 0.48399  Tot: +0.48000 ]
SCF: Cycle: 10   F: -28.400985591089785   dF: -2.480e-06   |Residual|: 5.033e-04   |deigs|: 1.180e-03  t[s]:     28.33
	FillingsUpdate:  mu: -0.093904978  nElectrons: 9.000000  magneticMoment: [ Abs: 0.48328  Tot: +0.48000 ]
SCF: Cycle: 11   F: -28.400986538070963   dF: -9.470e-07   |Residual|: 4.707e-04   |deigs|: 1.166e-03  t[s]:     30.42
	FillingsUpdate:  mu: -0.092859948  nElectrons: 9.000000  magneticMoment: [ Abs: 0.48324  Tot: +0.48000 ]
SCF: Cycle: 12   F: -28.400995266338228   dF: -8.728e-06   |Residual|: 4.174e-04   |deigs|: 9.507e-04  t[s]:     32.53
	FillingsUpdate:  mu: -0.091999749  nElectrons: 9.000000  magneticMoment: [ Abs: 0.48404  Tot: +0.48000 ]
SCF: Cycle: 13   F: -28.401001145898558   dF: -5.880e-06   |Residual|: 3.896e-04   |deigs|: 8.584e-04  t[s]:     34.58
	FillingsUpdate:  mu: -0.090501517  nElectrons: 9.000000  magneticMoment: [ Abs: 0.48263  Tot: +0.48000 ]
SCF: Cycle: 14   F: -28.401005948105706   dF: -4.802e-06   |Residual|: 3.362e-04   |deigs|: 1.638e-03  t[s]:     36.66
	FillingsUpdate:  mu: -0.089846174  nElectrons: 9.000000  magneticMoment: [ Abs: 0.48047  Tot: +0.48000 ]
SCF: Cycle: 15   F: -28.401008151749920   dF: -2.204e-06   |Residual|: 2.912e-04   |deigs|: 7.380e-04  t[s]:     38.65
	FillingsUpdate:  mu: -0.089288461  nElectrons: 9.000000  magneticMoment: [ Abs: 0.48122  Tot: +0.48000 ]
SCF: Cycle: 16   F: -28.401009662840352   dF: -1.511e-06   |Residual|: 1.949e-04   |deigs|: 7.871e-04  t[s]:     40.69
	FillingsUpdate:  mu: -0.088968772  nElectrons: 9.000000  magneticMoment: [ Abs: 0.48084  Tot: +0.48000 ]
SCF: Cycle: 17   F: -28.401010392156671   dF: -7.293e-07   |Residual|: 1.311e-04   |deigs|: 4.269e-04  t[s]:     42.73
	FillingsUpdate:  mu: -0.088847413  nElectrons: 9.000000  magneticMoment: [ Abs: 0.48017  Tot: +0.48000 ]
SCF: Cycle: 18   F: -28.401010871632028   dF: -4.795e-07   |Residual|: 6.789e-05   |deigs|: 2.436e-04  t[s]:     44.82
	FillingsUpdate:  mu: -0.088847487  nElectrons: 9.000000  magneticMoment: [ Abs: 0.48030  Tot: +0.48000 ]
SCF: Cycle: 19   F: -28.401011042891405   dF: -1.713e-07   |Residual|: 4.978e-05   |deigs|: 3.301e-04  t[s]:     46.83
	FillingsUpdate:  mu: -0.088836130  nElectrons: 9.000000  magneticMoment: [ Abs: 0.48026  Tot: +0.48000 ]
SCF: Cycle: 20   F: -28.401011133591986   dF: -9.070e-08   |Residual|: 2.785e-05   |deigs|: 1.343e-04  t[s]:     48.94
	FillingsUpdate:  mu: -0.088822946  nElectrons: 9.000000  magneticMoment: [ Abs: 0.48021  Tot: +0.48000 ]
SCF: Cycle: 21   F: -28.401011182063574   dF: -4.847e-08   |Residual|: 1.296e-05   |deigs|: 1.220e-04  t[s]:     51.03
	FillingsUpdate:  mu: -0.088816527  nElectrons: 9.000000  magneticMoment: [ Abs: 0.48020  Tot: +0.48000 ]
SCF: Cycle: 22   F: -28.401011213476579   dF: -3.141e-08   |Residual|: 8.553e-06   |deigs|: 1.692e-04  t[s]:     53.05
	FillingsUpdate:  mu: -0.088817097  nElectrons: 9.000000  magneticMoment: [ Abs: 0.48018  Tot: +0.48000 ]
SCF: Cycle: 23   F: -28.401011233078037   dF: -1.960e-08   |Residual|: 5.496e-06   |deigs|: 1.982e-04  t[s]:     55.03
	FillingsUpdate:  mu: -0.088821601  nElectrons: 9.000000  magneticMoment: [ Abs: 0.48017  Tot: +0.48000 ]
SCF: Cycle: 24   F: -28.401011242750783   dF: -9.673e-09   |Residual|: 5.242e-06   |deigs|: 1.825e-04  t[s]:     56.95
	FillingsUpdate:  mu: -0.088826254  nElectrons: 9.000000  magneticMoment: [ Abs: 0.48013  Tot: +0.48000 ]
SCF: Cycle: 25   F: -28.401011250709654   dF: -7.959e-09   |Residual|: 5.110e-06   |deigs|: 1.364e-04  t[s]:     58.98
SCF: Converged (|Delta E|<1.000000e-08 for 2 iters).


# Ionic positions in lattice coordinates:
ion K   0.000000000000000   0.000000000000000   0.000000000000000 0

# Forces in Lattice coordinates:
force K  -0.000000000000000   0.000000000000000   0.000000000000000 0

# Energy components:
   Eewald =      -18.0480261003326561
       EH =        4.8773188362094615
     Eloc =      -18.0697419841035085
      Enl =       -2.7754148463872790
   Epulay =        0.0000000041876954
      Exc =       -4.2647504286093580
       KE =        9.8796037983904839
-------------------------------------
     Etot =      -28.4010107206451607
       TS =        0.0000005300644922
-------------------------------------
        F =      -28.4010112507096544

IonicMinimize: Iter:   0  F: -28.401011250709654  |grad|_K:  0.000e+00  t[s]:     59.10
IonicMinimize: Converged (|grad|_K<1.000000e-04).

#--- Lowdin population analysis ---
# oxidation-state K +0.076
# magnetic-moments K +0.412

End date and time: Sat Feb  5 23:49:21 2022  (Duration: 0-0:00:59.13)
Done!
