
*************** JDFTx 1.6.0 (git hash 42ebbcc2) ***************

Start date and time: Sat Feb  5 23:37:22 2022
Executable jdftx with command-line: -i Alkali.in
Running on hosts (process indices):  d-4-6-1 (0-18)
Divided in process groups (process indices):  0 (0)  1 (1)  2 (2)  3 (3)  4 (4)  5 (5)  6 (6)  7 (7)  8 (8)  9 (9)  10 (10)  11 (11)  12 (12)  13 (13)  14 (14)  15 (15)  16 (16)  17 (17)  18 (18)
Resource initialization completed at t[s]:      0.00
Run totals: 19 processes, 48 threads, 0 GPUs


Input parsed successfully to the following command list (including defaults):

basis kpoint-dependent
coords-type Lattice
core-overlap-check vector
coulomb-interaction Slab 001
davidson-band-ratio 1.1
dump End None
dump-name $INPUT.$VAR
elec-cutoff 20
elec-eigen-algo Davidson
elec-ex-corr gga-PBE
elec-initial-magnetization -0.140000 yes
elec-smearing Fermi 1e-05
electronic-minimize  \
	dirUpdateScheme      FletcherReeves \
	linminMethod         DirUpdateRecommended \
	nIterations          100 \
	history              15 \
	knormThreshold       0 \
	energyDiffThreshold  1e-08 \
	nEnergyDiff          2 \
	alphaTstart          1 \
	alphaTmin            1e-10 \
	updateTestStepSize   yes \
	alphaTreduceFactor   0.1 \
	alphaTincreaseFactor 3 \
	nAlphaAdjustMax      3 \
	wolfeEnergy          0.0001 \
	wolfeGradient        0.9 \
	fdTest               no
electronic-scf  \
	nIterations	10000 \
	energyDiffThreshold	1e-08 \
	residualThreshold	1e-07 \
	mixFraction	0.5 \
	qMetric	0.8 \
	history	10 \
	nEigSteps	2 \
	eigDiffThreshold	1e-08 \
	mixedVariable	Density \
	qKerker	0.8 \
	qKappa	-1 \
	verbose	no \
	mixFractionMag	1.5
exchange-regularization WignerSeitzTruncated
fluid None
fluid-ex-corr (null) lda-PZ
fluid-gummel-loop 10 1.000000e-05
fluid-minimize  \
	dirUpdateScheme      PolakRibiere \
	linminMethod         DirUpdateRecommended \
	nIterations          100 \
	history              15 \
	knormThreshold       0 \
	energyDiffThreshold  0 \
	nEnergyDiff          2 \
	alphaTstart          1 \
	alphaTmin            1e-10 \
	updateTestStepSize   yes \
	alphaTreduceFactor   0.1 \
	alphaTincreaseFactor 3 \
	nAlphaAdjustMax      3 \
	wolfeEnergy          0.0001 \
	wolfeGradient        0.9 \
	fdTest               no
fluid-solvent H2O 55.338 ScalarEOS \
	epsBulk 78.4 \
	pMol 0.92466 \
	epsInf 1.77 \
	Pvap 1.06736e-10 \
	sigmaBulk 4.62e-05 \
	Rvdw 2.61727 \
	Res 1.42 \
	tauNuc 343133 \
	poleEl 15 7 1
forces-output-coords Positions
ion K   0.000000000000000   0.000000000000000   0.000000000000000 0
ion-species SG15/$ID_ONCV_PBE.upf
ion-width 0
ionic-minimize  \
	dirUpdateScheme      L-BFGS \
	linminMethod         DirUpdateRecommended \
	nIterations          0 \
	history              15 \
	knormThreshold       0.0001 \
	energyDiffThreshold  1e-06 \
	nEnergyDiff          2 \
	alphaTstart          1 \
	alphaTmin            1e-10 \
	updateTestStepSize   yes \
	alphaTreduceFactor   0.1 \
	alphaTincreaseFactor 3 \
	nAlphaAdjustMax      3 \
	wolfeEnergy          0.0001 \
	wolfeGradient        0.9 \
	fdTest               no
kpoint   0.000000000000   0.000000000000   0.000000000000  1.00000000000000
kpoint-folding 12 12 1 
latt-move-scale 1 1 1
latt-scale 2 2 1 
lattice  \
	   4.727486978767153   -2.363743489383575    0.000000000000000  \
	  -0.000000000000000    4.094123819672498    0.000000000000000  \
	   0.000000000000000    0.000000000000000   40.000000000000000 
lattice-minimize  \
	dirUpdateScheme      L-BFGS \
	linminMethod         DirUpdateRecommended \
	nIterations          0 \
	history              15 \
	knormThreshold       0 \
	energyDiffThreshold  1e-06 \
	nEnergyDiff          2 \
	alphaTstart          1 \
	alphaTmin            1e-10 \
	updateTestStepSize   yes \
	alphaTreduceFactor   0.1 \
	alphaTincreaseFactor 3 \
	nAlphaAdjustMax      3 \
	wolfeEnergy          0.0001 \
	wolfeGradient        0.9 \
	fdTest               no
lcao-params -1 1e-06 1e-05
pcm-variant GLSSA13
spintype z-spin
subspace-rotation-factor 1 yes
symmetries automatic
symmetry-threshold 0.0001



---------- Setting up symmetries ----------

Found 24 point-group symmetries of the bravais lattice
Found 24 space-group symmetries with basis
Applied RMS atom displacement 0 bohrs to make symmetries exact.

---------- Initializing the Grid ----------
R = 
[      9.45497     -4.72749            0  ]
[            0      8.18825            0  ]
[            0            0           40  ]
unit cell volume = 3096.79
G =
[   0.664538   0.383671         -0  ]
[          0   0.767342         -0  ]
[         -0         -0    0.15708  ]
Minimum fftbox size, Smin = [  40  40  164  ]
Chosen fftbox size, S = [  40  40  168  ]

---------- Exchange Correlation functional ----------
Initalized PBE GGA exchange.
Initalized PBE GGA correlation.

---------- Setting up pseudopotentials ----------
Width of ionic core gaussian charges (only for fluid interactions / plotting) set to 0

Reading pseudopotential file '/home/gridsan/aligho/DFT/build-Nov24/pseudopotentials/SG15/K_ONCV_PBE.upf':
  'K' pseudopotential, 'PBE' functional
  Generated using ONCVPSP code by D. R. Hamann
  Author: Martin Schlipf and Francois Gygi  Date: 150915.
  9 valence electrons, 3 orbitals, 6 projectors, 2222 radial grid points, with lMax = 2
  Transforming local potential to a uniform radial grid of dG=0.02 with 1489 points.
  Transforming nonlocal projectors to a uniform radial grid of dG=0.02 with 432 points.
    3S    l: 0   occupation:  2.0   eigenvalue: -1.298836
    3P    l: 1   occupation:  6.0   eigenvalue: -0.691386
    4S    l: 0   occupation:  1.0   eigenvalue: -0.085223
  Transforming atomic orbitals to a uniform radial grid of dG=0.02 with 432 points.
  Core radius for overlap checks: 2.06 bohrs.
  Reading pulay file /home/gridsan/aligho/DFT/build-Nov24/pseudopotentials/SG15/K_ONCV_PBE.pulay ... using dE_dnG = -1.597219e-05 computed for Ecut = 20.

Initialized 1 species with 1 total atoms.

Folded 1 k-points by 12x12x1 to 144 k-points.

---------- Setting up k-points, bands, fillings ----------
Reduced to 19 k-points under symmetry. 
Computing the number of bands and number of electrons
Calculating initial fillings.
nElectrons:   9.000000   nBands: 6   nStates: 38

----- Setting up reduced wavefunction bases (one per k-point) -----
average nbasis = 13230.521 , ideal nbasis = 13229.709

---------- Setting up coulomb interaction ----------
Initialized slab truncation along lattice direction 001

---------- Setting up 2D ewald sum ----------
Optimum gaussian width for ewald sums = 5.249020 bohr.
Real space sums over 289 unit cells with max indices [  8  8  0  ]
Reciprocal space sums over 81 terms with max indices [  4  4  0  ]

---------- Allocating electronic variables ----------
Initializing wave functions:  linear combination of atomic orbitals
Note: number of bands (6) exceeds available atomic orbitals (5)
K pseudo-atom occupations:   s ( 2 1 )  p ( 6 )
	FillingsUpdate:  mu: -0.096274230  nElectrons: 9.000000  magneticMoment: [ Abs: 0.14000  Tot: -0.14000 ]
LCAOMinimize: Iter:   0  F: -28.3987107911673569  |grad|_K:  4.278e-05  alpha:  1.000e+00
	FillingsUpdate:  mu: -0.096261834  nElectrons: 9.000000  magneticMoment: [ Abs: 0.14000  Tot: -0.14000 ]
LCAOMinimize: Iter:   1  F: -28.3987120148352865  |grad|_K:  4.253e-07  alpha:  9.779e-01  linmin: -3.584e-02  cgtest:  6.020e-01  t[s]:      4.65
LCAOMinimize: Encountered beta<0, resetting CG.
	FillingsUpdate:  mu: -0.096261843  nElectrons: 9.000000  magneticMoment: [ Abs: 0.14000  Tot: -0.14000 ]
LCAOMinimize: Iter:   2  F: -28.3987120149593189  |grad|_K:  1.917e-09  alpha:  1.002e+00  linmin:  4.299e-02  cgtest: -3.601e-01  t[s]:      5.86
LCAOMinimize: 	Wrong curvature in test step, increasing alphaT to 3.005585e+00.
	FillingsUpdate:  mu: -0.096261843  nElectrons: 9.000000  magneticMoment: [ Abs: 0.14000  Tot: -0.14000 ]
LCAOMinimize: Iter:   3  F: -28.3987120149595675  |grad|_K:  6.923e-10  alpha: -8.941e-03  linmin:  2.882e-03  cgtest:  3.091e-01  t[s]:      7.04
LCAOMinimize: Converged (|Delta F|<1.000000e-06 for 2 iters).


---- Citations for features of the code used in this run ----

   Software package:
      R. Sundararaman, K. Letchworth-Weaver, K.A. Schwarz, D. Gunceler, Y. Ozhabes and T.A. Arias, 'JDFTx: software for joint density-functional theory', SoftwareX 6, 278 (2017)

   gga-PBE exchange-correlation functional:
      J.P. Perdew, K. Burke and M. Ernzerhof, Phys. Rev. Lett. 77, 3865 (1996)

   Pseudopotentials:
      M Schlipf and F Gygi, Comput. Phys. Commun. 196, 36 (2015)

   Truncated Coulomb potentials:
      R. Sundararaman and T.A. Arias, Phys. Rev. B 87, 165122 (2013)

This list may not be complete. Please suggest additional citations or
report any other bugs at https://github.com/shankar1729/jdftx/issues

Initialization completed successfully at t[s]:      7.14


-------- Electronic minimization -----------
Will mix electronic density at each iteration.
	FillingsUpdate:  mu: -0.096261843  nElectrons: 9.000000  magneticMoment: [ Abs: 0.14000  Tot: -0.14000 ]
	FillingsUpdate:  mu: -0.106587404  nElectrons: 9.000000  magneticMoment: [ Abs: 0.14000  Tot: -0.14000 ]
SCF: Cycle:  0   F: -28.403445256346341   dF: -4.733e-03   |Residual|: 8.117e-03   |deigs|: 1.748e-01  t[s]:      9.57
	FillingsUpdate:  mu: -0.106374049  nElectrons: 9.000000  magneticMoment: [ Abs: 0.14000  Tot: -0.14000 ]
SCF: Cycle:  1   F: -28.403548526780330   dF: -1.033e-04   |Residual|: 6.454e-03   |deigs|: 4.891e-03  t[s]:     11.43
	FillingsUpdate:  mu: -0.104438310  nElectrons: 9.000000  magneticMoment: [ Abs: 0.14504  Tot: -0.14000 ]
SCF: Cycle:  2   F: -28.403594770266924   dF: -4.624e-05   |Residual|: 2.681e-03   |deigs|: 4.208e-03  t[s]:     13.33
	FillingsUpdate:  mu: -0.103581331  nElectrons: 9.000000  magneticMoment: [ Abs: 0.14002  Tot: -0.14000 ]
SCF: Cycle:  3   F: -28.403636597961125   dF: -4.183e-05   |Residual|: 1.906e-03   |deigs|: 4.242e-03  t[s]:     15.26
	FillingsUpdate:  mu: -0.102321482  nElectrons: 9.000000  magneticMoment: [ Abs: 0.14020  Tot: -0.14000 ]
SCF: Cycle:  4   F: -28.403657464290262   dF: -2.087e-05   |Residual|: 1.587e-03   |deigs|: 4.250e-03  t[s]:     17.22
	FillingsUpdate:  mu: -0.100305914  nElectrons: 9.000000  magneticMoment: [ Abs: 0.14285  Tot: -0.14000 ]
SCF: Cycle:  5   F: -28.403668159248479   dF: -1.069e-05   |Residual|: 1.179e-03   |deigs|: 3.488e-03  t[s]:     19.23
	FillingsUpdate:  mu: -0.098745324  nElectrons: 9.000000  magneticMoment: [ Abs: 0.14387  Tot: -0.14000 ]
SCF: Cycle:  6   F: -28.403678388384112   dF: -1.023e-05   |Residual|: 8.996e-04   |deigs|: 2.466e-03  t[s]:     21.18
	FillingsUpdate:  mu: -0.098101510  nElectrons: 9.000000  magneticMoment: [ Abs: 0.14210  Tot: -0.14000 ]
SCF: Cycle:  7   F: -28.403697004906633   dF: -1.862e-05   |Residual|: 7.612e-04   |deigs|: 1.418e-03  t[s]:     23.36
	FillingsUpdate:  mu: -0.097505872  nElectrons: 9.000000  magneticMoment: [ Abs: 0.14110  Tot: -0.14000 ]
SCF: Cycle:  8   F: -28.403708776192477   dF: -1.177e-05   |Residual|: 6.023e-04   |deigs|: 6.315e-04  t[s]:     25.49
	FillingsUpdate:  mu: -0.096264629  nElectrons: 9.000000  magneticMoment: [ Abs: 0.14188  Tot: -0.14000 ]
SCF: Cycle:  9   F: -28.403706641911750   dF: +2.134e-06   |Residual|: 5.039e-04   |deigs|: 1.285e-03  t[s]:     27.55
	FillingsUpdate:  mu: -0.095200801  nElectrons: 9.000000  magneticMoment: [ Abs: 0.14210  Tot: -0.14000 ]
SCF: Cycle: 10   F: -28.403705086091296   dF: +1.556e-06   |Residual|: 4.887e-04   |deigs|: 1.117e-03  t[s]:     29.66
	FillingsUpdate:  mu: -0.094041865  nElectrons: 9.000000  magneticMoment: [ Abs: 0.14113  Tot: -0.14000 ]
SCF: Cycle: 11   F: -28.403713371391945   dF: -8.285e-06   |Residual|: 4.365e-04   |deigs|: 1.205e-03  t[s]:     31.77
	FillingsUpdate:  mu: -0.093094324  nElectrons: 9.000000  magneticMoment: [ Abs: 0.14177  Tot: -0.14000 ]
SCF: Cycle: 12   F: -28.403721154031054   dF: -7.783e-06   |Residual|: 3.884e-04   |deigs|: 9.164e-04  t[s]:     33.85
	FillingsUpdate:  mu: -0.091992502  nElectrons: 9.000000  magneticMoment: [ Abs: 0.14197  Tot: -0.14000 ]
SCF: Cycle: 13   F: -28.403725351052422   dF: -4.197e-06   |Residual|: 3.683e-04   |deigs|: 1.167e-03  t[s]:     35.86
	FillingsUpdate:  mu: -0.091020866  nElectrons: 9.000000  magneticMoment: [ Abs: 0.14073  Tot: -0.14000 ]
SCF: Cycle: 14   F: -28.403728438311497   dF: -3.087e-06   |Residual|: 3.145e-04   |deigs|: 1.053e-03  t[s]:     37.95
	FillingsUpdate:  mu: -0.090488273  nElectrons: 9.000000  magneticMoment: [ Abs: 0.14020  Tot: -0.14000 ]
SCF: Cycle: 15   F: -28.403730169534779   dF: -1.731e-06   |Residual|: 2.495e-04   |deigs|: 5.985e-04  t[s]:     40.04
	FillingsUpdate:  mu: -0.090140444  nElectrons: 9.000000  magneticMoment: [ Abs: 0.14055  Tot: -0.14000 ]
SCF: Cycle: 16   F: -28.403731484839820   dF: -1.315e-06   |Residual|: 1.199e-04   |deigs|: 3.841e-04  t[s]:     42.20
	FillingsUpdate:  mu: -0.089923296  nElectrons: 9.000000  magneticMoment: [ Abs: 0.14019  Tot: -0.14000 ]
SCF: Cycle: 17   F: -28.403731820299445   dF: -3.355e-07   |Residual|: 8.022e-05   |deigs|: 2.953e-04  t[s]:     44.21
	FillingsUpdate:  mu: -0.089934321  nElectrons: 9.000000  magneticMoment: [ Abs: 0.14003  Tot: -0.14000 ]
SCF: Cycle: 18   F: -28.403731970256693   dF: -1.500e-07   |Residual|: 4.977e-05   |deigs|: 3.361e-04  t[s]:     46.40
	FillingsUpdate:  mu: -0.089886294  nElectrons: 9.000000  magneticMoment: [ Abs: 0.14011  Tot: -0.14000 ]
SCF: Cycle: 19   F: -28.403732061054036   dF: -9.080e-08   |Residual|: 2.825e-05   |deigs|: 2.152e-04  t[s]:     48.52
	FillingsUpdate:  mu: -0.089863723  nElectrons: 9.000000  magneticMoment: [ Abs: 0.14005  Tot: -0.14000 ]
SCF: Cycle: 20   F: -28.403732104784861   dF: -4.373e-08   |Residual|: 1.266e-05   |deigs|: 1.169e-04  t[s]:     50.56
	FillingsUpdate:  mu: -0.089870636  nElectrons: 9.000000  magneticMoment: [ Abs: 0.14003  Tot: -0.14000 ]
SCF: Cycle: 21   F: -28.403732131886073   dF: -2.710e-08   |Residual|: 6.061e-06   |deigs|: 8.971e-05  t[s]:     52.54
	FillingsUpdate:  mu: -0.089872517  nElectrons: 9.000000  magneticMoment: [ Abs: 0.14002  Tot: -0.14000 ]
SCF: Cycle: 22   F: -28.403732155455625   dF: -2.357e-08   |Residual|: 3.580e-06   |deigs|: 6.091e-05  t[s]:     54.50
	FillingsUpdate:  mu: -0.089873438  nElectrons: 9.000000  magneticMoment: [ Abs: 0.14002  Tot: -0.14000 ]
SCF: Cycle: 23   F: -28.403732171257477   dF: -1.580e-08   |Residual|: 1.996e-06   |deigs|: 4.620e-05  t[s]:     56.44
	FillingsUpdate:  mu: -0.089872150  nElectrons: 9.000000  magneticMoment: [ Abs: 0.14002  Tot: -0.14000 ]
SCF: Cycle: 24   F: -28.403732179665003   dF: -8.408e-09   |Residual|: 1.442e-06   |deigs|: 3.347e-05  t[s]:     58.40
	FillingsUpdate:  mu: -0.089871091  nElectrons: 9.000000  magneticMoment: [ Abs: 0.14002  Tot: -0.14000 ]
SCF: Cycle: 25   F: -28.403732184637171   dF: -4.972e-09   |Residual|: 1.135e-06   |deigs|: 2.313e-05  t[s]:     60.38
SCF: Converged (|Delta E|<1.000000e-08 for 2 iters).


# Ionic positions in lattice coordinates:
ion K   0.000000000000000   0.000000000000000   0.000000000000000 0

# Forces in Lattice coordinates:
force K  -0.000000000000000   0.000000000000000   0.000000000000000 0

# Energy components:
   Eewald =      -18.0480261003326561
       EH =        4.8673601988473196
     Eloc =      -18.0597785996978430
      Enl =       -2.7736644459197475
   Epulay =        0.0000000041876954
      Exc =       -4.2623693464024788
       KE =        9.8727467925501919
-------------------------------------
     Etot =      -28.4037314967675165
       TS =        0.0000006878696540
-------------------------------------
        F =      -28.4037321846371711

IonicMinimize: Iter:   0  F: -28.403732184637171  |grad|_K:  0.000e+00  t[s]:     60.50
IonicMinimize: Converged (|grad|_K<1.000000e-04).

#--- Lowdin population analysis ---
# oxidation-state K +0.039
# magnetic-moments K -0.124

End date and time: Sat Feb  5 23:38:22 2022  (Duration: 0-0:01:00.53)
Done!
