
*************** JDFTx 1.6.0 (git hash 42ebbcc2) ***************

Start date and time: Sat Feb  5 23:36:44 2022
Executable jdftx with command-line: -i Alkali.in
Running on hosts (process indices):  d-6-4-1 (0-18)
Divided in process groups (process indices):  0 (0)  1 (1)  2 (2)  3 (3)  4 (4)  5 (5)  6 (6)  7 (7)  8 (8)  9 (9)  10 (10)  11 (11)  12 (12)  13 (13)  14 (14)  15 (15)  16 (16)  17 (17)  18 (18)
Resource initialization completed at t[s]:      0.00
Run totals: 19 processes, 48 threads, 0 GPUs


Input parsed successfully to the following command list (including defaults):

basis kpoint-dependent
coords-type Lattice
core-overlap-check vector
coulomb-interaction Slab 001
davidson-band-ratio 1.1
dump End None
dump-name $INPUT.$VAR
elec-cutoff 20
elec-eigen-algo Davidson
elec-ex-corr gga-PBE
elec-initial-magnetization -0.440000 yes
elec-smearing Fermi 1e-05
electronic-minimize  \
	dirUpdateScheme      FletcherReeves \
	linminMethod         DirUpdateRecommended \
	nIterations          100 \
	history              15 \
	knormThreshold       0 \
	energyDiffThreshold  1e-08 \
	nEnergyDiff          2 \
	alphaTstart          1 \
	alphaTmin            1e-10 \
	updateTestStepSize   yes \
	alphaTreduceFactor   0.1 \
	alphaTincreaseFactor 3 \
	nAlphaAdjustMax      3 \
	wolfeEnergy          0.0001 \
	wolfeGradient        0.9 \
	fdTest               no
electronic-scf  \
	nIterations	10000 \
	energyDiffThreshold	1e-08 \
	residualThreshold	1e-07 \
	mixFraction	0.5 \
	qMetric	0.8 \
	history	10 \
	nEigSteps	2 \
	eigDiffThreshold	1e-08 \
	mixedVariable	Density \
	qKerker	0.8 \
	qKappa	-1 \
	verbose	no \
	mixFractionMag	1.5
exchange-regularization WignerSeitzTruncated
fluid None
fluid-ex-corr (null) lda-PZ
fluid-gummel-loop 10 1.000000e-05
fluid-minimize  \
	dirUpdateScheme      PolakRibiere \
	linminMethod         DirUpdateRecommended \
	nIterations          100 \
	history              15 \
	knormThreshold       0 \
	energyDiffThreshold  0 \
	nEnergyDiff          2 \
	alphaTstart          1 \
	alphaTmin            1e-10 \
	updateTestStepSize   yes \
	alphaTreduceFactor   0.1 \
	alphaTincreaseFactor 3 \
	nAlphaAdjustMax      3 \
	wolfeEnergy          0.0001 \
	wolfeGradient        0.9 \
	fdTest               no
fluid-solvent H2O 55.338 ScalarEOS \
	epsBulk 78.4 \
	pMol 0.92466 \
	epsInf 1.77 \
	Pvap 1.06736e-10 \
	sigmaBulk 4.62e-05 \
	Rvdw 2.61727 \
	Res 1.42 \
	tauNuc 343133 \
	poleEl 15 7 1
forces-output-coords Positions
ion K   0.000000000000000   0.000000000000000   0.000000000000000 0
ion-species SG15/$ID_ONCV_PBE.upf
ion-width 0
ionic-minimize  \
	dirUpdateScheme      L-BFGS \
	linminMethod         DirUpdateRecommended \
	nIterations          0 \
	history              15 \
	knormThreshold       0.0001 \
	energyDiffThreshold  1e-06 \
	nEnergyDiff          2 \
	alphaTstart          1 \
	alphaTmin            1e-10 \
	updateTestStepSize   yes \
	alphaTreduceFactor   0.1 \
	alphaTincreaseFactor 3 \
	nAlphaAdjustMax      3 \
	wolfeEnergy          0.0001 \
	wolfeGradient        0.9 \
	fdTest               no
kpoint   0.000000000000   0.000000000000   0.000000000000  1.00000000000000
kpoint-folding 12 12 1 
latt-move-scale 1 1 1
latt-scale 2 2 1 
lattice  \
	   4.727486978767153   -2.363743489383575    0.000000000000000  \
	  -0.000000000000000    4.094123819672498    0.000000000000000  \
	   0.000000000000000    0.000000000000000   40.000000000000000 
lattice-minimize  \
	dirUpdateScheme      L-BFGS \
	linminMethod         DirUpdateRecommended \
	nIterations          0 \
	history              15 \
	knormThreshold       0 \
	energyDiffThreshold  1e-06 \
	nEnergyDiff          2 \
	alphaTstart          1 \
	alphaTmin            1e-10 \
	updateTestStepSize   yes \
	alphaTreduceFactor   0.1 \
	alphaTincreaseFactor 3 \
	nAlphaAdjustMax      3 \
	wolfeEnergy          0.0001 \
	wolfeGradient        0.9 \
	fdTest               no
lcao-params -1 1e-06 1e-05
pcm-variant GLSSA13
spintype z-spin
subspace-rotation-factor 1 yes
symmetries automatic
symmetry-threshold 0.0001



---------- Setting up symmetries ----------

Found 24 point-group symmetries of the bravais lattice
Found 24 space-group symmetries with basis
Applied RMS atom displacement 0 bohrs to make symmetries exact.

---------- Initializing the Grid ----------
R = 
[      9.45497     -4.72749            0  ]
[            0      8.18825            0  ]
[            0            0           40  ]
unit cell volume = 3096.79
G =
[   0.664538   0.383671         -0  ]
[          0   0.767342         -0  ]
[         -0         -0    0.15708  ]
Minimum fftbox size, Smin = [  40  40  164  ]
Chosen fftbox size, S = [  40  40  168  ]

---------- Exchange Correlation functional ----------
Initalized PBE GGA exchange.
Initalized PBE GGA correlation.

---------- Setting up pseudopotentials ----------
Width of ionic core gaussian charges (only for fluid interactions / plotting) set to 0

Reading pseudopotential file '/home/gridsan/aligho/DFT/build-Nov24/pseudopotentials/SG15/K_ONCV_PBE.upf':
  'K' pseudopotential, 'PBE' functional
  Generated using ONCVPSP code by D. R. Hamann
  Author: Martin Schlipf and Francois Gygi  Date: 150915.
  9 valence electrons, 3 orbitals, 6 projectors, 2222 radial grid points, with lMax = 2
  Transforming local potential to a uniform radial grid of dG=0.02 with 1489 points.
  Transforming nonlocal projectors to a uniform radial grid of dG=0.02 with 432 points.
    3S    l: 0   occupation:  2.0   eigenvalue: -1.298836
    3P    l: 1   occupation:  6.0   eigenvalue: -0.691386
    4S    l: 0   occupation:  1.0   eigenvalue: -0.085223
  Transforming atomic orbitals to a uniform radial grid of dG=0.02 with 432 points.
  Core radius for overlap checks: 2.06 bohrs.
  Reading pulay file /home/gridsan/aligho/DFT/build-Nov24/pseudopotentials/SG15/K_ONCV_PBE.pulay ... using dE_dnG = -1.597219e-05 computed for Ecut = 20.

Initialized 1 species with 1 total atoms.

Folded 1 k-points by 12x12x1 to 144 k-points.

---------- Setting up k-points, bands, fillings ----------
Reduced to 19 k-points under symmetry. 
Computing the number of bands and number of electrons
Calculating initial fillings.
nElectrons:   9.000000   nBands: 6   nStates: 38

----- Setting up reduced wavefunction bases (one per k-point) -----
average nbasis = 13230.521 , ideal nbasis = 13229.709

---------- Setting up coulomb interaction ----------
Initialized slab truncation along lattice direction 001

---------- Setting up 2D ewald sum ----------
Optimum gaussian width for ewald sums = 5.249020 bohr.
Real space sums over 289 unit cells with max indices [  8  8  0  ]
Reciprocal space sums over 81 terms with max indices [  4  4  0  ]

---------- Allocating electronic variables ----------
Initializing wave functions:  linear combination of atomic orbitals
Note: number of bands (6) exceeds available atomic orbitals (5)
K pseudo-atom occupations:   s ( 2 1 )  p ( 6 )
	FillingsUpdate:  mu: -0.094719336  nElectrons: 9.000000  magneticMoment: [ Abs: 0.44000  Tot: -0.44000 ]
LCAOMinimize: Iter:   0  F: -28.3942604856870773  |grad|_K:  3.327e-05  alpha:  1.000e+00
	FillingsUpdate:  mu: -0.094709502  nElectrons: 9.000000  magneticMoment: [ Abs: 0.44000  Tot: -0.44000 ]
LCAOMinimize: Iter:   1  F: -28.3942612271233550  |grad|_K:  2.941e-07  alpha:  9.792e-01  linmin: -3.338e-02  cgtest:  5.300e-01  t[s]:      4.47
LCAOMinimize: Encountered beta<0, resetting CG.
	FillingsUpdate:  mu: -0.094709523  nElectrons: 9.000000  magneticMoment: [ Abs: 0.44000  Tot: -0.44000 ]
LCAOMinimize: Iter:   2  F: -28.3942612271829304  |grad|_K:  5.444e-09  alpha:  1.019e+00  linmin:  8.424e-02  cgtest: -9.862e-01  t[s]:      5.63
LCAOMinimize: Converged (|Delta F|<1.000000e-06 for 2 iters).


---- Citations for features of the code used in this run ----

   Software package:
      R. Sundararaman, K. Letchworth-Weaver, K.A. Schwarz, D. Gunceler, Y. Ozhabes and T.A. Arias, 'JDFTx: software for joint density-functional theory', SoftwareX 6, 278 (2017)

   gga-PBE exchange-correlation functional:
      J.P. Perdew, K. Burke and M. Ernzerhof, Phys. Rev. Lett. 77, 3865 (1996)

   Pseudopotentials:
      M Schlipf and F Gygi, Comput. Phys. Commun. 196, 36 (2015)

   Truncated Coulomb potentials:
      R. Sundararaman and T.A. Arias, Phys. Rev. B 87, 165122 (2013)

This list may not be complete. Please suggest additional citations or
report any other bugs at https://github.com/shankar1729/jdftx/issues

Initialization completed successfully at t[s]:      5.72


-------- Electronic minimization -----------
Will mix electronic density at each iteration.
	FillingsUpdate:  mu: -0.094709523  nElectrons: 9.000000  magneticMoment: [ Abs: 0.44000  Tot: -0.44000 ]
	FillingsUpdate:  mu: -0.106174967  nElectrons: 9.000000  magneticMoment: [ Abs: 0.44000  Tot: -0.44000 ]
SCF: Cycle:  0   F: -28.400940494620066   dF: -6.679e-03   |Residual|: 1.058e-02   |deigs|: 1.740e-01  t[s]:      8.14
	FillingsUpdate:  mu: -0.105901524  nElectrons: 9.000000  magneticMoment: [ Abs: 0.44000  Tot: -0.44000 ]
SCF: Cycle:  1   F: -28.401148027186959   dF: -2.075e-04   |Residual|: 7.907e-03   |deigs|: 5.665e-03  t[s]:      9.93
	FillingsUpdate:  mu: -0.104614747  nElectrons: 9.000000  magneticMoment: [ Abs: 0.44378  Tot: -0.44000 ]
SCF: Cycle:  2   F: -28.401189899080372   dF: -4.187e-05   |Residual|: 4.361e-03   |deigs|: 3.896e-03  t[s]:     11.76
	FillingsUpdate:  mu: -0.103988405  nElectrons: 9.000000  magneticMoment: [ Abs: 0.44000  Tot: -0.44000 ]
SCF: Cycle:  3   F: -28.401257956637380   dF: -6.806e-05   |Residual|: 2.794e-03   |deigs|: 3.342e-03  t[s]:     13.65
	FillingsUpdate:  mu: -0.102593685  nElectrons: 9.000000  magneticMoment: [ Abs: 0.44003  Tot: -0.44000 ]
SCF: Cycle:  4   F: -28.401295411553946   dF: -3.745e-05   |Residual|: 1.831e-03   |deigs|: 3.360e-03  t[s]:     15.52
	FillingsUpdate:  mu: -0.101271511  nElectrons: 9.000000  magneticMoment: [ Abs: 0.44110  Tot: -0.44000 ]
SCF: Cycle:  5   F: -28.401314421924788   dF: -1.901e-05   |Residual|: 1.479e-03   |deigs|: 4.049e-03  t[s]:     17.43
	FillingsUpdate:  mu: -0.099392957  nElectrons: 9.000000  magneticMoment: [ Abs: 0.44617  Tot: -0.44000 ]
SCF: Cycle:  6   F: -28.401323425370595   dF: -9.003e-06   |Residual|: 1.063e-03   |deigs|: 3.021e-03  t[s]:     19.41
	FillingsUpdate:  mu: -0.097535392  nElectrons: 9.000000  magneticMoment: [ Abs: 0.44686  Tot: -0.44000 ]
SCF: Cycle:  7   F: -28.401336611991148   dF: -1.319e-05   |Residual|: 8.943e-04   |deigs|: 2.901e-03  t[s]:     21.34
	FillingsUpdate:  mu: -0.097176680  nElectrons: 9.000000  magneticMoment: [ Abs: 0.44206  Tot: -0.44000 ]
SCF: Cycle:  8   F: -28.401353341310607   dF: -1.673e-05   |Residual|: 7.235e-04   |deigs|: 4.834e-04  t[s]:     23.43
	FillingsUpdate:  mu: -0.096325234  nElectrons: 9.000000  magneticMoment: [ Abs: 0.44222  Tot: -0.44000 ]
SCF: Cycle:  9   F: -28.401357561629371   dF: -4.220e-06   |Residual|: 5.631e-04   |deigs|: 8.793e-04  t[s]:     25.40
	FillingsUpdate:  mu: -0.095208940  nElectrons: 9.000000  magneticMoment: [ Abs: 0.44400  Tot: -0.44000 ]
SCF: Cycle: 10   F: -28.401359965253771   dF: -2.404e-06   |Residual|: 4.997e-04   |deigs|: 1.305e-03  t[s]:     27.44
	FillingsUpdate:  mu: -0.094102345  nElectrons: 9.000000  magneticMoment: [ Abs: 0.44323  Tot: -0.44000 ]
SCF: Cycle: 11   F: -28.401360539861521   dF: -5.746e-07   |Residual|: 4.717e-04   |deigs|: 1.244e-03  t[s]:     29.49
	FillingsUpdate:  mu: -0.093013231  nElectrons: 9.000000  magneticMoment: [ Abs: 0.44333  Tot: -0.44000 ]
SCF: Cycle: 12   F: -28.401369674722805   dF: -9.135e-06   |Residual|: 4.090e-04   |deigs|: 9.844e-04  t[s]:     31.47
	FillingsUpdate:  mu: -0.092047835  nElectrons: 9.000000  magneticMoment: [ Abs: 0.44435  Tot: -0.44000 ]
SCF: Cycle: 13   F: -28.401375101537106   dF: -5.427e-06   |Residual|: 3.852e-04   |deigs|: 1.005e-03  t[s]:     33.34
	FillingsUpdate:  mu: -0.090802613  nElectrons: 9.000000  magneticMoment: [ Abs: 0.44248  Tot: -0.44000 ]
SCF: Cycle: 14   F: -28.401379394639211   dF: -4.293e-06   |Residual|: 3.342e-04   |deigs|: 1.346e-03  t[s]:     35.34
	FillingsUpdate:  mu: -0.089956489  nElectrons: 9.000000  magneticMoment: [ Abs: 0.44029  Tot: -0.44000 ]
SCF: Cycle: 15   F: -28.401382058532949   dF: -2.664e-06   |Residual|: 2.764e-04   |deigs|: 8.940e-04  t[s]:     37.40
	FillingsUpdate:  mu: -0.089442940  nElectrons: 9.000000  magneticMoment: [ Abs: 0.44098  Tot: -0.44000 ]
SCF: Cycle: 16   F: -28.401383403973433   dF: -1.345e-06   |Residual|: 1.902e-04   |deigs|: 6.034e-04  t[s]:     39.39
	FillingsUpdate:  mu: -0.089172533  nElectrons: 9.000000  magneticMoment: [ Abs: 0.44080  Tot: -0.44000 ]
SCF: Cycle: 17   F: -28.401384034617415   dF: -6.306e-07   |Residual|: 1.246e-04   |deigs|: 4.353e-04  t[s]:     41.40
	FillingsUpdate:  mu: -0.089101959  nElectrons: 9.000000  magneticMoment: [ Abs: 0.44005  Tot: -0.44000 ]
SCF: Cycle: 18   F: -28.401384474208356   dF: -4.396e-07   |Residual|: 6.477e-05   |deigs|: 2.755e-04  t[s]:     43.38
	FillingsUpdate:  mu: -0.089098127  nElectrons: 9.000000  magneticMoment: [ Abs: 0.44020  Tot: -0.44000 ]
SCF: Cycle: 19   F: -28.401384610559973   dF: -1.364e-07   |Residual|: 4.621e-05   |deigs|: 1.978e-04  t[s]:     45.28
	FillingsUpdate:  mu: -0.089085414  nElectrons: 9.000000  magneticMoment: [ Abs: 0.44021  Tot: -0.44000 ]
SCF: Cycle: 20   F: -28.401384705885665   dF: -9.533e-08   |Residual|: 2.710e-05   |deigs|: 1.483e-04  t[s]:     47.28
	FillingsUpdate:  mu: -0.089064599  nElectrons: 9.000000  magneticMoment: [ Abs: 0.44016  Tot: -0.44000 ]
SCF: Cycle: 21   F: -28.401384748618284   dF: -4.273e-08   |Residual|: 1.195e-05   |deigs|: 9.422e-05  t[s]:     49.34
	FillingsUpdate:  mu: -0.089053699  nElectrons: 9.000000  magneticMoment: [ Abs: 0.44016  Tot: -0.44000 ]
SCF: Cycle: 22   F: -28.401384773389481   dF: -2.477e-08   |Residual|: 7.224e-06   |deigs|: 6.455e-05  t[s]:     51.28
	FillingsUpdate:  mu: -0.089044359  nElectrons: 9.000000  magneticMoment: [ Abs: 0.44016  Tot: -0.44000 ]
SCF: Cycle: 23   F: -28.401384787147258   dF: -1.376e-08   |Residual|: 5.158e-06   |deigs|: 4.406e-05  t[s]:     53.20
	FillingsUpdate:  mu: -0.089041885  nElectrons: 9.000000  magneticMoment: [ Abs: 0.44015  Tot: -0.44000 ]
SCF: Cycle: 24   F: -28.401384794913945   dF: -7.767e-09   |Residual|: 4.191e-06   |deigs|: 2.831e-05  t[s]:     55.08
	FillingsUpdate:  mu: -0.089037285  nElectrons: 9.000000  magneticMoment: [ Abs: 0.44010  Tot: -0.44000 ]
SCF: Cycle: 25   F: -28.401384800175094   dF: -5.261e-09   |Residual|: 4.086e-06   |deigs|: 2.641e-05  t[s]:     57.02
SCF: Converged (|Delta E|<1.000000e-08 for 2 iters).


# Ionic positions in lattice coordinates:
ion K   0.000000000000000   0.000000000000000   0.000000000000000 0

# Forces in Lattice coordinates:
force K   0.000000000000000   0.000000000000000   0.000000000000000 0

# Energy components:
   Eewald =      -18.0480261003326561
       EH =        4.8755915530022751
     Eloc =      -18.0680215800622150
      Enl =       -2.7751360616539182
   Epulay =        0.0000000041876954
      Exc =       -4.2643431179682354
       KE =        9.8785513613476823
-------------------------------------
     Etot =      -28.4013839414793736
       TS =        0.0000008586957218
-------------------------------------
        F =      -28.4013848001750944

IonicMinimize: Iter:   0  F: -28.401384800175094  |grad|_K:  0.000e+00  t[s]:     57.13
IonicMinimize: Converged (|grad|_K<1.000000e-04).

#--- Lowdin population analysis ---
# oxidation-state K +0.070
# magnetic-moments K -0.379

End date and time: Sat Feb  5 23:37:41 2022  (Duration: 0-0:00:57.15)
Done!
