
*************** JDFTx 1.6.0 (git hash 42ebbcc2) ***************

Start date and time: Sat Feb  5 23:36:45 2022
Executable jdftx with command-line: -i Alkali.in
Running on hosts (process indices):  d-16-1-2 (0-18)
Divided in process groups (process indices):  0 (0)  1 (1)  2 (2)  3 (3)  4 (4)  5 (5)  6 (6)  7 (7)  8 (8)  9 (9)  10 (10)  11 (11)  12 (12)  13 (13)  14 (14)  15 (15)  16 (16)  17 (17)  18 (18)
Resource initialization completed at t[s]:      0.00
Run totals: 19 processes, 48 threads, 0 GPUs


Input parsed successfully to the following command list (including defaults):

basis kpoint-dependent
coords-type Lattice
core-overlap-check vector
coulomb-interaction Slab 001
davidson-band-ratio 1.1
dump End None
dump-name $INPUT.$VAR
elec-cutoff 20
elec-eigen-algo Davidson
elec-ex-corr gga-PBE
elec-initial-magnetization -0.340000 yes
elec-smearing Fermi 1e-05
electronic-minimize  \
	dirUpdateScheme      FletcherReeves \
	linminMethod         DirUpdateRecommended \
	nIterations          100 \
	history              15 \
	knormThreshold       0 \
	energyDiffThreshold  1e-08 \
	nEnergyDiff          2 \
	alphaTstart          1 \
	alphaTmin            1e-10 \
	updateTestStepSize   yes \
	alphaTreduceFactor   0.1 \
	alphaTincreaseFactor 3 \
	nAlphaAdjustMax      3 \
	wolfeEnergy          0.0001 \
	wolfeGradient        0.9 \
	fdTest               no
electronic-scf  \
	nIterations	10000 \
	energyDiffThreshold	1e-08 \
	residualThreshold	1e-07 \
	mixFraction	0.5 \
	qMetric	0.8 \
	history	10 \
	nEigSteps	2 \
	eigDiffThreshold	1e-08 \
	mixedVariable	Density \
	qKerker	0.8 \
	qKappa	-1 \
	verbose	no \
	mixFractionMag	1.5
exchange-regularization WignerSeitzTruncated
fluid None
fluid-ex-corr (null) lda-PZ
fluid-gummel-loop 10 1.000000e-05
fluid-minimize  \
	dirUpdateScheme      PolakRibiere \
	linminMethod         DirUpdateRecommended \
	nIterations          100 \
	history              15 \
	knormThreshold       0 \
	energyDiffThreshold  0 \
	nEnergyDiff          2 \
	alphaTstart          1 \
	alphaTmin            1e-10 \
	updateTestStepSize   yes \
	alphaTreduceFactor   0.1 \
	alphaTincreaseFactor 3 \
	nAlphaAdjustMax      3 \
	wolfeEnergy          0.0001 \
	wolfeGradient        0.9 \
	fdTest               no
fluid-solvent H2O 55.338 ScalarEOS \
	epsBulk 78.4 \
	pMol 0.92466 \
	epsInf 1.77 \
	Pvap 1.06736e-10 \
	sigmaBulk 4.62e-05 \
	Rvdw 2.61727 \
	Res 1.42 \
	tauNuc 343133 \
	poleEl 15 7 1
forces-output-coords Positions
ion K   0.000000000000000   0.000000000000000   0.000000000000000 0
ion-species SG15/$ID_ONCV_PBE.upf
ion-width 0
ionic-minimize  \
	dirUpdateScheme      L-BFGS \
	linminMethod         DirUpdateRecommended \
	nIterations          0 \
	history              15 \
	knormThreshold       0.0001 \
	energyDiffThreshold  1e-06 \
	nEnergyDiff          2 \
	alphaTstart          1 \
	alphaTmin            1e-10 \
	updateTestStepSize   yes \
	alphaTreduceFactor   0.1 \
	alphaTincreaseFactor 3 \
	nAlphaAdjustMax      3 \
	wolfeEnergy          0.0001 \
	wolfeGradient        0.9 \
	fdTest               no
kpoint   0.000000000000   0.000000000000   0.000000000000  1.00000000000000
kpoint-folding 12 12 1 
latt-move-scale 1 1 1
latt-scale 2 2 1 
lattice  \
	   4.727486978767153   -2.363743489383575    0.000000000000000  \
	  -0.000000000000000    4.094123819672498    0.000000000000000  \
	   0.000000000000000    0.000000000000000   40.000000000000000 
lattice-minimize  \
	dirUpdateScheme      L-BFGS \
	linminMethod         DirUpdateRecommended \
	nIterations          0 \
	history              15 \
	knormThreshold       0 \
	energyDiffThreshold  1e-06 \
	nEnergyDiff          2 \
	alphaTstart          1 \
	alphaTmin            1e-10 \
	updateTestStepSize   yes \
	alphaTreduceFactor   0.1 \
	alphaTincreaseFactor 3 \
	nAlphaAdjustMax      3 \
	wolfeEnergy          0.0001 \
	wolfeGradient        0.9 \
	fdTest               no
lcao-params -1 1e-06 1e-05
pcm-variant GLSSA13
spintype z-spin
subspace-rotation-factor 1 yes
symmetries automatic
symmetry-threshold 0.0001



---------- Setting up symmetries ----------

Found 24 point-group symmetries of the bravais lattice
Found 24 space-group symmetries with basis
Applied RMS atom displacement 0 bohrs to make symmetries exact.

---------- Initializing the Grid ----------
R = 
[      9.45497     -4.72749            0  ]
[            0      8.18825            0  ]
[            0            0           40  ]
unit cell volume = 3096.79
G =
[   0.664538   0.383671         -0  ]
[          0   0.767342         -0  ]
[         -0         -0    0.15708  ]
Minimum fftbox size, Smin = [  40  40  164  ]
Chosen fftbox size, S = [  40  40  168  ]

---------- Exchange Correlation functional ----------
Initalized PBE GGA exchange.
Initalized PBE GGA correlation.

---------- Setting up pseudopotentials ----------
Width of ionic core gaussian charges (only for fluid interactions / plotting) set to 0

Reading pseudopotential file '/home/gridsan/aligho/DFT/build-Nov24/pseudopotentials/SG15/K_ONCV_PBE.upf':
  'K' pseudopotential, 'PBE' functional
  Generated using ONCVPSP code by D. R. Hamann
  Author: Martin Schlipf and Francois Gygi  Date: 150915.
  9 valence electrons, 3 orbitals, 6 projectors, 2222 radial grid points, with lMax = 2
  Transforming local potential to a uniform radial grid of dG=0.02 with 1489 points.
  Transforming nonlocal projectors to a uniform radial grid of dG=0.02 with 432 points.
    3S    l: 0   occupation:  2.0   eigenvalue: -1.298836
    3P    l: 1   occupation:  6.0   eigenvalue: -0.691386
    4S    l: 0   occupation:  1.0   eigenvalue: -0.085223
  Transforming atomic orbitals to a uniform radial grid of dG=0.02 with 432 points.
  Core radius for overlap checks: 2.06 bohrs.
  Reading pulay file /home/gridsan/aligho/DFT/build-Nov24/pseudopotentials/SG15/K_ONCV_PBE.pulay ... using dE_dnG = -1.597219e-05 computed for Ecut = 20.

Initialized 1 species with 1 total atoms.

Folded 1 k-points by 12x12x1 to 144 k-points.

---------- Setting up k-points, bands, fillings ----------
Reduced to 19 k-points under symmetry. 
Computing the number of bands and number of electrons
Calculating initial fillings.
nElectrons:   9.000000   nBands: 6   nStates: 38

----- Setting up reduced wavefunction bases (one per k-point) -----
average nbasis = 13230.521 , ideal nbasis = 13229.709

---------- Setting up coulomb interaction ----------
Initialized slab truncation along lattice direction 001

---------- Setting up 2D ewald sum ----------
Optimum gaussian width for ewald sums = 5.249020 bohr.
Real space sums over 289 unit cells with max indices [  8  8  0  ]
Reciprocal space sums over 81 terms with max indices [  4  4  0  ]

---------- Allocating electronic variables ----------
Initializing wave functions:  linear combination of atomic orbitals
Note: number of bands (6) exceeds available atomic orbitals (5)
K pseudo-atom occupations:   s ( 2 1 )  p ( 6 )
	FillingsUpdate:  mu: -0.094576812  nElectrons: 9.000000  magneticMoment: [ Abs: 0.34000  Tot: -0.34000 ]
LCAOMinimize: Iter:   0  F: -28.3961327556673702  |grad|_K:  3.742e-05  alpha:  1.000e+00
	FillingsUpdate:  mu: -0.094565390  nElectrons: 9.000000  magneticMoment: [ Abs: 0.34000  Tot: -0.34000 ]
LCAOMinimize: Iter:   1  F: -28.3961336925842964  |grad|_K:  3.478e-07  alpha:  9.787e-01  linmin: -3.625e-02  cgtest:  5.621e-01  t[s]:      4.45
LCAOMinimize: Encountered beta<0, resetting CG.
	FillingsUpdate:  mu: -0.094565396  nElectrons: 9.000000  magneticMoment: [ Abs: 0.34000  Tot: -0.34000 ]
LCAOMinimize: Iter:   2  F: -28.3961336926670036  |grad|_K:  2.088e-09  alpha:  9.955e-01  linmin: -7.548e-02  cgtest:  8.260e-01  t[s]:      5.62
LCAOMinimize: Encountered beta<0, resetting CG.
LCAOMinimize: Converged (|Delta F|<1.000000e-06 for 2 iters).


---- Citations for features of the code used in this run ----

   Software package:
      R. Sundararaman, K. Letchworth-Weaver, K.A. Schwarz, D. Gunceler, Y. Ozhabes and T.A. Arias, 'JDFTx: software for joint density-functional theory', SoftwareX 6, 278 (2017)

   gga-PBE exchange-correlation functional:
      J.P. Perdew, K. Burke and M. Ernzerhof, Phys. Rev. Lett. 77, 3865 (1996)

   Pseudopotentials:
      M Schlipf and F Gygi, Comput. Phys. Commun. 196, 36 (2015)

   Truncated Coulomb potentials:
      R. Sundararaman and T.A. Arias, Phys. Rev. B 87, 165122 (2013)

This list may not be complete. Please suggest additional citations or
report any other bugs at https://github.com/shankar1729/jdftx/issues

Initialization completed successfully at t[s]:      5.71


-------- Electronic minimization -----------
Will mix electronic density at each iteration.
	FillingsUpdate:  mu: -0.094565396  nElectrons: 9.000000  magneticMoment: [ Abs: 0.34000  Tot: -0.34000 ]
	FillingsUpdate:  mu: -0.106415763  nElectrons: 9.000000  magneticMoment: [ Abs: 0.34000  Tot: -0.34000 ]
SCF: Cycle:  0   F: -28.401978193894571   dF: -5.845e-03   |Residual|: 9.528e-03   |deigs|: 1.744e-01  t[s]:      8.07
	FillingsUpdate:  mu: -0.106113924  nElectrons: 9.000000  magneticMoment: [ Abs: 0.34000  Tot: -0.34000 ]
SCF: Cycle:  1   F: -28.402138196801555   dF: -1.600e-04   |Residual|: 7.255e-03   |deigs|: 5.146e-03  t[s]:      9.88
	FillingsUpdate:  mu: -0.104786213  nElectrons: 9.000000  magneticMoment: [ Abs: 0.34422  Tot: -0.34000 ]
SCF: Cycle:  2   F: -28.402184428200748   dF: -4.623e-05   |Residual|: 3.795e-03   |deigs|: 4.016e-03  t[s]:     11.68
	FillingsUpdate:  mu: -0.104005164  nElectrons: 9.000000  magneticMoment: [ Abs: 0.34000  Tot: -0.34000 ]
SCF: Cycle:  3   F: -28.402240791568797   dF: -5.636e-05   |Residual|: 2.427e-03   |deigs|: 3.431e-03  t[s]:     13.54
	FillingsUpdate:  mu: -0.102627804  nElectrons: 9.000000  magneticMoment: [ Abs: 0.34006  Tot: -0.34000 ]
SCF: Cycle:  4   F: -28.402269448442450   dF: -2.866e-05   |Residual|: 1.744e-03   |deigs|: 4.551e-03  t[s]:     15.41
	FillingsUpdate:  mu: -0.101301714  nElectrons: 9.000000  magneticMoment: [ Abs: 0.34141  Tot: -0.34000 ]
SCF: Cycle:  5   F: -28.402286231835394   dF: -1.678e-05   |Residual|: 1.396e-03   |deigs|: 3.012e-03  t[s]:     17.29
	FillingsUpdate:  mu: -0.099351200  nElectrons: 9.000000  magneticMoment: [ Abs: 0.34609  Tot: -0.34000 ]
SCF: Cycle:  6   F: -28.402291654005591   dF: -5.422e-06   |Residual|: 9.890e-04   |deigs|: 3.117e-03  t[s]:     19.20
	FillingsUpdate:  mu: -0.097767152  nElectrons: 9.000000  magneticMoment: [ Abs: 0.34595  Tot: -0.34000 ]
SCF: Cycle:  7   F: -28.402306327573218   dF: -1.467e-05   |Residual|: 8.704e-04   |deigs|: 2.137e-03  t[s]:     21.18
	FillingsUpdate:  mu: -0.097638926  nElectrons: 9.000000  magneticMoment: [ Abs: 0.34134  Tot: -0.34000 ]
SCF: Cycle:  8   F: -28.402321276645988   dF: -1.495e-05   |Residual|: 7.570e-04   |deigs|: 1.554e-03  t[s]:     23.19
	FillingsUpdate:  mu: -0.096526943  nElectrons: 9.000000  magneticMoment: [ Abs: 0.34286  Tot: -0.34000 ]
SCF: Cycle:  9   F: -28.402323329199586   dF: -2.053e-06   |Residual|: 5.745e-04   |deigs|: 1.187e-03  t[s]:     25.19
	FillingsUpdate:  mu: -0.095321913  nElectrons: 9.000000  magneticMoment: [ Abs: 0.34384  Tot: -0.34000 ]
SCF: Cycle: 10   F: -28.402324027192392   dF: -6.980e-07   |Residual|: 4.934e-04   |deigs|: 1.479e-03  t[s]:     27.16
	FillingsUpdate:  mu: -0.094288527  nElectrons: 9.000000  magneticMoment: [ Abs: 0.34258  Tot: -0.34000 ]
SCF: Cycle: 11   F: -28.402328375454672   dF: -4.348e-06   |Residual|: 4.544e-04   |deigs|: 1.144e-03  t[s]:     29.20
	FillingsUpdate:  mu: -0.093158350  nElectrons: 9.000000  magneticMoment: [ Abs: 0.34372  Tot: -0.34000 ]
SCF: Cycle: 12   F: -28.402338258831215   dF: -9.883e-06   |Residual|: 4.023e-04   |deigs|: 9.776e-04  t[s]:     31.25
	FillingsUpdate:  mu: -0.092077655  nElectrons: 9.000000  magneticMoment: [ Abs: 0.34389  Tot: -0.34000 ]
SCF: Cycle: 13   F: -28.402342691129313   dF: -4.432e-06   |Residual|: 3.767e-04   |deigs|: 1.148e-03  t[s]:     33.15
	FillingsUpdate:  mu: -0.090932785  nElectrons: 9.000000  magneticMoment: [ Abs: 0.34187  Tot: -0.34000 ]
SCF: Cycle: 14   F: -28.402346475908629   dF: -3.785e-06   |Residual|: 3.271e-04   |deigs|: 1.240e-03  t[s]:     35.24
	FillingsUpdate:  mu: -0.090197479  nElectrons: 9.000000  magneticMoment: [ Abs: 0.34002  Tot: -0.34000 ]
SCF: Cycle: 15   F: -28.402348956148664   dF: -2.480e-06   |Residual|: 2.559e-04   |deigs|: 8.008e-04  t[s]:     37.24
	FillingsUpdate:  mu: -0.089797689  nElectrons: 9.000000  magneticMoment: [ Abs: 0.34085  Tot: -0.34000 ]
SCF: Cycle: 16   F: -28.402350257321597   dF: -1.301e-06   |Residual|: 1.577e-04   |deigs|: 5.607e-04  t[s]:     39.24
	FillingsUpdate:  mu: -0.089587592  nElectrons: 9.000000  magneticMoment: [ Abs: 0.34054  Tot: -0.34000 ]
SCF: Cycle: 17   F: -28.402350825519179   dF: -5.682e-07   |Residual|: 1.011e-04   |deigs|: 4.411e-04  t[s]:     41.29
	FillingsUpdate:  mu: -0.089526039  nElectrons: 9.000000  magneticMoment: [ Abs: 0.34014  Tot: -0.34000 ]
SCF: Cycle: 18   F: -28.402351139070095   dF: -3.136e-07   |Residual|: 5.655e-05   |deigs|: 2.426e-04  t[s]:     43.24
	FillingsUpdate:  mu: -0.089511245  nElectrons: 9.000000  magneticMoment: [ Abs: 0.34032  Tot: -0.34000 ]
SCF: Cycle: 19   F: -28.402351287458647   dF: -1.484e-07   |Residual|: 3.568e-05   |deigs|: 1.288e-04  t[s]:     45.17
	FillingsUpdate:  mu: -0.089501865  nElectrons: 9.000000  magneticMoment: [ Abs: 0.34027  Tot: -0.34000 ]
SCF: Cycle: 20   F: -28.402351361790572   dF: -7.433e-08   |Residual|: 1.967e-05   |deigs|: 7.884e-05  t[s]:     47.15
	FillingsUpdate:  mu: -0.089483500  nElectrons: 9.000000  magneticMoment: [ Abs: 0.34010  Tot: -0.34000 ]
SCF: Cycle: 21   F: -28.402351402706920   dF: -4.092e-08   |Residual|: 9.185e-06   |deigs|: 4.919e-05  t[s]:     49.09
	FillingsUpdate:  mu: -0.089485039  nElectrons: 9.000000  magneticMoment: [ Abs: 0.34009  Tot: -0.34000 ]
SCF: Cycle: 22   F: -28.402351430106702   dF: -2.740e-08   |Residual|: 4.681e-06   |deigs|: 3.665e-05  t[s]:     51.00
	FillingsUpdate:  mu: -0.089484883  nElectrons: 9.000000  magneticMoment: [ Abs: 0.34009  Tot: -0.34000 ]
SCF: Cycle: 23   F: -28.402351451865695   dF: -2.176e-08   |Residual|: 3.811e-06   |deigs|: 2.969e-05  t[s]:     52.92
	FillingsUpdate:  mu: -0.089488413  nElectrons: 9.000000  magneticMoment: [ Abs: 0.34008  Tot: -0.34000 ]
SCF: Cycle: 24   F: -28.402351462965310   dF: -1.110e-08   |Residual|: 3.071e-06   |deigs|: 1.962e-05  t[s]:     54.84
	FillingsUpdate:  mu: -0.089489037  nElectrons: 9.000000  magneticMoment: [ Abs: 0.34007  Tot: -0.34000 ]
SCF: Cycle: 25   F: -28.402351470269178   dF: -7.304e-09   |Residual|: 2.916e-06   |deigs|: 1.663e-05  t[s]:     56.71
	FillingsUpdate:  mu: -0.089486010  nElectrons: 9.000000  magneticMoment: [ Abs: 0.34006  Tot: -0.34000 ]
SCF: Cycle: 26   F: -28.402351474374175   dF: -4.105e-09   |Residual|: 2.462e-06   |deigs|: 1.786e-05  t[s]:     58.60
SCF: Converged (|Delta E|<1.000000e-08 for 2 iters).


# Ionic positions in lattice coordinates:
ion K   0.000000000000000   0.000000000000000   0.000000000000000 0

# Forces in Lattice coordinates:
force K  -0.000000000000000  -0.000000000000000   0.000000000000000 0

# Energy components:
   Eewald =      -18.0480261003326561
       EH =        4.8718693244848899
     Eloc =      -18.0643028487581532
      Enl =       -2.7744840230212562
   Epulay =        0.0000000041876954
      Exc =       -4.2634615171046288
       KE =        9.8760543609926401
-------------------------------------
     Etot =      -28.4023507995514706
       TS =        0.0000006748227032
-------------------------------------
        F =      -28.4023514743741750

IonicMinimize: Iter:   0  F: -28.402351474374175  |grad|_K:  0.000e+00  t[s]:     58.71
IonicMinimize: Converged (|grad|_K<1.000000e-04).

#--- Lowdin population analysis ---
# oxidation-state K +0.056
# magnetic-moments K -0.296

End date and time: Sat Feb  5 23:37:43 2022  (Duration: 0-0:00:58.73)
Done!
