
*************** JDFTx 1.6.0 (git hash 42ebbcc2) ***************

Start date and time: Sat Feb  5 23:30:08 2022
Executable jdftx with command-line: -i Alkali.in
Running on hosts (process indices):  d-6-4-1 (0-18)
Divided in process groups (process indices):  0 (0)  1 (1)  2 (2)  3 (3)  4 (4)  5 (5)  6 (6)  7 (7)  8 (8)  9 (9)  10 (10)  11 (11)  12 (12)  13 (13)  14 (14)  15 (15)  16 (16)  17 (17)  18 (18)
Resource initialization completed at t[s]:      0.00
Run totals: 19 processes, 48 threads, 0 GPUs


Input parsed successfully to the following command list (including defaults):

basis kpoint-dependent
coords-type Lattice
core-overlap-check vector
coulomb-interaction Slab 001
davidson-band-ratio 1.1
dump End None
dump-name $INPUT.$VAR
elec-cutoff 20
elec-eigen-algo Davidson
elec-ex-corr gga-PBE
elec-initial-magnetization -0.760000 yes
elec-smearing Fermi 1e-05
electronic-minimize  \
	dirUpdateScheme      FletcherReeves \
	linminMethod         DirUpdateRecommended \
	nIterations          100 \
	history              15 \
	knormThreshold       0 \
	energyDiffThreshold  1e-08 \
	nEnergyDiff          2 \
	alphaTstart          1 \
	alphaTmin            1e-10 \
	updateTestStepSize   yes \
	alphaTreduceFactor   0.1 \
	alphaTincreaseFactor 3 \
	nAlphaAdjustMax      3 \
	wolfeEnergy          0.0001 \
	wolfeGradient        0.9 \
	fdTest               no
electronic-scf  \
	nIterations	10000 \
	energyDiffThreshold	1e-08 \
	residualThreshold	1e-07 \
	mixFraction	0.5 \
	qMetric	0.8 \
	history	10 \
	nEigSteps	2 \
	eigDiffThreshold	1e-08 \
	mixedVariable	Density \
	qKerker	0.8 \
	qKappa	-1 \
	verbose	no \
	mixFractionMag	1.5
exchange-regularization WignerSeitzTruncated
fluid None
fluid-ex-corr (null) lda-PZ
fluid-gummel-loop 10 1.000000e-05
fluid-minimize  \
	dirUpdateScheme      PolakRibiere \
	linminMethod         DirUpdateRecommended \
	nIterations          100 \
	history              15 \
	knormThreshold       0 \
	energyDiffThreshold  0 \
	nEnergyDiff          2 \
	alphaTstart          1 \
	alphaTmin            1e-10 \
	updateTestStepSize   yes \
	alphaTreduceFactor   0.1 \
	alphaTincreaseFactor 3 \
	nAlphaAdjustMax      3 \
	wolfeEnergy          0.0001 \
	wolfeGradient        0.9 \
	fdTest               no
fluid-solvent H2O 55.338 ScalarEOS \
	epsBulk 78.4 \
	pMol 0.92466 \
	epsInf 1.77 \
	Pvap 1.06736e-10 \
	sigmaBulk 4.62e-05 \
	Rvdw 2.61727 \
	Res 1.42 \
	tauNuc 343133 \
	poleEl 15 7 1
forces-output-coords Positions
ion K   0.000000000000000   0.000000000000000   0.000000000000000 0
ion-species SG15/$ID_ONCV_PBE.upf
ion-width 0
ionic-minimize  \
	dirUpdateScheme      L-BFGS \
	linminMethod         DirUpdateRecommended \
	nIterations          0 \
	history              15 \
	knormThreshold       0.0001 \
	energyDiffThreshold  1e-06 \
	nEnergyDiff          2 \
	alphaTstart          1 \
	alphaTmin            1e-10 \
	updateTestStepSize   yes \
	alphaTreduceFactor   0.1 \
	alphaTincreaseFactor 3 \
	nAlphaAdjustMax      3 \
	wolfeEnergy          0.0001 \
	wolfeGradient        0.9 \
	fdTest               no
kpoint   0.000000000000   0.000000000000   0.000000000000  1.00000000000000
kpoint-folding 12 12 1 
latt-move-scale 1 1 1
latt-scale 2 2 1 
lattice  \
	   4.727486978767153   -2.363743489383575    0.000000000000000  \
	  -0.000000000000000    4.094123819672498    0.000000000000000  \
	   0.000000000000000    0.000000000000000   40.000000000000000 
lattice-minimize  \
	dirUpdateScheme      L-BFGS \
	linminMethod         DirUpdateRecommended \
	nIterations          0 \
	history              15 \
	knormThreshold       0 \
	energyDiffThreshold  1e-06 \
	nEnergyDiff          2 \
	alphaTstart          1 \
	alphaTmin            1e-10 \
	updateTestStepSize   yes \
	alphaTreduceFactor   0.1 \
	alphaTincreaseFactor 3 \
	nAlphaAdjustMax      3 \
	wolfeEnergy          0.0001 \
	wolfeGradient        0.9 \
	fdTest               no
lcao-params -1 1e-06 1e-05
pcm-variant GLSSA13
spintype z-spin
subspace-rotation-factor 1 yes
symmetries automatic
symmetry-threshold 0.0001



---------- Setting up symmetries ----------

Found 24 point-group symmetries of the bravais lattice
Found 24 space-group symmetries with basis
Applied RMS atom displacement 0 bohrs to make symmetries exact.

---------- Initializing the Grid ----------
R = 
[      9.45497     -4.72749            0  ]
[            0      8.18825            0  ]
[            0            0           40  ]
unit cell volume = 3096.79
G =
[   0.664538   0.383671         -0  ]
[          0   0.767342         -0  ]
[         -0         -0    0.15708  ]
Minimum fftbox size, Smin = [  40  40  164  ]
Chosen fftbox size, S = [  40  40  168  ]

---------- Exchange Correlation functional ----------
Initalized PBE GGA exchange.
Initalized PBE GGA correlation.

---------- Setting up pseudopotentials ----------
Width of ionic core gaussian charges (only for fluid interactions / plotting) set to 0

Reading pseudopotential file '/home/gridsan/aligho/DFT/build-Nov24/pseudopotentials/SG15/K_ONCV_PBE.upf':
  'K' pseudopotential, 'PBE' functional
  Generated using ONCVPSP code by D. R. Hamann
  Author: Martin Schlipf and Francois Gygi  Date: 150915.
  9 valence electrons, 3 orbitals, 6 projectors, 2222 radial grid points, with lMax = 2
  Transforming local potential to a uniform radial grid of dG=0.02 with 1489 points.
  Transforming nonlocal projectors to a uniform radial grid of dG=0.02 with 432 points.
    3S    l: 0   occupation:  2.0   eigenvalue: -1.298836
    3P    l: 1   occupation:  6.0   eigenvalue: -0.691386
    4S    l: 0   occupation:  1.0   eigenvalue: -0.085223
  Transforming atomic orbitals to a uniform radial grid of dG=0.02 with 432 points.
  Core radius for overlap checks: 2.06 bohrs.
  Reading pulay file /home/gridsan/aligho/DFT/build-Nov24/pseudopotentials/SG15/K_ONCV_PBE.pulay ... using dE_dnG = -1.597219e-05 computed for Ecut = 20.

Initialized 1 species with 1 total atoms.

Folded 1 k-points by 12x12x1 to 144 k-points.

---------- Setting up k-points, bands, fillings ----------
Reduced to 19 k-points under symmetry. 
Computing the number of bands and number of electrons
Calculating initial fillings.
nElectrons:   9.000000   nBands: 6   nStates: 38

----- Setting up reduced wavefunction bases (one per k-point) -----
average nbasis = 13230.521 , ideal nbasis = 13229.709

---------- Setting up coulomb interaction ----------
Initialized slab truncation along lattice direction 001

---------- Setting up 2D ewald sum ----------
Optimum gaussian width for ewald sums = 5.249020 bohr.
Real space sums over 289 unit cells with max indices [  8  8  0  ]
Reciprocal space sums over 81 terms with max indices [  4  4  0  ]

---------- Allocating electronic variables ----------
Initializing wave functions:  linear combination of atomic orbitals
Note: number of bands (6) exceeds available atomic orbitals (5)
K pseudo-atom occupations:   s ( 2 1 )  p ( 6 )
	FillingsUpdate:  mu: -0.094741613  nElectrons: 9.000000  magneticMoment: [ Abs: 0.76000  Tot: -0.76000 ]
LCAOMinimize: Iter:   0  F: -28.3862948141054581  |grad|_K:  1.726e-05  alpha:  1.000e+00
	FillingsUpdate:  mu: -0.094737290  nElectrons: 9.000000  magneticMoment: [ Abs: 0.76000  Tot: -0.76000 ]
LCAOMinimize: Iter:   1  F: -28.3862950145219308  |grad|_K:  1.482e-07  alpha:  9.835e-01  linmin: -1.662e-02  cgtest:  2.897e-01  t[s]:      4.62
LCAOMinimize: Encountered beta<0, resetting CG.
	FillingsUpdate:  mu: -0.094737329  nElectrons: 9.000000  magneticMoment: [ Abs: 0.76000  Tot: -0.76000 ]
LCAOMinimize: Iter:   2  F: -28.3862950145369943  |grad|_K:  1.505e-09  alpha:  1.010e+00  linmin:  9.809e-02  cgtest: -9.161e-01  t[s]:      5.78
LCAOMinimize: Converged (|Delta F|<1.000000e-06 for 2 iters).


---- Citations for features of the code used in this run ----

   Software package:
      R. Sundararaman, K. Letchworth-Weaver, K.A. Schwarz, D. Gunceler, Y. Ozhabes and T.A. Arias, 'JDFTx: software for joint density-functional theory', SoftwareX 6, 278 (2017)

   gga-PBE exchange-correlation functional:
      J.P. Perdew, K. Burke and M. Ernzerhof, Phys. Rev. Lett. 77, 3865 (1996)

   Pseudopotentials:
      M Schlipf and F Gygi, Comput. Phys. Commun. 196, 36 (2015)

   Truncated Coulomb potentials:
      R. Sundararaman and T.A. Arias, Phys. Rev. B 87, 165122 (2013)

This list may not be complete. Please suggest additional citations or
report any other bugs at https://github.com/shankar1729/jdftx/issues

Initialization completed successfully at t[s]:      5.87


-------- Electronic minimization -----------
Will mix electronic density at each iteration.
	FillingsUpdate:  mu: -0.094737329  nElectrons: 9.000000  magneticMoment: [ Abs: 0.76000  Tot: -0.76000 ]
	FillingsUpdate:  mu: -0.104991832  nElectrons: 9.000000  magneticMoment: [ Abs: 0.76000  Tot: -0.76000 ]
SCF: Cycle:  0   F: -28.395610411061938   dF: -9.315e-03   |Residual|: 1.468e-02   |deigs|: 1.730e-01  t[s]:      8.21
	FillingsUpdate:  mu: -0.108850855  nElectrons: 9.000000  magneticMoment: [ Abs: 0.76000  Tot: -0.76000 ]
SCF: Cycle:  1   F: -28.396055361433110   dF: -4.450e-04   |Residual|: 1.098e-02   |deigs|: 8.400e-03  t[s]:     10.00
	FillingsUpdate:  mu: -0.108710710  nElectrons: 9.000000  magneticMoment: [ Abs: 0.76247  Tot: -0.76000 ]
SCF: Cycle:  2   F: -28.396196514296832   dF: -1.412e-04   |Residual|: 7.033e-03   |deigs|: 5.325e-03  t[s]:     11.83
	FillingsUpdate:  mu: -0.104705264  nElectrons: 9.000000  magneticMoment: [ Abs: 0.76000  Tot: -0.76000 ]
SCF: Cycle:  3   F: -28.396313187719652   dF: -1.167e-04   |Residual|: 3.625e-03   |deigs|: 4.047e-03  t[s]:     13.68
	FillingsUpdate:  mu: -0.102828864  nElectrons: 9.000000  magneticMoment: [ Abs: 0.76002  Tot: -0.76000 ]
SCF: Cycle:  4   F: -28.396370726864568   dF: -5.754e-05   |Residual|: 2.200e-03   |deigs|: 3.309e-03  t[s]:     15.52
	FillingsUpdate:  mu: -0.101320026  nElectrons: 9.000000  magneticMoment: [ Abs: 0.76007  Tot: -0.76000 ]
SCF: Cycle:  5   F: -28.396392391770014   dF: -2.166e-05   |Residual|: 1.790e-03   |deigs|: 2.996e-03  t[s]:     17.43
	FillingsUpdate:  mu: -0.098900344  nElectrons: 9.000000  magneticMoment: [ Abs: 0.76487  Tot: -0.76000 ]
SCF: Cycle:  6   F: -28.396399159914573   dF: -6.768e-06   |Residual|: 1.407e-03   |deigs|: 2.876e-03  t[s]:     19.34
	FillingsUpdate:  mu: -0.097057819  nElectrons: 9.000000  magneticMoment: [ Abs: 0.76462  Tot: -0.76000 ]
SCF: Cycle:  7   F: -28.396425551163325   dF: -2.639e-05   |Residual|: 1.002e-03   |deigs|: 2.437e-03  t[s]:     21.26
	FillingsUpdate:  mu: -0.096532539  nElectrons: 9.000000  magneticMoment: [ Abs: 0.76192  Tot: -0.76000 ]
SCF: Cycle:  8   F: -28.396447679002041   dF: -2.213e-05   |Residual|: 8.593e-04   |deigs|: 9.974e-04  t[s]:     23.32
	FillingsUpdate:  mu: -0.095670423  nElectrons: 9.000000  magneticMoment: [ Abs: 0.76011  Tot: -0.76000 ]
SCF: Cycle:  9   F: -28.396454017589360   dF: -6.339e-06   |Residual|: 6.716e-04   |deigs|: 8.872e-04  t[s]:     25.36
	FillingsUpdate:  mu: -0.094522929  nElectrons: 9.000000  magneticMoment: [ Abs: 0.76265  Tot: -0.76000 ]
SCF: Cycle: 10   F: -28.396456128266205   dF: -2.111e-06   |Residual|: 5.819e-04   |deigs|: 1.594e-03  t[s]:     27.37
	FillingsUpdate:  mu: -0.093836469  nElectrons: 9.000000  magneticMoment: [ Abs: 0.76336  Tot: -0.76000 ]
SCF: Cycle: 11   F: -28.396458922600573   dF: -2.794e-06   |Residual|: 5.122e-04   |deigs|: 1.009e-03  t[s]:     29.40
	FillingsUpdate:  mu: -0.092931262  nElectrons: 9.000000  magneticMoment: [ Abs: 0.76334  Tot: -0.76000 ]
SCF: Cycle: 12   F: -28.396467025726864   dF: -8.103e-06   |Residual|: 5.076e-04   |deigs|: 8.272e-04  t[s]:     31.39
	FillingsUpdate:  mu: -0.091992738  nElectrons: 9.000000  magneticMoment: [ Abs: 0.76371  Tot: -0.76000 ]
SCF: Cycle: 13   F: -28.396469995544759   dF: -2.970e-06   |Residual|: 4.081e-04   |deigs|: 1.054e-03  t[s]:     33.36
	FillingsUpdate:  mu: -0.090437903  nElectrons: 9.000000  magneticMoment: [ Abs: 0.76255  Tot: -0.76000 ]
SCF: Cycle: 14   F: -28.396474464485173   dF: -4.469e-06   |Residual|: 3.898e-04   |deigs|: 1.665e-03  t[s]:     35.37
	FillingsUpdate:  mu: -0.089656828  nElectrons: 9.000000  magneticMoment: [ Abs: 0.76167  Tot: -0.76000 ]
SCF: Cycle: 15   F: -28.396476786288467   dF: -2.322e-06   |Residual|: 3.511e-04   |deigs|: 1.067e-03  t[s]:     37.40
	FillingsUpdate:  mu: -0.088637318  nElectrons: 9.000000  magneticMoment: [ Abs: 0.76107  Tot: -0.76000 ]
SCF: Cycle: 16   F: -28.396486289136664   dF: -9.503e-06   |Residual|: 4.357e-04   |deigs|: 1.051e-03  t[s]:     39.43
	FillingsUpdate:  mu: -0.088787808  nElectrons: 9.000000  magneticMoment: [ Abs: 0.76099  Tot: -0.76000 ]
SCF: Cycle: 17   F: -28.396486627363895   dF: -3.382e-07   |Residual|: 3.915e-04   |deigs|: 2.077e-04  t[s]:     41.13
	FillingsUpdate:  mu: -0.089169401  nElectrons: 9.000000  magneticMoment: [ Abs: 0.76056  Tot: -0.76000 ]
SCF: Cycle: 18   F: -28.396487529291580   dF: -9.019e-07   |Residual|: 2.236e-04   |deigs|: 4.620e-04  t[s]:     43.19
	FillingsUpdate:  mu: -0.089191708  nElectrons: 9.000000  magneticMoment: [ Abs: 0.76038  Tot: -0.76000 ]
SCF: Cycle: 19   F: -28.396488250142738   dF: -7.209e-07   |Residual|: 1.224e-04   |deigs|: 1.308e-04  t[s]:     45.17
	FillingsUpdate:  mu: -0.089116058  nElectrons: 9.000000  magneticMoment: [ Abs: 0.76069  Tot: -0.76000 ]
SCF: Cycle: 20   F: -28.396488701887101   dF: -4.517e-07   |Residual|: 8.039e-05   |deigs|: 2.225e-04  t[s]:     47.18
	FillingsUpdate:  mu: -0.089022917  nElectrons: 9.000000  magneticMoment: [ Abs: 0.76070  Tot: -0.76000 ]
SCF: Cycle: 21   F: -28.396488835773322   dF: -1.339e-07   |Residual|: 5.542e-05   |deigs|: 1.955e-04  t[s]:     49.17
	FillingsUpdate:  mu: -0.088941279  nElectrons: 9.000000  magneticMoment: [ Abs: 0.76066  Tot: -0.76000 ]
SCF: Cycle: 22   F: -28.396488941857367   dF: -1.061e-07   |Residual|: 2.985e-05   |deigs|: 1.761e-04  t[s]:     51.21
	FillingsUpdate:  mu: -0.088923374  nElectrons: 9.000000  magneticMoment: [ Abs: 0.76057  Tot: -0.76000 ]
SCF: Cycle: 23   F: -28.396489076532273   dF: -1.347e-07   |Residual|: 2.424e-05   |deigs|: 1.179e-04  t[s]:     53.26
	FillingsUpdate:  mu: -0.088890364  nElectrons: 9.000000  magneticMoment: [ Abs: 0.76048  Tot: -0.76000 ]
SCF: Cycle: 24   F: -28.396489112107094   dF: -3.557e-08   |Residual|: 2.135e-05   |deigs|: 8.307e-05  t[s]:     55.21
	FillingsUpdate:  mu: -0.088876096  nElectrons: 9.000000  magneticMoment: [ Abs: 0.76035  Tot: -0.76000 ]
SCF: Cycle: 25   F: -28.396489152442786   dF: -4.034e-08   |Residual|: 1.666e-05   |deigs|: 4.528e-05  t[s]:     57.26
	FillingsUpdate:  mu: -0.088874055  nElectrons: 9.000000  magneticMoment: [ Abs: 0.76022  Tot: -0.76000 ]
SCF: Cycle: 26   F: -28.396489151196246   dF: +1.247e-09   |Residual|: 1.154e-05   |deigs|: 4.796e-05  t[s]:     59.26
	FillingsUpdate:  mu: -0.088882860  nElectrons: 9.000000  magneticMoment: [ Abs: 0.76014  Tot: -0.76000 ]
SCF: Cycle: 27   F: -28.396489167538956   dF: -1.634e-08   |Residual|: 8.347e-06   |deigs|: 3.523e-05  t[s]:     61.29
	FillingsUpdate:  mu: -0.088883036  nElectrons: 9.000000  magneticMoment: [ Abs: 0.76010  Tot: -0.76000 ]
SCF: Cycle: 28   F: -28.396489183329813   dF: -1.579e-08   |Residual|: 5.919e-06   |deigs|: 2.510e-05  t[s]:     63.32
	FillingsUpdate:  mu: -0.088884255  nElectrons: 9.000000  magneticMoment: [ Abs: 0.76006  Tot: -0.76000 ]
SCF: Cycle: 29   F: -28.396489188897217   dF: -5.567e-09   |Residual|: 3.604e-06   |deigs|: 1.655e-05  t[s]:     65.29
	FillingsUpdate:  mu: -0.088885957  nElectrons: 9.000000  magneticMoment: [ Abs: 0.76005  Tot: -0.76000 ]
SCF: Cycle: 30   F: -28.396489192972766   dF: -4.076e-09   |Residual|: 2.082e-06   |deigs|: 9.659e-06  t[s]:     67.27
SCF: Converged (|Delta E|<1.000000e-08 for 2 iters).


# Ionic positions in lattice coordinates:
ion K   0.000000000000000   0.000000000000000   0.000000000000000 0

# Forces in Lattice coordinates:
force K   0.000000000000000  -0.000000000000000   0.000000000000000 0

# Energy components:
   Eewald =      -18.0480261003326561
       EH =        4.8842582888548840
     Eloc =      -18.0765673528219288
      Enl =       -2.7784164755410483
   Epulay =        0.0000000041876954
      Exc =       -4.2681813762467007
       KE =        9.8904442107254873
-------------------------------------
     Etot =      -28.3964888011742680
       TS =        0.0000003917984960
-------------------------------------
        F =      -28.3964891929727656

IonicMinimize: Iter:   0  F: -28.396489192972766  |grad|_K:  0.000e+00  t[s]:     67.38
IonicMinimize: Converged (|grad|_K<1.000000e-04).

#--- Lowdin population analysis ---
# oxidation-state K +0.147
# magnetic-moments K -0.617

End date and time: Sat Feb  5 23:31:16 2022  (Duration: 0-0:01:07.41)
Done!
