
*************** JDFTx 1.6.0 (git hash 42ebbcc2) ***************

Start date and time: Sat Feb  5 23:54:35 2022
Executable jdftx with command-line: -i Alkali.in
Running on hosts (process indices):  d-6-4-1 (0-18)
Divided in process groups (process indices):  0 (0)  1 (1)  2 (2)  3 (3)  4 (4)  5 (5)  6 (6)  7 (7)  8 (8)  9 (9)  10 (10)  11 (11)  12 (12)  13 (13)  14 (14)  15 (15)  16 (16)  17 (17)  18 (18)
Resource initialization completed at t[s]:      0.00
Run totals: 19 processes, 48 threads, 0 GPUs


Input parsed successfully to the following command list (including defaults):

basis kpoint-dependent
coords-type Lattice
core-overlap-check vector
coulomb-interaction Slab 001
davidson-band-ratio 1.1
dump End None
dump-name $INPUT.$VAR
elec-cutoff 20
elec-eigen-algo Davidson
elec-ex-corr gga-PBE
elec-initial-magnetization 0.980000 yes
elec-smearing Fermi 1e-05
electronic-minimize  \
	dirUpdateScheme      FletcherReeves \
	linminMethod         DirUpdateRecommended \
	nIterations          100 \
	history              15 \
	knormThreshold       0 \
	energyDiffThreshold  1e-08 \
	nEnergyDiff          2 \
	alphaTstart          1 \
	alphaTmin            1e-10 \
	updateTestStepSize   yes \
	alphaTreduceFactor   0.1 \
	alphaTincreaseFactor 3 \
	nAlphaAdjustMax      3 \
	wolfeEnergy          0.0001 \
	wolfeGradient        0.9 \
	fdTest               no
electronic-scf  \
	nIterations	10000 \
	energyDiffThreshold	1e-08 \
	residualThreshold	1e-07 \
	mixFraction	0.5 \
	qMetric	0.8 \
	history	10 \
	nEigSteps	2 \
	eigDiffThreshold	1e-08 \
	mixedVariable	Density \
	qKerker	0.8 \
	qKappa	-1 \
	verbose	no \
	mixFractionMag	1.5
exchange-regularization WignerSeitzTruncated
fluid None
fluid-ex-corr (null) lda-PZ
fluid-gummel-loop 10 1.000000e-05
fluid-minimize  \
	dirUpdateScheme      PolakRibiere \
	linminMethod         DirUpdateRecommended \
	nIterations          100 \
	history              15 \
	knormThreshold       0 \
	energyDiffThreshold  0 \
	nEnergyDiff          2 \
	alphaTstart          1 \
	alphaTmin            1e-10 \
	updateTestStepSize   yes \
	alphaTreduceFactor   0.1 \
	alphaTincreaseFactor 3 \
	nAlphaAdjustMax      3 \
	wolfeEnergy          0.0001 \
	wolfeGradient        0.9 \
	fdTest               no
fluid-solvent H2O 55.338 ScalarEOS \
	epsBulk 78.4 \
	pMol 0.92466 \
	epsInf 1.77 \
	Pvap 1.06736e-10 \
	sigmaBulk 4.62e-05 \
	Rvdw 2.61727 \
	Res 1.42 \
	tauNuc 343133 \
	poleEl 15 7 1
forces-output-coords Positions
ion K   0.000000000000000   0.000000000000000   0.000000000000000 0
ion-species SG15/$ID_ONCV_PBE.upf
ion-width 0
ionic-minimize  \
	dirUpdateScheme      L-BFGS \
	linminMethod         DirUpdateRecommended \
	nIterations          0 \
	history              15 \
	knormThreshold       0.0001 \
	energyDiffThreshold  1e-06 \
	nEnergyDiff          2 \
	alphaTstart          1 \
	alphaTmin            1e-10 \
	updateTestStepSize   yes \
	alphaTreduceFactor   0.1 \
	alphaTincreaseFactor 3 \
	nAlphaAdjustMax      3 \
	wolfeEnergy          0.0001 \
	wolfeGradient        0.9 \
	fdTest               no
kpoint   0.000000000000   0.000000000000   0.000000000000  1.00000000000000
kpoint-folding 12 12 1 
latt-move-scale 1 1 1
latt-scale 2 2 1 
lattice  \
	   4.727486978767153   -2.363743489383575    0.000000000000000  \
	  -0.000000000000000    4.094123819672498    0.000000000000000  \
	   0.000000000000000    0.000000000000000   40.000000000000000 
lattice-minimize  \
	dirUpdateScheme      L-BFGS \
	linminMethod         DirUpdateRecommended \
	nIterations          0 \
	history              15 \
	knormThreshold       0 \
	energyDiffThreshold  1e-06 \
	nEnergyDiff          2 \
	alphaTstart          1 \
	alphaTmin            1e-10 \
	updateTestStepSize   yes \
	alphaTreduceFactor   0.1 \
	alphaTincreaseFactor 3 \
	nAlphaAdjustMax      3 \
	wolfeEnergy          0.0001 \
	wolfeGradient        0.9 \
	fdTest               no
lcao-params -1 1e-06 1e-05
pcm-variant GLSSA13
spintype z-spin
subspace-rotation-factor 1 yes
symmetries automatic
symmetry-threshold 0.0001



---------- Setting up symmetries ----------

Found 24 point-group symmetries of the bravais lattice
Found 24 space-group symmetries with basis
Applied RMS atom displacement 0 bohrs to make symmetries exact.

---------- Initializing the Grid ----------
R = 
[      9.45497     -4.72749            0  ]
[            0      8.18825            0  ]
[            0            0           40  ]
unit cell volume = 3096.79
G =
[   0.664538   0.383671         -0  ]
[          0   0.767342         -0  ]
[         -0         -0    0.15708  ]
Minimum fftbox size, Smin = [  40  40  164  ]
Chosen fftbox size, S = [  40  40  168  ]

---------- Exchange Correlation functional ----------
Initalized PBE GGA exchange.
Initalized PBE GGA correlation.

---------- Setting up pseudopotentials ----------
Width of ionic core gaussian charges (only for fluid interactions / plotting) set to 0

Reading pseudopotential file '/home/gridsan/aligho/DFT/build-Nov24/pseudopotentials/SG15/K_ONCV_PBE.upf':
  'K' pseudopotential, 'PBE' functional
  Generated using ONCVPSP code by D. R. Hamann
  Author: Martin Schlipf and Francois Gygi  Date: 150915.
  9 valence electrons, 3 orbitals, 6 projectors, 2222 radial grid points, with lMax = 2
  Transforming local potential to a uniform radial grid of dG=0.02 with 1489 points.
  Transforming nonlocal projectors to a uniform radial grid of dG=0.02 with 432 points.
    3S    l: 0   occupation:  2.0   eigenvalue: -1.298836
    3P    l: 1   occupation:  6.0   eigenvalue: -0.691386
    4S    l: 0   occupation:  1.0   eigenvalue: -0.085223
  Transforming atomic orbitals to a uniform radial grid of dG=0.02 with 432 points.
  Core radius for overlap checks: 2.06 bohrs.
  Reading pulay file /home/gridsan/aligho/DFT/build-Nov24/pseudopotentials/SG15/K_ONCV_PBE.pulay ... using dE_dnG = -1.597219e-05 computed for Ecut = 20.

Initialized 1 species with 1 total atoms.

Folded 1 k-points by 12x12x1 to 144 k-points.

---------- Setting up k-points, bands, fillings ----------
Reduced to 19 k-points under symmetry. 
Computing the number of bands and number of electrons
Calculating initial fillings.
nElectrons:   9.000000   nBands: 6   nStates: 38

----- Setting up reduced wavefunction bases (one per k-point) -----
average nbasis = 13230.521 , ideal nbasis = 13229.709

---------- Setting up coulomb interaction ----------
Initialized slab truncation along lattice direction 001

---------- Setting up 2D ewald sum ----------
Optimum gaussian width for ewald sums = 5.249020 bohr.
Real space sums over 289 unit cells with max indices [  8  8  0  ]
Reciprocal space sums over 81 terms with max indices [  4  4  0  ]

---------- Allocating electronic variables ----------
Initializing wave functions:  linear combination of atomic orbitals
Note: number of bands (6) exceeds available atomic orbitals (5)
K pseudo-atom occupations:   s ( 2 1 )  p ( 6 )
	FillingsUpdate:  mu: -0.087886896  nElectrons: 9.000000  magneticMoment: [ Abs: 0.98000  Tot: +0.98000 ]
LCAOMinimize: Iter:   0  F: -28.3778748635944602  |grad|_K:  1.822e-06  alpha:  1.000e+00
	FillingsUpdate:  mu: -0.087886304  nElectrons: 9.000000  magneticMoment: [ Abs: 0.98000  Tot: +0.98000 ]
LCAOMinimize: Iter:   1  F: -28.3778748658415090  |grad|_K:  1.579e-08  alpha:  9.898e-01  linmin:  4.709e-04  cgtest: -1.547e-02  t[s]:      4.60
LCAOMinimize: 	Step increased F by 1.278977e-13, reducing alpha to 9.218852e-02.
LCAOMinimize: 	Step increased F by 1.101341e-13, reducing alpha to 9.218852e-03.
	FillingsUpdate:  mu: -0.087886304  nElectrons: 9.000000  magneticMoment: [ Abs: 0.98000  Tot: +0.98000 ]
LCAOMinimize: Iter:   2  F: -28.3778748658416013  |grad|_K:  1.564e-08  alpha:  9.219e-03  linmin: -3.955e-02  cgtest:  1.000e+00  t[s]:      7.12
LCAOMinimize: Encountered beta<0, resetting CG.
LCAOMinimize: Converged (|Delta F|<1.000000e-06 for 2 iters).


---- Citations for features of the code used in this run ----

   Software package:
      R. Sundararaman, K. Letchworth-Weaver, K.A. Schwarz, D. Gunceler, Y. Ozhabes and T.A. Arias, 'JDFTx: software for joint density-functional theory', SoftwareX 6, 278 (2017)

   gga-PBE exchange-correlation functional:
      J.P. Perdew, K. Burke and M. Ernzerhof, Phys. Rev. Lett. 77, 3865 (1996)

   Pseudopotentials:
      M Schlipf and F Gygi, Comput. Phys. Commun. 196, 36 (2015)

   Truncated Coulomb potentials:
      R. Sundararaman and T.A. Arias, Phys. Rev. B 87, 165122 (2013)

This list may not be complete. Please suggest additional citations or
report any other bugs at https://github.com/shankar1729/jdftx/issues

Initialization completed successfully at t[s]:      7.21


-------- Electronic minimization -----------
Will mix electronic density at each iteration.
	FillingsUpdate:  mu: -0.087886304  nElectrons: 9.000000  magneticMoment: [ Abs: 0.98000  Tot: +0.98000 ]
	FillingsUpdate:  mu: -0.101413273  nElectrons: 9.000000  magneticMoment: [ Abs: 0.98000  Tot: +0.98000 ]
SCF: Cycle:  0   F: -28.389367700608386   dF: -1.149e-02   |Residual|: 1.798e-02   |deigs|: 1.737e-01  t[s]:      9.55
	FillingsUpdate:  mu: -0.105495573  nElectrons: 9.000000  magneticMoment: [ Abs: 0.98000  Tot: +0.98000 ]
SCF: Cycle:  1   F: -28.390494183210532   dF: -1.126e-03   |Residual|: 1.445e-02   |deigs|: 8.261e-03  t[s]:     11.36
	FillingsUpdate:  mu: -0.106051277  nElectrons: 9.000000  magneticMoment: [ Abs: 0.98173  Tot: +0.98000 ]
SCF: Cycle:  2   F: -28.390686380744679   dF: -1.922e-04   |Residual|: 9.357e-03   |deigs|: 3.751e-03  t[s]:     13.17
	FillingsUpdate:  mu: -0.104641615  nElectrons: 9.000000  magneticMoment: [ Abs: 0.98000  Tot: +0.98000 ]
SCF: Cycle:  3   F: -28.390829257838423   dF: -1.429e-04   |Residual|: 5.461e-03   |deigs|: 3.325e-03  t[s]:     15.02
	FillingsUpdate:  mu: -0.104754053  nElectrons: 9.000000  magneticMoment: [ Abs: 0.98001  Tot: +0.98000 ]
SCF: Cycle:  4   F: -28.390902474408406   dF: -7.322e-05   |Residual|: 2.659e-03   |deigs|: 3.642e-03  t[s]:     16.93
	FillingsUpdate:  mu: -0.103462558  nElectrons: 9.000000  magneticMoment: [ Abs: 0.98007  Tot: +0.98000 ]
SCF: Cycle:  5   F: -28.390941488568693   dF: -3.901e-05   |Residual|: 2.156e-03   |deigs|: 1.697e-03  t[s]:     18.86
	FillingsUpdate:  mu: -0.100781859  nElectrons: 9.000000  magneticMoment: [ Abs: 0.98281  Tot: +0.98000 ]
SCF: Cycle:  6   F: -28.390971823889121   dF: -3.034e-05   |Residual|: 1.567e-03   |deigs|: 3.104e-03  t[s]:     20.76
	FillingsUpdate:  mu: -0.099634157  nElectrons: 9.000000  magneticMoment: [ Abs: 0.98368  Tot: +0.98000 ]
SCF: Cycle:  7   F: -28.391002801640646   dF: -3.098e-05   |Residual|: 1.279e-03   |deigs|: 2.808e-03  t[s]:     22.71
	FillingsUpdate:  mu: -0.098520064  nElectrons: 9.000000  magneticMoment: [ Abs: 0.98150  Tot: +0.98000 ]
SCF: Cycle:  8   F: -28.391034801551246   dF: -3.200e-05   |Residual|: 9.843e-04   |deigs|: 1.725e-03  t[s]:     24.67
	FillingsUpdate:  mu: -0.097978729  nElectrons: 9.000000  magneticMoment: [ Abs: 0.98013  Tot: +0.98000 ]
SCF: Cycle:  9   F: -28.391048885294726   dF: -1.408e-05   |Residual|: 7.644e-04   |deigs|: 7.232e-04  t[s]:     26.67
	FillingsUpdate:  mu: -0.097076430  nElectrons: 9.000000  magneticMoment: [ Abs: 0.98115  Tot: +0.98000 ]
SCF: Cycle: 10   F: -28.391057309206950   dF: -8.424e-06   |Residual|: 7.061e-04   |deigs|: 1.058e-03  t[s]:     28.68
	FillingsUpdate:  mu: -0.096306841  nElectrons: 9.000000  magneticMoment: [ Abs: 0.98272  Tot: +0.98000 ]
SCF: Cycle: 11   F: -28.391060805169666   dF: -3.496e-06   |Residual|: 5.618e-04   |deigs|: 8.751e-04  t[s]:     30.75
	FillingsUpdate:  mu: -0.096311341  nElectrons: 9.000000  magneticMoment: [ Abs: 0.98349  Tot: +0.98000 ]
SCF: Cycle: 12   F: -28.391062433845750   dF: -1.629e-06   |Residual|: 4.838e-04   |deigs|: 8.075e-04  t[s]:     32.83
	FillingsUpdate:  mu: -0.095510001  nElectrons: 9.000000  magneticMoment: [ Abs: 0.98391  Tot: +0.98000 ]
SCF: Cycle: 13   F: -28.391065394425077   dF: -2.961e-06   |Residual|: 4.227e-04   |deigs|: 1.107e-03  t[s]:     34.95
	FillingsUpdate:  mu: -0.093740958  nElectrons: 9.000000  magneticMoment: [ Abs: 0.98310  Tot: +0.98000 ]
SCF: Cycle: 14   F: -28.391067347180577   dF: -1.953e-06   |Residual|: 4.126e-04   |deigs|: 1.806e-03  t[s]:     36.97
	FillingsUpdate:  mu: -0.092574074  nElectrons: 9.000000  magneticMoment: [ Abs: 0.98228  Tot: +0.98000 ]
SCF: Cycle: 15   F: -28.391069616969535   dF: -2.270e-06   |Residual|: 3.714e-04   |deigs|: 9.722e-04  t[s]:     38.95
	FillingsUpdate:  mu: -0.091179047  nElectrons: 9.000000  magneticMoment: [ Abs: 0.98159  Tot: +0.98000 ]
SCF: Cycle: 16   F: -28.391072884166601   dF: -3.267e-06   |Residual|: 2.798e-04   |deigs|: 1.456e-03  t[s]:     40.93
	FillingsUpdate:  mu: -0.090169194  nElectrons: 9.000000  magneticMoment: [ Abs: 0.98141  Tot: +0.98000 ]
SCF: Cycle: 17   F: -28.391081632895034   dF: -8.749e-06   |Residual|: 4.293e-04   |deigs|: 1.036e-03  t[s]:     43.02
	FillingsUpdate:  mu: -0.090529335  nElectrons: 9.000000  magneticMoment: [ Abs: 0.98108  Tot: +0.98000 ]
SCF: Cycle: 18   F: -28.391082012596659   dF: -3.797e-07   |Residual|: 3.352e-04   |deigs|: 3.968e-04  t[s]:     44.95
	FillingsUpdate:  mu: -0.091294531  nElectrons: 9.000000  magneticMoment: [ Abs: 0.98086  Tot: +0.98000 ]
SCF: Cycle: 19   F: -28.391082637006580   dF: -6.244e-07   |Residual|: 1.855e-04   |deigs|: 7.744e-04  t[s]:     46.93
	FillingsUpdate:  mu: -0.091450785  nElectrons: 9.000000  magneticMoment: [ Abs: 0.98096  Tot: +0.98000 ]
SCF: Cycle: 20   F: -28.391083221322187   dF: -5.843e-07   |Residual|: 1.363e-04   |deigs|: 1.661e-04  t[s]:     49.02
	FillingsUpdate:  mu: -0.091296600  nElectrons: 9.000000  magneticMoment: [ Abs: 0.98114  Tot: +0.98000 ]
SCF: Cycle: 21   F: -28.391083529933315   dF: -3.086e-07   |Residual|: 8.095e-05   |deigs|: 3.564e-04  t[s]:     51.05
	FillingsUpdate:  mu: -0.091265733  nElectrons: 9.000000  magneticMoment: [ Abs: 0.98099  Tot: +0.98000 ]
SCF: Cycle: 22   F: -28.391083666117432   dF: -1.362e-07   |Residual|: 5.193e-05   |deigs|: 1.816e-04  t[s]:     53.09
	FillingsUpdate:  mu: -0.091296493  nElectrons: 9.000000  magneticMoment: [ Abs: 0.98074  Tot: +0.98000 ]
SCF: Cycle: 23   F: -28.391083862276627   dF: -1.962e-07   |Residual|: 3.229e-05   |deigs|: 1.431e-04  t[s]:     55.15
	FillingsUpdate:  mu: -0.091320613  nElectrons: 9.000000  magneticMoment: [ Abs: 0.98059  Tot: +0.98000 ]
SCF: Cycle: 24   F: -28.391083905529690   dF: -4.325e-08   |Residual|: 2.845e-05   |deigs|: 2.905e-04  t[s]:     57.18
	FillingsUpdate:  mu: -0.091327741  nElectrons: 9.000000  magneticMoment: [ Abs: 0.98038  Tot: +0.98000 ]
SCF: Cycle: 25   F: -28.391083931341267   dF: -2.581e-08   |Residual|: 2.250e-05   |deigs|: 8.106e-05  t[s]:     59.19
	FillingsUpdate:  mu: -0.091296151  nElectrons: 9.000000  magneticMoment: [ Abs: 0.98017  Tot: +0.98000 ]
SCF: Cycle: 26   F: -28.391083947754481   dF: -1.641e-08   |Residual|: 1.782e-05   |deigs|: 4.969e-05  t[s]:     61.21
	FillingsUpdate:  mu: -0.091269497  nElectrons: 9.000000  magneticMoment: [ Abs: 0.98009  Tot: +0.98000 ]
SCF: Cycle: 27   F: -28.391083962577884   dF: -1.482e-08   |Residual|: 1.198e-05   |deigs|: 4.125e-05  t[s]:     63.22
	FillingsUpdate:  mu: -0.091256203  nElectrons: 9.000000  magneticMoment: [ Abs: 0.98008  Tot: +0.98000 ]
SCF: Cycle: 28   F: -28.391083973370666   dF: -1.079e-08   |Residual|: 7.777e-06   |deigs|: 9.414e-05  t[s]:     65.32
	FillingsUpdate:  mu: -0.091261522  nElectrons: 9.000000  magneticMoment: [ Abs: 0.98008  Tot: +0.98000 ]
SCF: Cycle: 29   F: -28.391083976770016   dF: -3.399e-09   |Residual|: 5.930e-06   |deigs|: 1.714e-04  t[s]:     67.30
	FillingsUpdate:  mu: -0.091269390  nElectrons: 9.000000  magneticMoment: [ Abs: 0.98008  Tot: +0.98000 ]
SCF: Cycle: 30   F: -28.391083982092251   dF: -5.322e-09   |Residual|: 3.971e-06   |deigs|: 7.838e-05  t[s]:     69.36
SCF: Converged (|Delta E|<1.000000e-08 for 2 iters).


# Ionic positions in lattice coordinates:
ion K   0.000000000000000   0.000000000000000   0.000000000000000 0

# Forces in Lattice coordinates:
force K  -0.000000000000000   0.000000000000000   0.000000000000000 0

# Energy components:
   Eewald =      -18.0480261003326561
       EH =        4.9050858462640141
     Eloc =      -18.0976734398178820
      Enl =       -2.7820863296381013
   Epulay =        0.0000000041876954
      Exc =       -4.2721443662139817
       KE =        9.9037607970127581
-------------------------------------
     Etot =      -28.3910835885381445
       TS =        0.0000003935541075
-------------------------------------
        F =      -28.3910839820922511

IonicMinimize: Iter:   0  F: -28.391083982092251  |grad|_K:  0.000e+00  t[s]:     69.50
IonicMinimize: Converged (|grad|_K<1.000000e-04).

#--- Lowdin population analysis ---
# oxidation-state K +0.224
# magnetic-moments K +0.757

End date and time: Sat Feb  5 23:55:45 2022  (Duration: 0-0:01:09.53)
Done!
