
*************** JDFTx 1.6.0 (git hash 42ebbcc2) ***************

Start date and time: Sat Feb  5 23:30:08 2022
Executable jdftx with command-line: -i Alkali.in
Running on hosts (process indices):  d-4-6-1 (0-18)
Divided in process groups (process indices):  0 (0)  1 (1)  2 (2)  3 (3)  4 (4)  5 (5)  6 (6)  7 (7)  8 (8)  9 (9)  10 (10)  11 (11)  12 (12)  13 (13)  14 (14)  15 (15)  16 (16)  17 (17)  18 (18)
Resource initialization completed at t[s]:      0.00
Run totals: 19 processes, 48 threads, 0 GPUs


Input parsed successfully to the following command list (including defaults):

basis kpoint-dependent
coords-type Lattice
core-overlap-check vector
coulomb-interaction Slab 001
davidson-band-ratio 1.1
dump End None
dump-name $INPUT.$VAR
elec-cutoff 20
elec-eigen-algo Davidson
elec-ex-corr gga-PBE
elec-initial-magnetization -0.900000 yes
elec-smearing Fermi 1e-05
electronic-minimize  \
	dirUpdateScheme      FletcherReeves \
	linminMethod         DirUpdateRecommended \
	nIterations          100 \
	history              15 \
	knormThreshold       0 \
	energyDiffThreshold  1e-08 \
	nEnergyDiff          2 \
	alphaTstart          1 \
	alphaTmin            1e-10 \
	updateTestStepSize   yes \
	alphaTreduceFactor   0.1 \
	alphaTincreaseFactor 3 \
	nAlphaAdjustMax      3 \
	wolfeEnergy          0.0001 \
	wolfeGradient        0.9 \
	fdTest               no
electronic-scf  \
	nIterations	10000 \
	energyDiffThreshold	1e-08 \
	residualThreshold	1e-07 \
	mixFraction	0.5 \
	qMetric	0.8 \
	history	10 \
	nEigSteps	2 \
	eigDiffThreshold	1e-08 \
	mixedVariable	Density \
	qKerker	0.8 \
	qKappa	-1 \
	verbose	no \
	mixFractionMag	1.5
exchange-regularization WignerSeitzTruncated
fluid None
fluid-ex-corr (null) lda-PZ
fluid-gummel-loop 10 1.000000e-05
fluid-minimize  \
	dirUpdateScheme      PolakRibiere \
	linminMethod         DirUpdateRecommended \
	nIterations          100 \
	history              15 \
	knormThreshold       0 \
	energyDiffThreshold  0 \
	nEnergyDiff          2 \
	alphaTstart          1 \
	alphaTmin            1e-10 \
	updateTestStepSize   yes \
	alphaTreduceFactor   0.1 \
	alphaTincreaseFactor 3 \
	nAlphaAdjustMax      3 \
	wolfeEnergy          0.0001 \
	wolfeGradient        0.9 \
	fdTest               no
fluid-solvent H2O 55.338 ScalarEOS \
	epsBulk 78.4 \
	pMol 0.92466 \
	epsInf 1.77 \
	Pvap 1.06736e-10 \
	sigmaBulk 4.62e-05 \
	Rvdw 2.61727 \
	Res 1.42 \
	tauNuc 343133 \
	poleEl 15 7 1
forces-output-coords Positions
ion K   0.000000000000000   0.000000000000000   0.000000000000000 0
ion-species SG15/$ID_ONCV_PBE.upf
ion-width 0
ionic-minimize  \
	dirUpdateScheme      L-BFGS \
	linminMethod         DirUpdateRecommended \
	nIterations          0 \
	history              15 \
	knormThreshold       0.0001 \
	energyDiffThreshold  1e-06 \
	nEnergyDiff          2 \
	alphaTstart          1 \
	alphaTmin            1e-10 \
	updateTestStepSize   yes \
	alphaTreduceFactor   0.1 \
	alphaTincreaseFactor 3 \
	nAlphaAdjustMax      3 \
	wolfeEnergy          0.0001 \
	wolfeGradient        0.9 \
	fdTest               no
kpoint   0.000000000000   0.000000000000   0.000000000000  1.00000000000000
kpoint-folding 12 12 1 
latt-move-scale 1 1 1
latt-scale 2 2 1 
lattice  \
	   4.727486978767153   -2.363743489383575    0.000000000000000  \
	  -0.000000000000000    4.094123819672498    0.000000000000000  \
	   0.000000000000000    0.000000000000000   40.000000000000000 
lattice-minimize  \
	dirUpdateScheme      L-BFGS \
	linminMethod         DirUpdateRecommended \
	nIterations          0 \
	history              15 \
	knormThreshold       0 \
	energyDiffThreshold  1e-06 \
	nEnergyDiff          2 \
	alphaTstart          1 \
	alphaTmin            1e-10 \
	updateTestStepSize   yes \
	alphaTreduceFactor   0.1 \
	alphaTincreaseFactor 3 \
	nAlphaAdjustMax      3 \
	wolfeEnergy          0.0001 \
	wolfeGradient        0.9 \
	fdTest               no
lcao-params -1 1e-06 1e-05
pcm-variant GLSSA13
spintype z-spin
subspace-rotation-factor 1 yes
symmetries automatic
symmetry-threshold 0.0001



---------- Setting up symmetries ----------

Found 24 point-group symmetries of the bravais lattice
Found 24 space-group symmetries with basis
Applied RMS atom displacement 0 bohrs to make symmetries exact.

---------- Initializing the Grid ----------
R = 
[      9.45497     -4.72749            0  ]
[            0      8.18825            0  ]
[            0            0           40  ]
unit cell volume = 3096.79
G =
[   0.664538   0.383671         -0  ]
[          0   0.767342         -0  ]
[         -0         -0    0.15708  ]
Minimum fftbox size, Smin = [  40  40  164  ]
Chosen fftbox size, S = [  40  40  168  ]

---------- Exchange Correlation functional ----------
Initalized PBE GGA exchange.
Initalized PBE GGA correlation.

---------- Setting up pseudopotentials ----------
Width of ionic core gaussian charges (only for fluid interactions / plotting) set to 0

Reading pseudopotential file '/home/gridsan/aligho/DFT/build-Nov24/pseudopotentials/SG15/K_ONCV_PBE.upf':
  'K' pseudopotential, 'PBE' functional
  Generated using ONCVPSP code by D. R. Hamann
  Author: Martin Schlipf and Francois Gygi  Date: 150915.
  9 valence electrons, 3 orbitals, 6 projectors, 2222 radial grid points, with lMax = 2
  Transforming local potential to a uniform radial grid of dG=0.02 with 1489 points.
  Transforming nonlocal projectors to a uniform radial grid of dG=0.02 with 432 points.
    3S    l: 0   occupation:  2.0   eigenvalue: -1.298836
    3P    l: 1   occupation:  6.0   eigenvalue: -0.691386
    4S    l: 0   occupation:  1.0   eigenvalue: -0.085223
  Transforming atomic orbitals to a uniform radial grid of dG=0.02 with 432 points.
  Core radius for overlap checks: 2.06 bohrs.
  Reading pulay file /home/gridsan/aligho/DFT/build-Nov24/pseudopotentials/SG15/K_ONCV_PBE.pulay ... using dE_dnG = -1.597219e-05 computed for Ecut = 20.

Initialized 1 species with 1 total atoms.

Folded 1 k-points by 12x12x1 to 144 k-points.

---------- Setting up k-points, bands, fillings ----------
Reduced to 19 k-points under symmetry. 
Computing the number of bands and number of electrons
Calculating initial fillings.
nElectrons:   9.000000   nBands: 6   nStates: 38

----- Setting up reduced wavefunction bases (one per k-point) -----
average nbasis = 13230.521 , ideal nbasis = 13229.709

---------- Setting up coulomb interaction ----------
Initialized slab truncation along lattice direction 001

---------- Setting up 2D ewald sum ----------
Optimum gaussian width for ewald sums = 5.249020 bohr.
Real space sums over 289 unit cells with max indices [  8  8  0  ]
Reciprocal space sums over 81 terms with max indices [  4  4  0  ]

---------- Allocating electronic variables ----------
Initializing wave functions:  linear combination of atomic orbitals
Note: number of bands (6) exceeds available atomic orbitals (5)
K pseudo-atom occupations:   s ( 2 1 )  p ( 6 )
	FillingsUpdate:  mu: -0.092088938  nElectrons: 9.000000  magneticMoment: [ Abs: 0.90000  Tot: -0.90000 ]
LCAOMinimize: Iter:   0  F: -28.3811294418352666  |grad|_K:  7.609e-06  alpha:  1.000e+00
	FillingsUpdate:  mu: -0.092087065  nElectrons: 9.000000  magneticMoment: [ Abs: 0.90000  Tot: -0.90000 ]
LCAOMinimize: Iter:   1  F: -28.3811294809071875  |grad|_K:  6.591e-08  alpha:  9.866e-01  linmin: -6.505e-03  cgtest:  1.566e-01  t[s]:      4.86
LCAOMinimize: Encountered beta<0, resetting CG.
	FillingsUpdate:  mu: -0.092087091  nElectrons: 9.000000  magneticMoment: [ Abs: 0.90000  Tot: -0.90000 ]
LCAOMinimize: Iter:   2  F: -28.3811294809104169  |grad|_K:  1.004e-08  alpha:  1.150e+00  linmin:  6.787e-02  cgtest: -9.986e-01  t[s]:      6.06
LCAOMinimize: Converged (|Delta F|<1.000000e-06 for 2 iters).


---- Citations for features of the code used in this run ----

   Software package:
      R. Sundararaman, K. Letchworth-Weaver, K.A. Schwarz, D. Gunceler, Y. Ozhabes and T.A. Arias, 'JDFTx: software for joint density-functional theory', SoftwareX 6, 278 (2017)

   gga-PBE exchange-correlation functional:
      J.P. Perdew, K. Burke and M. Ernzerhof, Phys. Rev. Lett. 77, 3865 (1996)

   Pseudopotentials:
      M Schlipf and F Gygi, Comput. Phys. Commun. 196, 36 (2015)

   Truncated Coulomb potentials:
      R. Sundararaman and T.A. Arias, Phys. Rev. B 87, 165122 (2013)

This list may not be complete. Please suggest additional citations or
report any other bugs at https://github.com/shankar1729/jdftx/issues

Initialization completed successfully at t[s]:      6.15


-------- Electronic minimization -----------
Will mix electronic density at each iteration.
	FillingsUpdate:  mu: -0.092087091  nElectrons: 9.000000  magneticMoment: [ Abs: 0.90000  Tot: -0.90000 ]
	FillingsUpdate:  mu: -0.104026653  nElectrons: 9.000000  magneticMoment: [ Abs: 0.90000  Tot: -0.90000 ]
SCF: Cycle:  0   F: -28.392000767139006   dF: -1.087e-02   |Residual|: 1.706e-02   |deigs|: 1.731e-01  t[s]:      8.56
	FillingsUpdate:  mu: -0.106922979  nElectrons: 9.000000  magneticMoment: [ Abs: 0.90000  Tot: -0.90000 ]
SCF: Cycle:  1   F: -28.392707627480089   dF: -7.069e-04   |Residual|: 1.288e-02   |deigs|: 7.356e-03  t[s]:     10.41
	FillingsUpdate:  mu: -0.105812545  nElectrons: 9.000000  magneticMoment: [ Abs: 0.90291  Tot: -0.90000 ]
SCF: Cycle:  2   F: -28.392866726523742   dF: -1.591e-04   |Residual|: 8.214e-03   |deigs|: 4.756e-03  t[s]:     12.36
	FillingsUpdate:  mu: -0.106535250  nElectrons: 9.000000  magneticMoment: [ Abs: 0.90000  Tot: -0.90000 ]
SCF: Cycle:  3   F: -28.393002838487284   dF: -1.361e-04   |Residual|: 4.509e-03   |deigs|: 4.996e-03  t[s]:     14.31
	FillingsUpdate:  mu: -0.103986705  nElectrons: 9.000000  magneticMoment: [ Abs: 0.90002  Tot: -0.90000 ]
SCF: Cycle:  4   F: -28.393063552673315   dF: -6.071e-05   |Residual|: 2.474e-03   |deigs|: 3.774e-03  t[s]:     16.20
	FillingsUpdate:  mu: -0.102048212  nElectrons: 9.000000  magneticMoment: [ Abs: 0.90004  Tot: -0.90000 ]
SCF: Cycle:  5   F: -28.393089995770701   dF: -2.644e-05   |Residual|: 2.060e-03   |deigs|: 1.811e-03  t[s]:     18.17
	FillingsUpdate:  mu: -0.099947824  nElectrons: 9.000000  magneticMoment: [ Abs: 0.90352  Tot: -0.90000 ]
SCF: Cycle:  6   F: -28.393117358778774   dF: -2.736e-05   |Residual|: 1.517e-03   |deigs|: 2.979e-03  t[s]:     20.10
	FillingsUpdate:  mu: -0.097868126  nElectrons: 9.000000  magneticMoment: [ Abs: 0.90557  Tot: -0.90000 ]
SCF: Cycle:  7   F: -28.393138654924492   dF: -2.130e-05   |Residual|: 1.189e-03   |deigs|: 3.375e-03  t[s]:     22.15
	FillingsUpdate:  mu: -0.096954388  nElectrons: 9.000000  magneticMoment: [ Abs: 0.90239  Tot: -0.90000 ]
SCF: Cycle:  8   F: -28.393161600780601   dF: -2.295e-05   |Residual|: 9.616e-04   |deigs|: 1.252e-03  t[s]:     24.18
	FillingsUpdate:  mu: -0.096934685  nElectrons: 9.000000  magneticMoment: [ Abs: 0.90013  Tot: -0.90000 ]
SCF: Cycle:  9   F: -28.393180335547164   dF: -1.873e-05   |Residual|: 7.651e-04   |deigs|: 6.217e-04  t[s]:     26.26
	FillingsUpdate:  mu: -0.095880114  nElectrons: 9.000000  magneticMoment: [ Abs: 0.90219  Tot: -0.90000 ]
SCF: Cycle: 10   F: -28.393189405173771   dF: -9.070e-06   |Residual|: 6.569e-04   |deigs|: 1.060e-03  t[s]:     28.36
	FillingsUpdate:  mu: -0.094956976  nElectrons: 9.000000  magneticMoment: [ Abs: 0.90325  Tot: -0.90000 ]
SCF: Cycle: 11   F: -28.393195713196359   dF: -6.308e-06   |Residual|: 5.484e-04   |deigs|: 1.024e-03  t[s]:     30.44
	FillingsUpdate:  mu: -0.094567477  nElectrons: 9.000000  magneticMoment: [ Abs: 0.90335  Tot: -0.90000 ]
SCF: Cycle: 12   F: -28.393199059962793   dF: -3.347e-06   |Residual|: 5.010e-04   |deigs|: 7.674e-04  t[s]:     32.51
	FillingsUpdate:  mu: -0.093351671  nElectrons: 9.000000  magneticMoment: [ Abs: 0.90323  Tot: -0.90000 ]
SCF: Cycle: 13   F: -28.393202437263557   dF: -3.377e-06   |Residual|: 4.240e-04   |deigs|: 1.388e-03  t[s]:     34.64
	FillingsUpdate:  mu: -0.091793097  nElectrons: 9.000000  magneticMoment: [ Abs: 0.90257  Tot: -0.90000 ]
SCF: Cycle: 14   F: -28.393204822038847   dF: -2.385e-06   |Residual|: 4.519e-04   |deigs|: 1.634e-03  t[s]:     36.70
	FillingsUpdate:  mu: -0.090795322  nElectrons: 9.000000  magneticMoment: [ Abs: 0.90186  Tot: -0.90000 ]
SCF: Cycle: 15   F: -28.393206844798090   dF: -2.023e-06   |Residual|: 3.726e-04   |deigs|: 9.815e-04  t[s]:     38.78
	FillingsUpdate:  mu: -0.090180496  nElectrons: 9.000000  magneticMoment: [ Abs: 0.90179  Tot: -0.90000 ]
SCF: Cycle: 16   F: -28.393209754639958   dF: -2.910e-06   |Residual|: 3.268e-04   |deigs|: 8.957e-04  t[s]:     40.85
	FillingsUpdate:  mu: -0.089141806  nElectrons: 9.000000  magneticMoment: [ Abs: 0.90136  Tot: -0.90000 ]
SCF: Cycle: 17   F: -28.393211249086843   dF: -1.494e-06   |Residual|: 1.970e-04   |deigs|: 9.660e-04  t[s]:     42.89
	FillingsUpdate:  mu: -0.088795537  nElectrons: 9.000000  magneticMoment: [ Abs: 0.90117  Tot: -0.90000 ]
SCF: Cycle: 18   F: -28.393212852382788   dF: -1.603e-06   |Residual|: 1.528e-04   |deigs|: 4.592e-04  t[s]:     45.07
	FillingsUpdate:  mu: -0.088846317  nElectrons: 9.000000  magneticMoment: [ Abs: 0.90101  Tot: -0.90000 ]
SCF: Cycle: 19   F: -28.393213268338606   dF: -4.160e-07   |Residual|: 1.092e-04   |deigs|: 2.426e-04  t[s]:     47.14
	FillingsUpdate:  mu: -0.088899428  nElectrons: 9.000000  magneticMoment: [ Abs: 0.90080  Tot: -0.90000 ]
SCF: Cycle: 20   F: -28.393214024124088   dF: -7.558e-07   |Residual|: 2.849e-04   |deigs|: 1.979e-04  t[s]:     49.21
	FillingsUpdate:  mu: -0.089067233  nElectrons: 9.000000  magneticMoment: [ Abs: 0.90067  Tot: -0.90000 ]
SCF: Cycle: 21   F: -28.393214157723058   dF: -1.336e-07   |Residual|: 2.769e-04   |deigs|: 2.248e-04  t[s]:     51.17
	FillingsUpdate:  mu: -0.089031769  nElectrons: 9.000000  magneticMoment: [ Abs: 0.90064  Tot: -0.90000 ]
SCF: Cycle: 22   F: -28.393214207864073   dF: -5.014e-08   |Residual|: 2.960e-04   |deigs|: 1.903e-04  t[s]:     53.15
	FillingsUpdate:  mu: -0.089160338  nElectrons: 9.000000  magneticMoment: [ Abs: 0.90074  Tot: -0.90000 ]
SCF: Cycle: 23   F: -28.393214421005865   dF: -2.131e-07   |Residual|: 2.846e-04   |deigs|: 2.010e-04  t[s]:     55.23
	FillingsUpdate:  mu: -0.089202808  nElectrons: 9.000000  magneticMoment: [ Abs: 0.90073  Tot: -0.90000 ]
SCF: Cycle: 24   F: -28.393214489177751   dF: -6.817e-08   |Residual|: 2.294e-04   |deigs|: 1.772e-04  t[s]:     57.33
	FillingsUpdate:  mu: -0.089287473  nElectrons: 9.000000  magneticMoment: [ Abs: 0.90065  Tot: -0.90000 ]
SCF: Cycle: 25   F: -28.393214558963972   dF: -6.979e-08   |Residual|: 1.974e-04   |deigs|: 1.797e-04  t[s]:     59.39
	FillingsUpdate:  mu: -0.089508121  nElectrons: 9.000000  magneticMoment: [ Abs: 0.90053  Tot: -0.90000 ]
SCF: Cycle: 26   F: -28.393214594857284   dF: -3.589e-08   |Residual|: 1.016e-04   |deigs|: 2.440e-04  t[s]:     61.49
	FillingsUpdate:  mu: -0.089896635  nElectrons: 9.000000  magneticMoment: [ Abs: 0.90050  Tot: -0.90000 ]
SCF: Cycle: 27   F: -28.393214678273928   dF: -8.342e-08   |Residual|: 8.768e-05   |deigs|: 4.172e-04  t[s]:     63.57
	FillingsUpdate:  mu: -0.090000858  nElectrons: 9.000000  magneticMoment: [ Abs: 0.90046  Tot: -0.90000 ]
SCF: Cycle: 28   F: -28.393214689660795   dF: -1.139e-08   |Residual|: 9.038e-05   |deigs|: 1.224e-04  t[s]:     65.63
	FillingsUpdate:  mu: -0.089962431  nElectrons: 9.000000  magneticMoment: [ Abs: 0.90046  Tot: -0.90000 ]
SCF: Cycle: 29   F: -28.393214705522535   dF: -1.586e-08   |Residual|: 6.646e-05   |deigs|: 4.867e-05  t[s]:     67.75
	FillingsUpdate:  mu: -0.089804005  nElectrons: 9.000000  magneticMoment: [ Abs: 0.90041  Tot: -0.90000 ]
SCF: Cycle: 30   F: -28.393214718628624   dF: -1.311e-08   |Residual|: 2.550e-05   |deigs|: 1.592e-04  t[s]:     69.89
	FillingsUpdate:  mu: -0.089730456  nElectrons: 9.000000  magneticMoment: [ Abs: 0.90036  Tot: -0.90000 ]
SCF: Cycle: 31   F: -28.393214721701963   dF: -3.073e-09   |Residual|: 2.448e-05   |deigs|: 7.448e-05  t[s]:     71.97
	FillingsUpdate:  mu: -0.089751742  nElectrons: 9.000000  magneticMoment: [ Abs: 0.90024  Tot: -0.90000 ]
SCF: Cycle: 32   F: -28.393214735053132   dF: -1.335e-08   |Residual|: 1.439e-05   |deigs|: 4.394e-05  t[s]:     74.02
	FillingsUpdate:  mu: -0.089778671  nElectrons: 9.000000  magneticMoment: [ Abs: 0.90014  Tot: -0.90000 ]
SCF: Cycle: 33   F: -28.393214739976191   dF: -4.923e-09   |Residual|: 1.139e-05   |deigs|: 2.807e-05  t[s]:     76.05
	FillingsUpdate:  mu: -0.089786519  nElectrons: 9.000000  magneticMoment: [ Abs: 0.90009  Tot: -0.90000 ]
SCF: Cycle: 34   F: -28.393214745308253   dF: -5.332e-09   |Residual|: 7.304e-06   |deigs|: 9.333e-06  t[s]:     78.13
SCF: Converged (|Delta E|<1.000000e-08 for 2 iters).


# Ionic positions in lattice coordinates:
ion K   0.000000000000000   0.000000000000000   0.000000000000000 0

# Forces in Lattice coordinates:
force K   0.000000000000000   0.000000000000000   0.000000000000000 0

# Energy components:
   Eewald =      -18.0480261003326561
       EH =        4.8971592871241434
     Eloc =      -18.0896227438469523
      Enl =       -2.7804948731779358
   Epulay =        0.0000000041876954
      Exc =       -4.2706071525197649
       KE =        9.8983773875670078
-------------------------------------
     Etot =      -28.3932141909984566
       TS =        0.0000005543097967
-------------------------------------
        F =      -28.3932147453082528

IonicMinimize: Iter:   0  F: -28.393214745308253  |grad|_K:  0.000e+00  t[s]:     78.25
IonicMinimize: Converged (|grad|_K<1.000000e-04).

#--- Lowdin population analysis ---
# oxidation-state K +0.190
# magnetic-moments K -0.712

End date and time: Sat Feb  5 23:31:27 2022  (Duration: 0-0:01:18.28)
Done!
