
*************** JDFTx 1.6.0 (git hash 42ebbcc2) ***************

Start date and time: Sat Feb  5 23:49:25 2022
Executable jdftx with command-line: -i Alkali.in
Running on hosts (process indices):  d-4-2-2 (0-18)
Divided in process groups (process indices):  0 (0)  1 (1)  2 (2)  3 (3)  4 (4)  5 (5)  6 (6)  7 (7)  8 (8)  9 (9)  10 (10)  11 (11)  12 (12)  13 (13)  14 (14)  15 (15)  16 (16)  17 (17)  18 (18)
Resource initialization completed at t[s]:      0.00
Run totals: 19 processes, 48 threads, 0 GPUs


Input parsed successfully to the following command list (including defaults):

basis kpoint-dependent
coords-type Lattice
core-overlap-check vector
coulomb-interaction Slab 001
davidson-band-ratio 1.1
dump End None
dump-name $INPUT.$VAR
elec-cutoff 20
elec-eigen-algo Davidson
elec-ex-corr gga-PBE
elec-initial-magnetization 0.660000 yes
elec-smearing Fermi 1e-05
electronic-minimize  \
	dirUpdateScheme      FletcherReeves \
	linminMethod         DirUpdateRecommended \
	nIterations          100 \
	history              15 \
	knormThreshold       0 \
	energyDiffThreshold  1e-08 \
	nEnergyDiff          2 \
	alphaTstart          1 \
	alphaTmin            1e-10 \
	updateTestStepSize   yes \
	alphaTreduceFactor   0.1 \
	alphaTincreaseFactor 3 \
	nAlphaAdjustMax      3 \
	wolfeEnergy          0.0001 \
	wolfeGradient        0.9 \
	fdTest               no
electronic-scf  \
	nIterations	10000 \
	energyDiffThreshold	1e-08 \
	residualThreshold	1e-07 \
	mixFraction	0.5 \
	qMetric	0.8 \
	history	10 \
	nEigSteps	2 \
	eigDiffThreshold	1e-08 \
	mixedVariable	Density \
	qKerker	0.8 \
	qKappa	-1 \
	verbose	no \
	mixFractionMag	1.5
exchange-regularization WignerSeitzTruncated
fluid None
fluid-ex-corr (null) lda-PZ
fluid-gummel-loop 10 1.000000e-05
fluid-minimize  \
	dirUpdateScheme      PolakRibiere \
	linminMethod         DirUpdateRecommended \
	nIterations          100 \
	history              15 \
	knormThreshold       0 \
	energyDiffThreshold  0 \
	nEnergyDiff          2 \
	alphaTstart          1 \
	alphaTmin            1e-10 \
	updateTestStepSize   yes \
	alphaTreduceFactor   0.1 \
	alphaTincreaseFactor 3 \
	nAlphaAdjustMax      3 \
	wolfeEnergy          0.0001 \
	wolfeGradient        0.9 \
	fdTest               no
fluid-solvent H2O 55.338 ScalarEOS \
	epsBulk 78.4 \
	pMol 0.92466 \
	epsInf 1.77 \
	Pvap 1.06736e-10 \
	sigmaBulk 4.62e-05 \
	Rvdw 2.61727 \
	Res 1.42 \
	tauNuc 343133 \
	poleEl 15 7 1
forces-output-coords Positions
ion K   0.000000000000000   0.000000000000000   0.000000000000000 0
ion-species SG15/$ID_ONCV_PBE.upf
ion-width 0
ionic-minimize  \
	dirUpdateScheme      L-BFGS \
	linminMethod         DirUpdateRecommended \
	nIterations          0 \
	history              15 \
	knormThreshold       0.0001 \
	energyDiffThreshold  1e-06 \
	nEnergyDiff          2 \
	alphaTstart          1 \
	alphaTmin            1e-10 \
	updateTestStepSize   yes \
	alphaTreduceFactor   0.1 \
	alphaTincreaseFactor 3 \
	nAlphaAdjustMax      3 \
	wolfeEnergy          0.0001 \
	wolfeGradient        0.9 \
	fdTest               no
kpoint   0.000000000000   0.000000000000   0.000000000000  1.00000000000000
kpoint-folding 12 12 1 
latt-move-scale 1 1 1
latt-scale 2 2 1 
lattice  \
	   4.727486978767153   -2.363743489383575    0.000000000000000  \
	  -0.000000000000000    4.094123819672498    0.000000000000000  \
	   0.000000000000000    0.000000000000000   40.000000000000000 
lattice-minimize  \
	dirUpdateScheme      L-BFGS \
	linminMethod         DirUpdateRecommended \
	nIterations          0 \
	history              15 \
	knormThreshold       0 \
	energyDiffThreshold  1e-06 \
	nEnergyDiff          2 \
	alphaTstart          1 \
	alphaTmin            1e-10 \
	updateTestStepSize   yes \
	alphaTreduceFactor   0.1 \
	alphaTincreaseFactor 3 \
	nAlphaAdjustMax      3 \
	wolfeEnergy          0.0001 \
	wolfeGradient        0.9 \
	fdTest               no
lcao-params -1 1e-06 1e-05
pcm-variant GLSSA13
spintype z-spin
subspace-rotation-factor 1 yes
symmetries automatic
symmetry-threshold 0.0001



---------- Setting up symmetries ----------

Found 24 point-group symmetries of the bravais lattice
Found 24 space-group symmetries with basis
Applied RMS atom displacement 0 bohrs to make symmetries exact.

---------- Initializing the Grid ----------
R = 
[      9.45497     -4.72749            0  ]
[            0      8.18825            0  ]
[            0            0           40  ]
unit cell volume = 3096.79
G =
[   0.664538   0.383671         -0  ]
[          0   0.767342         -0  ]
[         -0         -0    0.15708  ]
Minimum fftbox size, Smin = [  40  40  164  ]
Chosen fftbox size, S = [  40  40  168  ]

---------- Exchange Correlation functional ----------
Initalized PBE GGA exchange.
Initalized PBE GGA correlation.

---------- Setting up pseudopotentials ----------
Width of ionic core gaussian charges (only for fluid interactions / plotting) set to 0

Reading pseudopotential file '/home/gridsan/aligho/DFT/build-Nov24/pseudopotentials/SG15/K_ONCV_PBE.upf':
  'K' pseudopotential, 'PBE' functional
  Generated using ONCVPSP code by D. R. Hamann
  Author: Martin Schlipf and Francois Gygi  Date: 150915.
  9 valence electrons, 3 orbitals, 6 projectors, 2222 radial grid points, with lMax = 2
  Transforming local potential to a uniform radial grid of dG=0.02 with 1489 points.
  Transforming nonlocal projectors to a uniform radial grid of dG=0.02 with 432 points.
    3S    l: 0   occupation:  2.0   eigenvalue: -1.298836
    3P    l: 1   occupation:  6.0   eigenvalue: -0.691386
    4S    l: 0   occupation:  1.0   eigenvalue: -0.085223
  Transforming atomic orbitals to a uniform radial grid of dG=0.02 with 432 points.
  Core radius for overlap checks: 2.06 bohrs.
  Reading pulay file /home/gridsan/aligho/DFT/build-Nov24/pseudopotentials/SG15/K_ONCV_PBE.pulay ... using dE_dnG = -1.597219e-05 computed for Ecut = 20.

Initialized 1 species with 1 total atoms.

Folded 1 k-points by 12x12x1 to 144 k-points.

---------- Setting up k-points, bands, fillings ----------
Reduced to 19 k-points under symmetry. 
Computing the number of bands and number of electrons
Calculating initial fillings.
nElectrons:   9.000000   nBands: 6   nStates: 38

----- Setting up reduced wavefunction bases (one per k-point) -----
average nbasis = 13230.521 , ideal nbasis = 13229.709

---------- Setting up coulomb interaction ----------
Initialized slab truncation along lattice direction 001

---------- Setting up 2D ewald sum ----------
Optimum gaussian width for ewald sums = 5.249020 bohr.
Real space sums over 289 unit cells with max indices [  8  8  0  ]
Reciprocal space sums over 81 terms with max indices [  4  4  0  ]

---------- Allocating electronic variables ----------
Initializing wave functions:  linear combination of atomic orbitals
Note: number of bands (6) exceeds available atomic orbitals (5)
K pseudo-atom occupations:   s ( 2 1 )  p ( 6 )
	FillingsUpdate:  mu: -0.098131848  nElectrons: 9.000000  magneticMoment: [ Abs: 0.66000  Tot: +0.66000 ]
LCAOMinimize: Iter:   0  F: -28.3891333845946292  |grad|_K:  2.335e-05  alpha:  1.000e+00
	FillingsUpdate:  mu: -0.098126110  nElectrons: 9.000000  magneticMoment: [ Abs: 0.66000  Tot: +0.66000 ]
LCAOMinimize: Iter:   1  F: -28.3891337511336133  |grad|_K:  2.162e-07  alpha:  9.830e-01  linmin: -2.017e-02  cgtest:  3.378e-01  t[s]:      4.78
LCAOMinimize: Encountered beta<0, resetting CG.
	FillingsUpdate:  mu: -0.098126153  nElectrons: 9.000000  magneticMoment: [ Abs: 0.66000  Tot: +0.66000 ]
LCAOMinimize: Iter:   2  F: -28.3891337511659216  |grad|_K:  1.648e-09  alpha:  1.008e+00  linmin:  9.755e-02  cgtest: -8.706e-01  t[s]:      6.07
LCAOMinimize: Converged (|Delta F|<1.000000e-06 for 2 iters).


---- Citations for features of the code used in this run ----

   Software package:
      R. Sundararaman, K. Letchworth-Weaver, K.A. Schwarz, D. Gunceler, Y. Ozhabes and T.A. Arias, 'JDFTx: software for joint density-functional theory', SoftwareX 6, 278 (2017)

   gga-PBE exchange-correlation functional:
      J.P. Perdew, K. Burke and M. Ernzerhof, Phys. Rev. Lett. 77, 3865 (1996)

   Pseudopotentials:
      M Schlipf and F Gygi, Comput. Phys. Commun. 196, 36 (2015)

   Truncated Coulomb potentials:
      R. Sundararaman and T.A. Arias, Phys. Rev. B 87, 165122 (2013)

This list may not be complete. Please suggest additional citations or
report any other bugs at https://github.com/shankar1729/jdftx/issues

Initialization completed successfully at t[s]:      6.17


-------- Electronic minimization -----------
Will mix electronic density at each iteration.
	FillingsUpdate:  mu: -0.098126153  nElectrons: 9.000000  magneticMoment: [ Abs: 0.66000  Tot: +0.66000 ]
	FillingsUpdate:  mu: -0.107887282  nElectrons: 9.000000  magneticMoment: [ Abs: 0.66000  Tot: +0.66000 ]
SCF: Cycle:  0   F: -28.397717153131524   dF: -8.583e-03   |Residual|: 1.338e-02   |deigs|: 1.732e-01  t[s]:      8.66
	FillingsUpdate:  mu: -0.108352825  nElectrons: 9.000000  magneticMoment: [ Abs: 0.66000  Tot: +0.66000 ]
SCF: Cycle:  1   F: -28.398081993560389   dF: -3.648e-04   |Residual|: 9.825e-03   |deigs|: 8.083e-03  t[s]:     10.55
	FillingsUpdate:  mu: -0.108203471  nElectrons: 9.000000  magneticMoment: [ Abs: 0.66323  Tot: +0.66000 ]
SCF: Cycle:  2   F: -28.398178715547587   dF: -9.672e-05   |Residual|: 5.909e-03   |deigs|: 3.741e-03  t[s]:     12.55
	FillingsUpdate:  mu: -0.106513287  nElectrons: 9.000000  magneticMoment: [ Abs: 0.66000  Tot: +0.66000 ]
SCF: Cycle:  3   F: -28.398249233639707   dF: -7.052e-05   |Residual|: 3.419e-03   |deigs|: 3.914e-03  t[s]:     14.48
	FillingsUpdate:  mu: -0.104879571  nElectrons: 9.000000  magneticMoment: [ Abs: 0.66002  Tot: +0.66000 ]
SCF: Cycle:  4   F: -28.398296205387716   dF: -4.697e-05   |Residual|: 2.047e-03   |deigs|: 3.846e-03  t[s]:     16.44
	FillingsUpdate:  mu: -0.103376645  nElectrons: 9.000000  magneticMoment: [ Abs: 0.66049  Tot: +0.66000 ]
SCF: Cycle:  5   F: -28.398317731859944   dF: -2.153e-05   |Residual|: 1.748e-03   |deigs|: 3.223e-03  t[s]:     18.45
	FillingsUpdate:  mu: -0.101303487  nElectrons: 9.000000  magneticMoment: [ Abs: 0.66541  Tot: +0.66000 ]
SCF: Cycle:  6   F: -28.398326691336226   dF: -8.959e-06   |Residual|: 1.242e-03   |deigs|: 2.417e-03  t[s]:     20.55
	FillingsUpdate:  mu: -0.099194411  nElectrons: 9.000000  magneticMoment: [ Abs: 0.66664  Tot: +0.66000 ]
SCF: Cycle:  7   F: -28.398348391758077   dF: -2.170e-05   |Residual|: 9.756e-04   |deigs|: 2.814e-03  t[s]:     22.56
	FillingsUpdate:  mu: -0.098782432  nElectrons: 9.000000  magneticMoment: [ Abs: 0.66155  Tot: +0.66000 ]
SCF: Cycle:  8   F: -28.398369445407425   dF: -2.105e-05   |Residual|: 7.842e-04   |deigs|: 7.444e-04  t[s]:     24.62
	FillingsUpdate:  mu: -0.098028381  nElectrons: 9.000000  magneticMoment: [ Abs: 0.66126  Tot: +0.66000 ]
SCF: Cycle:  9   F: -28.398376704695881   dF: -7.259e-06   |Residual|: 6.446e-04   |deigs|: 8.353e-04  t[s]:     26.71
	FillingsUpdate:  mu: -0.096785119  nElectrons: 9.000000  magneticMoment: [ Abs: 0.66336  Tot: +0.66000 ]
SCF: Cycle: 10   F: -28.398378537914002   dF: -1.833e-06   |Residual|: 5.436e-04   |deigs|: 1.296e-03  t[s]:     28.85
	FillingsUpdate:  mu: -0.095910996  nElectrons: 9.000000  magneticMoment: [ Abs: 0.66339  Tot: +0.66000 ]
SCF: Cycle: 11   F: -28.398380354273392   dF: -1.816e-06   |Residual|: 4.954e-04   |deigs|: 8.561e-04  t[s]:     30.99
	FillingsUpdate:  mu: -0.095065846  nElectrons: 9.000000  magneticMoment: [ Abs: 0.66339  Tot: +0.66000 ]
SCF: Cycle: 12   F: -28.398387293503081   dF: -6.939e-06   |Residual|: 4.364e-04   |deigs|: 8.209e-04  t[s]:     33.09
	FillingsUpdate:  mu: -0.093972085  nElectrons: 9.000000  magneticMoment: [ Abs: 0.66468  Tot: +0.66000 ]
SCF: Cycle: 13   F: -28.398392888412296   dF: -5.595e-06   |Residual|: 3.833e-04   |deigs|: 1.125e-03  t[s]:     35.25
	FillingsUpdate:  mu: -0.092478718  nElectrons: 9.000000  magneticMoment: [ Abs: 0.66281  Tot: +0.66000 ]
SCF: Cycle: 14   F: -28.398397253537293   dF: -4.365e-06   |Residual|: 3.750e-04   |deigs|: 1.557e-03  t[s]:     37.38
	FillingsUpdate:  mu: -0.091537678  nElectrons: 9.000000  magneticMoment: [ Abs: 0.66055  Tot: +0.66000 ]
SCF: Cycle: 15   F: -28.398399879495564   dF: -2.626e-06   |Residual|: 3.236e-04   |deigs|: 1.026e-03  t[s]:     39.45
	FillingsUpdate:  mu: -0.090940985  nElectrons: 9.000000  magneticMoment: [ Abs: 0.66125  Tot: +0.66000 ]
SCF: Cycle: 16   F: -28.398401893003548   dF: -2.014e-06   |Residual|: 2.393e-04   |deigs|: 6.592e-04  t[s]:     41.57
	FillingsUpdate:  mu: -0.090532635  nElectrons: 9.000000  magneticMoment: [ Abs: 0.66067  Tot: +0.66000 ]
SCF: Cycle: 17   F: -28.398402882734882   dF: -9.897e-07   |Residual|: 1.735e-04   |deigs|: 5.203e-04  t[s]:     43.73
	FillingsUpdate:  mu: -0.090327912  nElectrons: 9.000000  magneticMoment: [ Abs: 0.66066  Tot: +0.66000 ]
SCF: Cycle: 18   F: -28.398403353872464   dF: -4.711e-07   |Residual|: 1.074e-04   |deigs|: 3.898e-04  t[s]:     45.90
	FillingsUpdate:  mu: -0.090295398  nElectrons: 9.000000  magneticMoment: [ Abs: 0.66066  Tot: +0.66000 ]
SCF: Cycle: 19   F: -28.398403716565625   dF: -3.627e-07   |Residual|: 6.217e-05   |deigs|: 2.796e-04  t[s]:     48.04
	FillingsUpdate:  mu: -0.090348186  nElectrons: 9.000000  magneticMoment: [ Abs: 0.66047  Tot: +0.66000 ]
SCF: Cycle: 20   F: -28.398403809468569   dF: -9.290e-08   |Residual|: 4.285e-05   |deigs|: 2.271e-04  t[s]:     50.13
	FillingsUpdate:  mu: -0.090334153  nElectrons: 9.000000  magneticMoment: [ Abs: 0.66036  Tot: +0.66000 ]
SCF: Cycle: 21   F: -28.398403864583067   dF: -5.511e-08   |Residual|: 2.473e-05   |deigs|: 1.341e-04  t[s]:     52.21
	FillingsUpdate:  mu: -0.090326104  nElectrons: 9.000000  magneticMoment: [ Abs: 0.66029  Tot: +0.66000 ]
SCF: Cycle: 22   F: -28.398403898824363   dF: -3.424e-08   |Residual|: 1.620e-05   |deigs|: 8.923e-05  t[s]:     54.25
	FillingsUpdate:  mu: -0.090329319  nElectrons: 9.000000  magneticMoment: [ Abs: 0.66025  Tot: +0.66000 ]
SCF: Cycle: 23   F: -28.398403924528537   dF: -2.570e-08   |Residual|: 1.424e-05   |deigs|: 7.351e-05  t[s]:     56.45
	FillingsUpdate:  mu: -0.090327782  nElectrons: 9.000000  magneticMoment: [ Abs: 0.66019  Tot: +0.66000 ]
SCF: Cycle: 24   F: -28.398403941318964   dF: -1.679e-08   |Residual|: 1.203e-05   |deigs|: 7.213e-05  t[s]:     58.73
	FillingsUpdate:  mu: -0.090319004  nElectrons: 9.000000  magneticMoment: [ Abs: 0.66015  Tot: +0.66000 ]
SCF: Cycle: 25   F: -28.398403950688980   dF: -9.370e-09   |Residual|: 1.099e-05   |deigs|: 8.977e-05  t[s]:     60.86
	FillingsUpdate:  mu: -0.090309031  nElectrons: 9.000000  magneticMoment: [ Abs: 0.66012  Tot: +0.66000 ]
SCF: Cycle: 26   F: -28.398403958008188   dF: -7.319e-09   |Residual|: 7.277e-06   |deigs|: 1.230e-04  t[s]:     63.05
SCF: Converged (|Delta E|<1.000000e-08 for 2 iters).


# Ionic positions in lattice coordinates:
ion K   0.000000000000000   0.000000000000000   0.000000000000000 0

# Forces in Lattice coordinates:
force K   0.000000000000000   0.000000000000000   0.000000000000000 0

# Energy components:
   Eewald =      -18.0480261003326561
       EH =        4.8871740616687687
     Eloc =      -18.0796185437203611
      Enl =       -2.7770897728781865
   Epulay =        0.0000000041876954
      Exc =       -4.2670101946928121
       KE =        9.8861674735103122
-------------------------------------
     Etot =      -28.3984030722572385
       TS =        0.0000008857509500
-------------------------------------
        F =      -28.3984039580081884

IonicMinimize: Iter:   0  F: -28.398403958008188  |grad|_K:  0.000e+00  t[s]:     63.17
IonicMinimize: Converged (|grad|_K<1.000000e-04).

#--- Lowdin population analysis ---
# oxidation-state K +0.113
# magnetic-moments K +0.553

End date and time: Sat Feb  5 23:50:28 2022  (Duration: 0-0:01:03.20)
Done!
