
*************** JDFTx 1.6.0 (git hash 42ebbcc2) ***************

Start date and time: Sat Feb  5 23:48:21 2022
Executable jdftx with command-line: -i Alkali.in
Running on hosts (process indices):  d-6-4-1 (0-18)
Divided in process groups (process indices):  0 (0)  1 (1)  2 (2)  3 (3)  4 (4)  5 (5)  6 (6)  7 (7)  8 (8)  9 (9)  10 (10)  11 (11)  12 (12)  13 (13)  14 (14)  15 (15)  16 (16)  17 (17)  18 (18)
Resource initialization completed at t[s]:      0.00
Run totals: 19 processes, 48 threads, 0 GPUs


Input parsed successfully to the following command list (including defaults):

basis kpoint-dependent
coords-type Lattice
core-overlap-check vector
coulomb-interaction Slab 001
davidson-band-ratio 1.1
dump End None
dump-name $INPUT.$VAR
elec-cutoff 20
elec-eigen-algo Davidson
elec-ex-corr gga-PBE
elec-initial-magnetization 0.540000 yes
elec-smearing Fermi 1e-05
electronic-minimize  \
	dirUpdateScheme      FletcherReeves \
	linminMethod         DirUpdateRecommended \
	nIterations          100 \
	history              15 \
	knormThreshold       0 \
	energyDiffThreshold  1e-08 \
	nEnergyDiff          2 \
	alphaTstart          1 \
	alphaTmin            1e-10 \
	updateTestStepSize   yes \
	alphaTreduceFactor   0.1 \
	alphaTincreaseFactor 3 \
	nAlphaAdjustMax      3 \
	wolfeEnergy          0.0001 \
	wolfeGradient        0.9 \
	fdTest               no
electronic-scf  \
	nIterations	10000 \
	energyDiffThreshold	1e-08 \
	residualThreshold	1e-07 \
	mixFraction	0.5 \
	qMetric	0.8 \
	history	10 \
	nEigSteps	2 \
	eigDiffThreshold	1e-08 \
	mixedVariable	Density \
	qKerker	0.8 \
	qKappa	-1 \
	verbose	no \
	mixFractionMag	1.5
exchange-regularization WignerSeitzTruncated
fluid None
fluid-ex-corr (null) lda-PZ
fluid-gummel-loop 10 1.000000e-05
fluid-minimize  \
	dirUpdateScheme      PolakRibiere \
	linminMethod         DirUpdateRecommended \
	nIterations          100 \
	history              15 \
	knormThreshold       0 \
	energyDiffThreshold  0 \
	nEnergyDiff          2 \
	alphaTstart          1 \
	alphaTmin            1e-10 \
	updateTestStepSize   yes \
	alphaTreduceFactor   0.1 \
	alphaTincreaseFactor 3 \
	nAlphaAdjustMax      3 \
	wolfeEnergy          0.0001 \
	wolfeGradient        0.9 \
	fdTest               no
fluid-solvent H2O 55.338 ScalarEOS \
	epsBulk 78.4 \
	pMol 0.92466 \
	epsInf 1.77 \
	Pvap 1.06736e-10 \
	sigmaBulk 4.62e-05 \
	Rvdw 2.61727 \
	Res 1.42 \
	tauNuc 343133 \
	poleEl 15 7 1
forces-output-coords Positions
ion K   0.000000000000000   0.000000000000000   0.000000000000000 0
ion-species SG15/$ID_ONCV_PBE.upf
ion-width 0
ionic-minimize  \
	dirUpdateScheme      L-BFGS \
	linminMethod         DirUpdateRecommended \
	nIterations          0 \
	history              15 \
	knormThreshold       0.0001 \
	energyDiffThreshold  1e-06 \
	nEnergyDiff          2 \
	alphaTstart          1 \
	alphaTmin            1e-10 \
	updateTestStepSize   yes \
	alphaTreduceFactor   0.1 \
	alphaTincreaseFactor 3 \
	nAlphaAdjustMax      3 \
	wolfeEnergy          0.0001 \
	wolfeGradient        0.9 \
	fdTest               no
kpoint   0.000000000000   0.000000000000   0.000000000000  1.00000000000000
kpoint-folding 12 12 1 
latt-move-scale 1 1 1
latt-scale 2 2 1 
lattice  \
	   4.727486978767153   -2.363743489383575    0.000000000000000  \
	  -0.000000000000000    4.094123819672498    0.000000000000000  \
	   0.000000000000000    0.000000000000000   40.000000000000000 
lattice-minimize  \
	dirUpdateScheme      L-BFGS \
	linminMethod         DirUpdateRecommended \
	nIterations          0 \
	history              15 \
	knormThreshold       0 \
	energyDiffThreshold  1e-06 \
	nEnergyDiff          2 \
	alphaTstart          1 \
	alphaTmin            1e-10 \
	updateTestStepSize   yes \
	alphaTreduceFactor   0.1 \
	alphaTincreaseFactor 3 \
	nAlphaAdjustMax      3 \
	wolfeEnergy          0.0001 \
	wolfeGradient        0.9 \
	fdTest               no
lcao-params -1 1e-06 1e-05
pcm-variant GLSSA13
spintype z-spin
subspace-rotation-factor 1 yes
symmetries automatic
symmetry-threshold 0.0001



---------- Setting up symmetries ----------

Found 24 point-group symmetries of the bravais lattice
Found 24 space-group symmetries with basis
Applied RMS atom displacement 0 bohrs to make symmetries exact.

---------- Initializing the Grid ----------
R = 
[      9.45497     -4.72749            0  ]
[            0      8.18825            0  ]
[            0            0           40  ]
unit cell volume = 3096.79
G =
[   0.664538   0.383671         -0  ]
[          0   0.767342         -0  ]
[         -0         -0    0.15708  ]
Minimum fftbox size, Smin = [  40  40  164  ]
Chosen fftbox size, S = [  40  40  168  ]

---------- Exchange Correlation functional ----------
Initalized PBE GGA exchange.
Initalized PBE GGA correlation.

---------- Setting up pseudopotentials ----------
Width of ionic core gaussian charges (only for fluid interactions / plotting) set to 0

Reading pseudopotential file '/home/gridsan/aligho/DFT/build-Nov24/pseudopotentials/SG15/K_ONCV_PBE.upf':
  'K' pseudopotential, 'PBE' functional
  Generated using ONCVPSP code by D. R. Hamann
  Author: Martin Schlipf and Francois Gygi  Date: 150915.
  9 valence electrons, 3 orbitals, 6 projectors, 2222 radial grid points, with lMax = 2
  Transforming local potential to a uniform radial grid of dG=0.02 with 1489 points.
  Transforming nonlocal projectors to a uniform radial grid of dG=0.02 with 432 points.
    3S    l: 0   occupation:  2.0   eigenvalue: -1.298836
    3P    l: 1   occupation:  6.0   eigenvalue: -0.691386
    4S    l: 0   occupation:  1.0   eigenvalue: -0.085223
  Transforming atomic orbitals to a uniform radial grid of dG=0.02 with 432 points.
  Core radius for overlap checks: 2.06 bohrs.
  Reading pulay file /home/gridsan/aligho/DFT/build-Nov24/pseudopotentials/SG15/K_ONCV_PBE.pulay ... using dE_dnG = -1.597219e-05 computed for Ecut = 20.

Initialized 1 species with 1 total atoms.

Folded 1 k-points by 12x12x1 to 144 k-points.

---------- Setting up k-points, bands, fillings ----------
Reduced to 19 k-points under symmetry. 
Computing the number of bands and number of electrons
Calculating initial fillings.
nElectrons:   9.000000   nBands: 6   nStates: 38

----- Setting up reduced wavefunction bases (one per k-point) -----
average nbasis = 13230.521 , ideal nbasis = 13229.709

---------- Setting up coulomb interaction ----------
Initialized slab truncation along lattice direction 001

---------- Setting up 2D ewald sum ----------
Optimum gaussian width for ewald sums = 5.249020 bohr.
Real space sums over 289 unit cells with max indices [  8  8  0  ]
Reciprocal space sums over 81 terms with max indices [  4  4  0  ]

---------- Allocating electronic variables ----------
Initializing wave functions:  linear combination of atomic orbitals
Note: number of bands (6) exceeds available atomic orbitals (5)
K pseudo-atom occupations:   s ( 2 1 )  p ( 6 )
	FillingsUpdate:  mu: -0.096161089  nElectrons: 9.000000  magneticMoment: [ Abs: 0.54000  Tot: +0.54000 ]
LCAOMinimize: Iter:   0  F: -28.3921465387273670  |grad|_K:  2.989e-05  alpha:  1.000e+00
	FillingsUpdate:  mu: -0.096152879  nElectrons: 9.000000  magneticMoment: [ Abs: 0.54000  Tot: +0.54000 ]
LCAOMinimize: Iter:   1  F: -28.3921471386366449  |grad|_K:  2.900e-07  alpha:  9.819e-01  linmin: -2.441e-02  cgtest:  4.094e-01  t[s]:      4.46
LCAOMinimize: Encountered beta<0, resetting CG.
	FillingsUpdate:  mu: -0.096152918  nElectrons: 9.000000  magneticMoment: [ Abs: 0.54000  Tot: +0.54000 ]
LCAOMinimize: Iter:   2  F: -28.3921471386940958  |grad|_K:  8.775e-10  alpha:  9.996e-01  linmin: -6.415e-02  cgtest:  6.316e-01  t[s]:      5.73
LCAOMinimize: Encountered beta<0, resetting CG.
LCAOMinimize: Converged (|Delta F|<1.000000e-06 for 2 iters).


---- Citations for features of the code used in this run ----

   Software package:
      R. Sundararaman, K. Letchworth-Weaver, K.A. Schwarz, D. Gunceler, Y. Ozhabes and T.A. Arias, 'JDFTx: software for joint density-functional theory', SoftwareX 6, 278 (2017)

   gga-PBE exchange-correlation functional:
      J.P. Perdew, K. Burke and M. Ernzerhof, Phys. Rev. Lett. 77, 3865 (1996)

   Pseudopotentials:
      M Schlipf and F Gygi, Comput. Phys. Commun. 196, 36 (2015)

   Truncated Coulomb potentials:
      R. Sundararaman and T.A. Arias, Phys. Rev. B 87, 165122 (2013)

This list may not be complete. Please suggest additional citations or
report any other bugs at https://github.com/shankar1729/jdftx/issues

Initialization completed successfully at t[s]:      5.83


-------- Electronic minimization -----------
Will mix electronic density at each iteration.
	FillingsUpdate:  mu: -0.096152918  nElectrons: 9.000000  magneticMoment: [ Abs: 0.54000  Tot: +0.54000 ]
	FillingsUpdate:  mu: -0.106053860  nElectrons: 9.000000  magneticMoment: [ Abs: 0.54000  Tot: +0.54000 ]
SCF: Cycle:  0   F: -28.399694002053717   dF: -7.547e-03   |Residual|: 1.181e-02   |deigs|: 1.733e-01  t[s]:      8.22
	FillingsUpdate:  mu: -0.106019139  nElectrons: 9.000000  magneticMoment: [ Abs: 0.54000  Tot: +0.54000 ]
SCF: Cycle:  1   F: -28.399969151514320   dF: -2.751e-04   |Residual|: 8.697e-03   |deigs|: 7.947e-03  t[s]:     10.03
	FillingsUpdate:  mu: -0.104762193  nElectrons: 9.000000  magneticMoment: [ Abs: 0.54354  Tot: +0.54000 ]
SCF: Cycle:  2   F: -28.400017244917652   dF: -4.809e-05   |Residual|: 4.920e-03   |deigs|: 3.344e-03  t[s]:     11.93
	FillingsUpdate:  mu: -0.104247850  nElectrons: 9.000000  magneticMoment: [ Abs: 0.54000  Tot: +0.54000 ]
SCF: Cycle:  3   F: -28.400094532969014   dF: -7.729e-05   |Residual|: 3.072e-03   |deigs|: 3.410e-03  t[s]:     13.78
	FillingsUpdate:  mu: -0.102892879  nElectrons: 9.000000  magneticMoment: [ Abs: 0.54001  Tot: +0.54000 ]
SCF: Cycle:  4   F: -28.400139982889904   dF: -4.545e-05   |Residual|: 1.913e-03   |deigs|: 3.230e-03  t[s]:     15.66
	FillingsUpdate:  mu: -0.101488051  nElectrons: 9.000000  magneticMoment: [ Abs: 0.54079  Tot: +0.54000 ]
SCF: Cycle:  5   F: -28.400160151218500   dF: -2.017e-05   |Residual|: 1.615e-03   |deigs|: 2.995e-03  t[s]:     17.57
	FillingsUpdate:  mu: -0.099636629  nElectrons: 9.000000  magneticMoment: [ Abs: 0.54587  Tot: +0.54000 ]
SCF: Cycle:  6   F: -28.400170500834665   dF: -1.035e-05   |Residual|: 1.147e-03   |deigs|: 2.790e-03  t[s]:     19.49
	FillingsUpdate:  mu: -0.097571298  nElectrons: 9.000000  magneticMoment: [ Abs: 0.54727  Tot: +0.54000 ]
SCF: Cycle:  7   F: -28.400187102848061   dF: -1.660e-05   |Residual|: 9.203e-04   |deigs|: 2.985e-03  t[s]:     21.50
	FillingsUpdate:  mu: -0.097066418  nElectrons: 9.000000  magneticMoment: [ Abs: 0.54226  Tot: +0.54000 ]
SCF: Cycle:  8   F: -28.400206889165258   dF: -1.979e-05   |Residual|: 7.491e-04   |deigs|: 7.965e-04  t[s]:     23.50
	FillingsUpdate:  mu: -0.096493565  nElectrons: 9.000000  magneticMoment: [ Abs: 0.54193  Tot: +0.54000 ]
SCF: Cycle:  9   F: -28.400214290202186   dF: -7.401e-06   |Residual|: 5.930e-04   |deigs|: 7.133e-04  t[s]:     25.53
	FillingsUpdate:  mu: -0.095346114  nElectrons: 9.000000  magneticMoment: [ Abs: 0.54388  Tot: +0.54000 ]
SCF: Cycle: 10   F: -28.400216358179215   dF: -2.068e-06   |Residual|: 5.121e-04   |deigs|: 1.230e-03  t[s]:     27.54
	FillingsUpdate:  mu: -0.094143575  nElectrons: 9.000000  magneticMoment: [ Abs: 0.54350  Tot: +0.54000 ]
SCF: Cycle: 11   F: -28.400215611751417   dF: +7.464e-07   |Residual|: 4.790e-04   |deigs|: 1.229e-03  t[s]:     29.57
	FillingsUpdate:  mu: -0.093144228  nElectrons: 9.000000  magneticMoment: [ Abs: 0.54315  Tot: +0.54000 ]
SCF: Cycle: 12   F: -28.400223674733592   dF: -8.063e-06   |Residual|: 4.248e-04   |deigs|: 9.058e-04  t[s]:     31.59
	FillingsUpdate:  mu: -0.092307108  nElectrons: 9.000000  magneticMoment: [ Abs: 0.54401  Tot: +0.54000 ]
SCF: Cycle: 13   F: -28.400229390367691   dF: -5.716e-06   |Residual|: 3.966e-04   |deigs|: 8.294e-04  t[s]:     33.56
	FillingsUpdate:  mu: -0.090705690  nElectrons: 9.000000  magneticMoment: [ Abs: 0.54280  Tot: +0.54000 ]
SCF: Cycle: 14   F: -28.400234468253984   dF: -5.078e-06   |Residual|: 3.444e-04   |deigs|: 1.741e-03  t[s]:     35.58
	FillingsUpdate:  mu: -0.089988856  nElectrons: 9.000000  magneticMoment: [ Abs: 0.54040  Tot: +0.54000 ]
SCF: Cycle: 15   F: -28.400236757067869   dF: -2.289e-06   |Residual|: 2.999e-04   |deigs|: 7.181e-04  t[s]:     37.64
	FillingsUpdate:  mu: -0.089395005  nElectrons: 9.000000  magneticMoment: [ Abs: 0.54116  Tot: +0.54000 ]
SCF: Cycle: 16   F: -28.400238319949988   dF: -1.563e-06   |Residual|: 2.146e-04   |deigs|: 7.011e-04  t[s]:     39.64
	FillingsUpdate:  mu: -0.089043135  nElectrons: 9.000000  magneticMoment: [ Abs: 0.54088  Tot: +0.54000 ]
SCF: Cycle: 17   F: -28.400239175781827   dF: -8.558e-07   |Residual|: 1.409e-04   |deigs|: 5.063e-04  t[s]:     41.63
	FillingsUpdate:  mu: -0.088914911  nElectrons: 9.000000  magneticMoment: [ Abs: 0.54026  Tot: +0.54000 ]
SCF: Cycle: 18   F: -28.400239697762974   dF: -5.220e-07   |Residual|: 7.354e-05   |deigs|: 2.984e-04  t[s]:     43.59
	FillingsUpdate:  mu: -0.088895234  nElectrons: 9.000000  magneticMoment: [ Abs: 0.54038  Tot: +0.54000 ]
SCF: Cycle: 19   F: -28.400239886473788   dF: -1.887e-07   |Residual|: 5.413e-05   |deigs|: 3.923e-04  t[s]:     45.51
	FillingsUpdate:  mu: -0.088871343  nElectrons: 9.000000  magneticMoment: [ Abs: 0.54028  Tot: +0.54000 ]
SCF: Cycle: 20   F: -28.400239974947688   dF: -8.847e-08   |Residual|: 2.384e-05   |deigs|: 1.325e-04  t[s]:     47.59
	FillingsUpdate:  mu: -0.088865686  nElectrons: 9.000000  magneticMoment: [ Abs: 0.54027  Tot: +0.54000 ]
SCF: Cycle: 21   F: -28.400240018471912   dF: -4.352e-08   |Residual|: 1.429e-05   |deigs|: 8.153e-05  t[s]:     49.57
	FillingsUpdate:  mu: -0.088856554  nElectrons: 9.000000  magneticMoment: [ Abs: 0.54026  Tot: +0.54000 ]
SCF: Cycle: 22   F: -28.400240046824948   dF: -2.835e-08   |Residual|: 9.345e-06   |deigs|: 8.379e-05  t[s]:     51.52
	FillingsUpdate:  mu: -0.088853818  nElectrons: 9.000000  magneticMoment: [ Abs: 0.54023  Tot: +0.54000 ]
SCF: Cycle: 23   F: -28.400240064232982   dF: -1.741e-08   |Residual|: 6.853e-06   |deigs|: 1.028e-04  t[s]:     53.49
	FillingsUpdate:  mu: -0.088858797  nElectrons: 9.000000  magneticMoment: [ Abs: 0.54019  Tot: +0.54000 ]
SCF: Cycle: 24   F: -28.400240073561498   dF: -9.329e-09   |Residual|: 6.881e-06   |deigs|: 1.336e-04  t[s]:     55.39
	FillingsUpdate:  mu: -0.088872082  nElectrons: 9.000000  magneticMoment: [ Abs: 0.54014  Tot: +0.54000 ]
SCF: Cycle: 25   F: -28.400240080878021   dF: -7.317e-09   |Residual|: 6.356e-06   |deigs|: 1.531e-04  t[s]:     57.33
SCF: Converged (|Delta E|<1.000000e-08 for 2 iters).


# Ionic positions in lattice coordinates:
ion K   0.000000000000000   0.000000000000000   0.000000000000000 0

# Forces in Lattice coordinates:
force K   0.000000000000000   0.000000000000000   0.000000000000000 0

# Energy components:
   Eewald =      -18.0480261003326561
       EH =        4.8802245849228401
     Eloc =      -18.0726518504321483
      Enl =       -2.7759161800017913
   Epulay =        0.0000000041876954
      Exc =       -4.2654323214524146
       KE =        9.8815624146002392
-------------------------------------
     Etot =      -28.4002394485082377
       TS =        0.0000006323697840
-------------------------------------
        F =      -28.4002400808780209

IonicMinimize: Iter:   0  F: -28.400240080878021  |grad|_K:  0.000e+00  t[s]:     57.45
IonicMinimize: Converged (|grad|_K<1.000000e-04).

#--- Lowdin population analysis ---
# oxidation-state K +0.086
# magnetic-moments K +0.461

End date and time: Sat Feb  5 23:49:19 2022  (Duration: 0-0:00:57.47)
Done!
