
*************** JDFTx 1.6.0 (git hash 42ebbcc2) ***************

Start date and time: Sat Feb  5 23:36:46 2022
Executable jdftx with command-line: -i Alkali.in
Running on hosts (process indices):  d-3-15-1 (0-18)
Divided in process groups (process indices):  0 (0)  1 (1)  2 (2)  3 (3)  4 (4)  5 (5)  6 (6)  7 (7)  8 (8)  9 (9)  10 (10)  11 (11)  12 (12)  13 (13)  14 (14)  15 (15)  16 (16)  17 (17)  18 (18)
Resource initialization completed at t[s]:      0.00
Run totals: 19 processes, 48 threads, 0 GPUs


Input parsed successfully to the following command list (including defaults):

basis kpoint-dependent
coords-type Lattice
core-overlap-check vector
coulomb-interaction Slab 001
davidson-band-ratio 1.1
dump End None
dump-name $INPUT.$VAR
elec-cutoff 20
elec-eigen-algo Davidson
elec-ex-corr gga-PBE
elec-initial-magnetization -0.220000 yes
elec-smearing Fermi 1e-05
electronic-minimize  \
	dirUpdateScheme      FletcherReeves \
	linminMethod         DirUpdateRecommended \
	nIterations          100 \
	history              15 \
	knormThreshold       0 \
	energyDiffThreshold  1e-08 \
	nEnergyDiff          2 \
	alphaTstart          1 \
	alphaTmin            1e-10 \
	updateTestStepSize   yes \
	alphaTreduceFactor   0.1 \
	alphaTincreaseFactor 3 \
	nAlphaAdjustMax      3 \
	wolfeEnergy          0.0001 \
	wolfeGradient        0.9 \
	fdTest               no
electronic-scf  \
	nIterations	10000 \
	energyDiffThreshold	1e-08 \
	residualThreshold	1e-07 \
	mixFraction	0.5 \
	qMetric	0.8 \
	history	10 \
	nEigSteps	2 \
	eigDiffThreshold	1e-08 \
	mixedVariable	Density \
	qKerker	0.8 \
	qKappa	-1 \
	verbose	no \
	mixFractionMag	1.5
exchange-regularization WignerSeitzTruncated
fluid None
fluid-ex-corr (null) lda-PZ
fluid-gummel-loop 10 1.000000e-05
fluid-minimize  \
	dirUpdateScheme      PolakRibiere \
	linminMethod         DirUpdateRecommended \
	nIterations          100 \
	history              15 \
	knormThreshold       0 \
	energyDiffThreshold  0 \
	nEnergyDiff          2 \
	alphaTstart          1 \
	alphaTmin            1e-10 \
	updateTestStepSize   yes \
	alphaTreduceFactor   0.1 \
	alphaTincreaseFactor 3 \
	nAlphaAdjustMax      3 \
	wolfeEnergy          0.0001 \
	wolfeGradient        0.9 \
	fdTest               no
fluid-solvent H2O 55.338 ScalarEOS \
	epsBulk 78.4 \
	pMol 0.92466 \
	epsInf 1.77 \
	Pvap 1.06736e-10 \
	sigmaBulk 4.62e-05 \
	Rvdw 2.61727 \
	Res 1.42 \
	tauNuc 343133 \
	poleEl 15 7 1
forces-output-coords Positions
ion K   0.000000000000000   0.000000000000000   0.000000000000000 0
ion-species SG15/$ID_ONCV_PBE.upf
ion-width 0
ionic-minimize  \
	dirUpdateScheme      L-BFGS \
	linminMethod         DirUpdateRecommended \
	nIterations          0 \
	history              15 \
	knormThreshold       0.0001 \
	energyDiffThreshold  1e-06 \
	nEnergyDiff          2 \
	alphaTstart          1 \
	alphaTmin            1e-10 \
	updateTestStepSize   yes \
	alphaTreduceFactor   0.1 \
	alphaTincreaseFactor 3 \
	nAlphaAdjustMax      3 \
	wolfeEnergy          0.0001 \
	wolfeGradient        0.9 \
	fdTest               no
kpoint   0.000000000000   0.000000000000   0.000000000000  1.00000000000000
kpoint-folding 12 12 1 
latt-move-scale 1 1 1
latt-scale 2 2 1 
lattice  \
	   4.727486978767153   -2.363743489383575    0.000000000000000  \
	  -0.000000000000000    4.094123819672498    0.000000000000000  \
	   0.000000000000000    0.000000000000000   40.000000000000000 
lattice-minimize  \
	dirUpdateScheme      L-BFGS \
	linminMethod         DirUpdateRecommended \
	nIterations          0 \
	history              15 \
	knormThreshold       0 \
	energyDiffThreshold  1e-06 \
	nEnergyDiff          2 \
	alphaTstart          1 \
	alphaTmin            1e-10 \
	updateTestStepSize   yes \
	alphaTreduceFactor   0.1 \
	alphaTincreaseFactor 3 \
	nAlphaAdjustMax      3 \
	wolfeEnergy          0.0001 \
	wolfeGradient        0.9 \
	fdTest               no
lcao-params -1 1e-06 1e-05
pcm-variant GLSSA13
spintype z-spin
subspace-rotation-factor 1 yes
symmetries automatic
symmetry-threshold 0.0001



---------- Setting up symmetries ----------

Found 24 point-group symmetries of the bravais lattice
Found 24 space-group symmetries with basis
Applied RMS atom displacement 0 bohrs to make symmetries exact.

---------- Initializing the Grid ----------
R = 
[      9.45497     -4.72749            0  ]
[            0      8.18825            0  ]
[            0            0           40  ]
unit cell volume = 3096.79
G =
[   0.664538   0.383671         -0  ]
[          0   0.767342         -0  ]
[         -0         -0    0.15708  ]
Minimum fftbox size, Smin = [  40  40  164  ]
Chosen fftbox size, S = [  40  40  168  ]

---------- Exchange Correlation functional ----------
Initalized PBE GGA exchange.
Initalized PBE GGA correlation.

---------- Setting up pseudopotentials ----------
Width of ionic core gaussian charges (only for fluid interactions / plotting) set to 0

Reading pseudopotential file '/home/gridsan/aligho/DFT/build-Nov24/pseudopotentials/SG15/K_ONCV_PBE.upf':
  'K' pseudopotential, 'PBE' functional
  Generated using ONCVPSP code by D. R. Hamann
  Author: Martin Schlipf and Francois Gygi  Date: 150915.
  9 valence electrons, 3 orbitals, 6 projectors, 2222 radial grid points, with lMax = 2
  Transforming local potential to a uniform radial grid of dG=0.02 with 1489 points.
  Transforming nonlocal projectors to a uniform radial grid of dG=0.02 with 432 points.
    3S    l: 0   occupation:  2.0   eigenvalue: -1.298836
    3P    l: 1   occupation:  6.0   eigenvalue: -0.691386
    4S    l: 0   occupation:  1.0   eigenvalue: -0.085223
  Transforming atomic orbitals to a uniform radial grid of dG=0.02 with 432 points.
  Core radius for overlap checks: 2.06 bohrs.
  Reading pulay file /home/gridsan/aligho/DFT/build-Nov24/pseudopotentials/SG15/K_ONCV_PBE.pulay ... using dE_dnG = -1.597219e-05 computed for Ecut = 20.

Initialized 1 species with 1 total atoms.

Folded 1 k-points by 12x12x1 to 144 k-points.

---------- Setting up k-points, bands, fillings ----------
Reduced to 19 k-points under symmetry. 
Computing the number of bands and number of electrons
Calculating initial fillings.
nElectrons:   9.000000   nBands: 6   nStates: 38

----- Setting up reduced wavefunction bases (one per k-point) -----
average nbasis = 13230.521 , ideal nbasis = 13229.709

---------- Setting up coulomb interaction ----------
Initialized slab truncation along lattice direction 001

---------- Setting up 2D ewald sum ----------
Optimum gaussian width for ewald sums = 5.249020 bohr.
Real space sums over 289 unit cells with max indices [  8  8  0  ]
Reciprocal space sums over 81 terms with max indices [  4  4  0  ]

---------- Allocating electronic variables ----------
Initializing wave functions:  linear combination of atomic orbitals
Note: number of bands (6) exceeds available atomic orbitals (5)
K pseudo-atom occupations:   s ( 2 1 )  p ( 6 )
	FillingsUpdate:  mu: -0.094968721  nElectrons: 9.000000  magneticMoment: [ Abs: 0.22000  Tot: -0.22000 ]
LCAOMinimize: Iter:   0  F: -28.3981055094092589  |grad|_K:  4.163e-05  alpha:  1.000e+00
	FillingsUpdate:  mu: -0.094956299  nElectrons: 9.000000  magneticMoment: [ Abs: 0.22000  Tot: -0.22000 ]
LCAOMinimize: Iter:   1  F: -28.3981066687440880  |grad|_K:  4.113e-07  alpha:  9.782e-01  linmin: -3.424e-02  cgtest:  5.855e-01  t[s]:      4.64
LCAOMinimize: Encountered beta<0, resetting CG.
	FillingsUpdate:  mu: -0.094956305  nElectrons: 9.000000  magneticMoment: [ Abs: 0.22000  Tot: -0.22000 ]
LCAOMinimize: Iter:   2  F: -28.3981066688595156  |grad|_K:  1.779e-09  alpha:  1.003e+00  linmin:  5.917e-02  cgtest: -5.107e-01  t[s]:      5.86
LCAOMinimize: 	Wrong curvature in test step, increasing alphaT to 3.008152e+00.
	FillingsUpdate:  mu: -0.094956305  nElectrons: 9.000000  magneticMoment: [ Abs: 0.22000  Tot: -0.22000 ]
LCAOMinimize: Iter:   3  F: -28.3981066688596364  |grad|_K:  9.111e-10  alpha: -1.368e-02  linmin:  1.882e-03  cgtest:  4.788e-01  t[s]:      7.09
LCAOMinimize: Converged (|Delta F|<1.000000e-06 for 2 iters).


---- Citations for features of the code used in this run ----

   Software package:
      R. Sundararaman, K. Letchworth-Weaver, K.A. Schwarz, D. Gunceler, Y. Ozhabes and T.A. Arias, 'JDFTx: software for joint density-functional theory', SoftwareX 6, 278 (2017)

   gga-PBE exchange-correlation functional:
      J.P. Perdew, K. Burke and M. Ernzerhof, Phys. Rev. Lett. 77, 3865 (1996)

   Pseudopotentials:
      M Schlipf and F Gygi, Comput. Phys. Commun. 196, 36 (2015)

   Truncated Coulomb potentials:
      R. Sundararaman and T.A. Arias, Phys. Rev. B 87, 165122 (2013)

This list may not be complete. Please suggest additional citations or
report any other bugs at https://github.com/shankar1729/jdftx/issues

Initialization completed successfully at t[s]:      7.19


-------- Electronic minimization -----------
Will mix electronic density at each iteration.
	FillingsUpdate:  mu: -0.094956305  nElectrons: 9.000000  magneticMoment: [ Abs: 0.22000  Tot: -0.22000 ]
	FillingsUpdate:  mu: -0.105543205  nElectrons: 9.000000  magneticMoment: [ Abs: 0.22000  Tot: -0.22000 ]
SCF: Cycle:  0   F: -28.403110446631313   dF: -5.004e-03   |Residual|: 8.514e-03   |deigs|: 1.747e-01  t[s]:      9.62
	FillingsUpdate:  mu: -0.105404043  nElectrons: 9.000000  magneticMoment: [ Abs: 0.22000  Tot: -0.22000 ]
SCF: Cycle:  1   F: -28.403231901391269   dF: -1.215e-04   |Residual|: 6.666e-03   |deigs|: 4.972e-03  t[s]:     11.59
	FillingsUpdate:  mu: -0.103778152  nElectrons: 9.000000  magneticMoment: [ Abs: 0.22479  Tot: -0.22000 ]
SCF: Cycle:  2   F: -28.403278527600076   dF: -4.663e-05   |Residual|: 3.089e-03   |deigs|: 3.977e-03  t[s]:     13.45
	FillingsUpdate:  mu: -0.102861430  nElectrons: 9.000000  magneticMoment: [ Abs: 0.22000  Tot: -0.22000 ]
SCF: Cycle:  3   F: -28.403323518200104   dF: -4.499e-05   |Residual|: 2.042e-03   |deigs|: 5.535e-03  t[s]:     15.35
	FillingsUpdate:  mu: -0.101584076  nElectrons: 9.000000  magneticMoment: [ Abs: 0.22010  Tot: -0.22000 ]
SCF: Cycle:  4   F: -28.403346167439253   dF: -2.265e-05   |Residual|: 1.651e-03   |deigs|: 3.729e-03  t[s]:     17.32
	FillingsUpdate:  mu: -0.099790079  nElectrons: 9.000000  magneticMoment: [ Abs: 0.22288  Tot: -0.22000 ]
SCF: Cycle:  5   F: -28.403358544325567   dF: -1.238e-05   |Residual|: 1.277e-03   |deigs|: 2.909e-03  t[s]:     19.22
	FillingsUpdate:  mu: -0.098060531  nElectrons: 9.000000  magneticMoment: [ Abs: 0.22547  Tot: -0.22000 ]
SCF: Cycle:  6   F: -28.403364040134306   dF: -5.496e-06   |Residual|: 9.189e-04   |deigs|: 2.867e-03  t[s]:     21.11
	FillingsUpdate:  mu: -0.097037310  nElectrons: 9.000000  magneticMoment: [ Abs: 0.22370  Tot: -0.22000 ]
SCF: Cycle:  7   F: -28.403383709136577   dF: -1.967e-05   |Residual|: 7.959e-04   |deigs|: 1.491e-03  t[s]:     23.07
	FillingsUpdate:  mu: -0.096703571  nElectrons: 9.000000  magneticMoment: [ Abs: 0.22117  Tot: -0.22000 ]
SCF: Cycle:  8   F: -28.403396257114796   dF: -1.255e-05   |Residual|: 6.345e-04   |deigs|: 5.255e-04  t[s]:     25.04
	FillingsUpdate:  mu: -0.095447139  nElectrons: 9.000000  magneticMoment: [ Abs: 0.22261  Tot: -0.22000 ]
SCF: Cycle:  9   F: -28.403398151618010   dF: -1.895e-06   |Residual|: 5.048e-04   |deigs|: 1.306e-03  t[s]:     27.10
	FillingsUpdate:  mu: -0.094411978  nElectrons: 9.000000  magneticMoment: [ Abs: 0.22308  Tot: -0.22000 ]
SCF: Cycle: 10   F: -28.403396174016311   dF: +1.978e-06   |Residual|: 4.839e-04   |deigs|: 1.163e-03  t[s]:     29.13
	FillingsUpdate:  mu: -0.093215203  nElectrons: 9.000000  magneticMoment: [ Abs: 0.22183  Tot: -0.22000 ]
SCF: Cycle: 11   F: -28.403402613129241   dF: -6.439e-06   |Residual|: 4.461e-04   |deigs|: 1.343e-03  t[s]:     31.24
	FillingsUpdate:  mu: -0.092174924  nElectrons: 9.000000  magneticMoment: [ Abs: 0.22289  Tot: -0.22000 ]
SCF: Cycle: 12   F: -28.403411606042177   dF: -8.993e-06   |Residual|: 3.855e-04   |deigs|: 9.610e-04  t[s]:     33.28
	FillingsUpdate:  mu: -0.091006459  nElectrons: 9.000000  magneticMoment: [ Abs: 0.22296  Tot: -0.22000 ]
SCF: Cycle: 13   F: -28.403415999706063   dF: -4.394e-06   |Residual|: 3.690e-04   |deigs|: 1.239e-03  t[s]:     35.23
	FillingsUpdate:  mu: -0.090159863  nElectrons: 9.000000  magneticMoment: [ Abs: 0.22101  Tot: -0.22000 ]
SCF: Cycle: 14   F: -28.403419120336086   dF: -3.121e-06   |Residual|: 3.170e-04   |deigs|: 9.014e-04  t[s]:     37.23
	FillingsUpdate:  mu: -0.089417108  nElectrons: 9.000000  magneticMoment: [ Abs: 0.22012  Tot: -0.22000 ]
SCF: Cycle: 15   F: -28.403421359896800   dF: -2.240e-06   |Residual|: 2.441e-04   |deigs|: 8.519e-04  t[s]:     39.31
	FillingsUpdate:  mu: -0.088999165  nElectrons: 9.000000  magneticMoment: [ Abs: 0.22072  Tot: -0.22000 ]
SCF: Cycle: 16   F: -28.403422674638609   dF: -1.315e-06   |Residual|: 1.321e-04   |deigs|: 5.043e-04  t[s]:     41.32
	FillingsUpdate:  mu: -0.088864453  nElectrons: 9.000000  magneticMoment: [ Abs: 0.22031  Tot: -0.22000 ]
SCF: Cycle: 17   F: -28.403423013625051   dF: -3.390e-07   |Residual|: 8.457e-05   |deigs|: 3.480e-04  t[s]:     43.27
	FillingsUpdate:  mu: -0.088871260  nElectrons: 9.000000  magneticMoment: [ Abs: 0.22007  Tot: -0.22000 ]
SCF: Cycle: 18   F: -28.403423194000265   dF: -1.804e-07   |Residual|: 5.810e-05   |deigs|: 2.974e-04  t[s]:     45.29
	FillingsUpdate:  mu: -0.088827716  nElectrons: 9.000000  magneticMoment: [ Abs: 0.22020  Tot: -0.22000 ]
SCF: Cycle: 19   F: -28.403423302226685   dF: -1.082e-07   |Residual|: 3.240e-05   |deigs|: 1.811e-04  t[s]:     47.28
	FillingsUpdate:  mu: -0.088816223  nElectrons: 9.000000  magneticMoment: [ Abs: 0.22012  Tot: -0.22000 ]
SCF: Cycle: 20   F: -28.403423359104039   dF: -5.688e-08   |Residual|: 1.555e-05   |deigs|: 1.194e-04  t[s]:     49.30
	FillingsUpdate:  mu: -0.088812870  nElectrons: 9.000000  magneticMoment: [ Abs: 0.22006  Tot: -0.22000 ]
SCF: Cycle: 21   F: -28.403423395640477   dF: -3.654e-08   |Residual|: 7.496e-06   |deigs|: 9.784e-05  t[s]:     51.31
	FillingsUpdate:  mu: -0.088811435  nElectrons: 9.000000  magneticMoment: [ Abs: 0.22005  Tot: -0.22000 ]
SCF: Cycle: 22   F: -28.403423420946137   dF: -2.531e-08   |Residual|: 4.215e-06   |deigs|: 6.588e-05  t[s]:     53.19
	FillingsUpdate:  mu: -0.088810095  nElectrons: 9.000000  magneticMoment: [ Abs: 0.22005  Tot: -0.22000 ]
SCF: Cycle: 23   F: -28.403423436538588   dF: -1.559e-08   |Residual|: 2.558e-06   |deigs|: 4.654e-05  t[s]:     55.05
	FillingsUpdate:  mu: -0.088810041  nElectrons: 9.000000  magneticMoment: [ Abs: 0.22004  Tot: -0.22000 ]
SCF: Cycle: 24   F: -28.403423445533537   dF: -8.995e-09   |Residual|: 1.843e-06   |deigs|: 3.114e-05  t[s]:     56.91
	FillingsUpdate:  mu: -0.088810371  nElectrons: 9.000000  magneticMoment: [ Abs: 0.22003  Tot: -0.22000 ]
SCF: Cycle: 25   F: -28.403423451911369   dF: -6.378e-09   |Residual|: 1.426e-06   |deigs|: 2.567e-05  t[s]:     58.82
SCF: Converged (|Delta E|<1.000000e-08 for 2 iters).


# Ionic positions in lattice coordinates:
ion K   0.000000000000000   0.000000000000000   0.000000000000000 0

# Forces in Lattice coordinates:
force K  -0.000000000000000   0.000000000000000   0.000000000000000 0

# Energy components:
   Eewald =      -18.0480261003326561
       EH =        4.8687280040739607
     Eloc =      -18.0611478971004225
      Enl =       -2.7738636483388022
   Epulay =        0.0000000041876954
      Exc =       -4.2626897082228838
       KE =        9.8735763866320241
-------------------------------------
     Etot =      -28.4034229591010856
       TS =        0.0000004928102820
-------------------------------------
        F =      -28.4034234519113689

IonicMinimize: Iter:   0  F: -28.403423451911369  |grad|_K:  0.000e+00  t[s]:     58.94
IonicMinimize: Converged (|grad|_K<1.000000e-04).

#--- Lowdin population analysis ---
# oxidation-state K +0.043
# magnetic-moments K -0.194

End date and time: Sat Feb  5 23:37:45 2022  (Duration: 0-0:00:58.96)
Done!
