
*************** JDFTx 1.6.0 (git hash 42ebbcc2) ***************

Start date and time: Sat Feb  5 23:36:44 2022
Executable jdftx with command-line: -i Alkali.in
Running on hosts (process indices):  d-4-5-2 (0-18)
Divided in process groups (process indices):  0 (0)  1 (1)  2 (2)  3 (3)  4 (4)  5 (5)  6 (6)  7 (7)  8 (8)  9 (9)  10 (10)  11 (11)  12 (12)  13 (13)  14 (14)  15 (15)  16 (16)  17 (17)  18 (18)
Resource initialization completed at t[s]:      0.00
Run totals: 19 processes, 48 threads, 0 GPUs


Input parsed successfully to the following command list (including defaults):

basis kpoint-dependent
coords-type Lattice
core-overlap-check vector
coulomb-interaction Slab 001
davidson-band-ratio 1.1
dump End None
dump-name $INPUT.$VAR
elec-cutoff 20
elec-eigen-algo Davidson
elec-ex-corr gga-PBE
elec-initial-magnetization -0.480000 yes
elec-smearing Fermi 1e-05
electronic-minimize  \
	dirUpdateScheme      FletcherReeves \
	linminMethod         DirUpdateRecommended \
	nIterations          100 \
	history              15 \
	knormThreshold       0 \
	energyDiffThreshold  1e-08 \
	nEnergyDiff          2 \
	alphaTstart          1 \
	alphaTmin            1e-10 \
	updateTestStepSize   yes \
	alphaTreduceFactor   0.1 \
	alphaTincreaseFactor 3 \
	nAlphaAdjustMax      3 \
	wolfeEnergy          0.0001 \
	wolfeGradient        0.9 \
	fdTest               no
electronic-scf  \
	nIterations	10000 \
	energyDiffThreshold	1e-08 \
	residualThreshold	1e-07 \
	mixFraction	0.5 \
	qMetric	0.8 \
	history	10 \
	nEigSteps	2 \
	eigDiffThreshold	1e-08 \
	mixedVariable	Density \
	qKerker	0.8 \
	qKappa	-1 \
	verbose	no \
	mixFractionMag	1.5
exchange-regularization WignerSeitzTruncated
fluid None
fluid-ex-corr (null) lda-PZ
fluid-gummel-loop 10 1.000000e-05
fluid-minimize  \
	dirUpdateScheme      PolakRibiere \
	linminMethod         DirUpdateRecommended \
	nIterations          100 \
	history              15 \
	knormThreshold       0 \
	energyDiffThreshold  0 \
	nEnergyDiff          2 \
	alphaTstart          1 \
	alphaTmin            1e-10 \
	updateTestStepSize   yes \
	alphaTreduceFactor   0.1 \
	alphaTincreaseFactor 3 \
	nAlphaAdjustMax      3 \
	wolfeEnergy          0.0001 \
	wolfeGradient        0.9 \
	fdTest               no
fluid-solvent H2O 55.338 ScalarEOS \
	epsBulk 78.4 \
	pMol 0.92466 \
	epsInf 1.77 \
	Pvap 1.06736e-10 \
	sigmaBulk 4.62e-05 \
	Rvdw 2.61727 \
	Res 1.42 \
	tauNuc 343133 \
	poleEl 15 7 1
forces-output-coords Positions
ion K   0.000000000000000   0.000000000000000   0.000000000000000 0
ion-species SG15/$ID_ONCV_PBE.upf
ion-width 0
ionic-minimize  \
	dirUpdateScheme      L-BFGS \
	linminMethod         DirUpdateRecommended \
	nIterations          0 \
	history              15 \
	knormThreshold       0.0001 \
	energyDiffThreshold  1e-06 \
	nEnergyDiff          2 \
	alphaTstart          1 \
	alphaTmin            1e-10 \
	updateTestStepSize   yes \
	alphaTreduceFactor   0.1 \
	alphaTincreaseFactor 3 \
	nAlphaAdjustMax      3 \
	wolfeEnergy          0.0001 \
	wolfeGradient        0.9 \
	fdTest               no
kpoint   0.000000000000   0.000000000000   0.000000000000  1.00000000000000
kpoint-folding 12 12 1 
latt-move-scale 1 1 1
latt-scale 2 2 1 
lattice  \
	   4.727486978767153   -2.363743489383575    0.000000000000000  \
	  -0.000000000000000    4.094123819672498    0.000000000000000  \
	   0.000000000000000    0.000000000000000   40.000000000000000 
lattice-minimize  \
	dirUpdateScheme      L-BFGS \
	linminMethod         DirUpdateRecommended \
	nIterations          0 \
	history              15 \
	knormThreshold       0 \
	energyDiffThreshold  1e-06 \
	nEnergyDiff          2 \
	alphaTstart          1 \
	alphaTmin            1e-10 \
	updateTestStepSize   yes \
	alphaTreduceFactor   0.1 \
	alphaTincreaseFactor 3 \
	nAlphaAdjustMax      3 \
	wolfeEnergy          0.0001 \
	wolfeGradient        0.9 \
	fdTest               no
lcao-params -1 1e-06 1e-05
pcm-variant GLSSA13
spintype z-spin
subspace-rotation-factor 1 yes
symmetries automatic
symmetry-threshold 0.0001



---------- Setting up symmetries ----------

Found 24 point-group symmetries of the bravais lattice
Found 24 space-group symmetries with basis
Applied RMS atom displacement 0 bohrs to make symmetries exact.

---------- Initializing the Grid ----------
R = 
[      9.45497     -4.72749            0  ]
[            0      8.18825            0  ]
[            0            0           40  ]
unit cell volume = 3096.79
G =
[   0.664538   0.383671         -0  ]
[          0   0.767342         -0  ]
[         -0         -0    0.15708  ]
Minimum fftbox size, Smin = [  40  40  164  ]
Chosen fftbox size, S = [  40  40  168  ]

---------- Exchange Correlation functional ----------
Initalized PBE GGA exchange.
Initalized PBE GGA correlation.

---------- Setting up pseudopotentials ----------
Width of ionic core gaussian charges (only for fluid interactions / plotting) set to 0

Reading pseudopotential file '/home/gridsan/aligho/DFT/build-Nov24/pseudopotentials/SG15/K_ONCV_PBE.upf':
  'K' pseudopotential, 'PBE' functional
  Generated using ONCVPSP code by D. R. Hamann
  Author: Martin Schlipf and Francois Gygi  Date: 150915.
  9 valence electrons, 3 orbitals, 6 projectors, 2222 radial grid points, with lMax = 2
  Transforming local potential to a uniform radial grid of dG=0.02 with 1489 points.
  Transforming nonlocal projectors to a uniform radial grid of dG=0.02 with 432 points.
    3S    l: 0   occupation:  2.0   eigenvalue: -1.298836
    3P    l: 1   occupation:  6.0   eigenvalue: -0.691386
    4S    l: 0   occupation:  1.0   eigenvalue: -0.085223
  Transforming atomic orbitals to a uniform radial grid of dG=0.02 with 432 points.
  Core radius for overlap checks: 2.06 bohrs.
  Reading pulay file /home/gridsan/aligho/DFT/build-Nov24/pseudopotentials/SG15/K_ONCV_PBE.pulay ... using dE_dnG = -1.597219e-05 computed for Ecut = 20.

Initialized 1 species with 1 total atoms.

Folded 1 k-points by 12x12x1 to 144 k-points.

---------- Setting up k-points, bands, fillings ----------
Reduced to 19 k-points under symmetry. 
Computing the number of bands and number of electrons
Calculating initial fillings.
nElectrons:   9.000000   nBands: 6   nStates: 38

----- Setting up reduced wavefunction bases (one per k-point) -----
average nbasis = 13230.521 , ideal nbasis = 13229.709

---------- Setting up coulomb interaction ----------
Initialized slab truncation along lattice direction 001

---------- Setting up 2D ewald sum ----------
Optimum gaussian width for ewald sums = 5.249020 bohr.
Real space sums over 289 unit cells with max indices [  8  8  0  ]
Reciprocal space sums over 81 terms with max indices [  4  4  0  ]

---------- Allocating electronic variables ----------
Initializing wave functions:  linear combination of atomic orbitals
Note: number of bands (6) exceeds available atomic orbitals (5)
K pseudo-atom occupations:   s ( 2 1 )  p ( 6 )
	FillingsUpdate:  mu: -0.094626807  nElectrons: 9.000000  magneticMoment: [ Abs: 0.48000  Tot: -0.48000 ]
LCAOMinimize: Iter:   0  F: -28.3935063293660441  |grad|_K:  3.174e-05  alpha:  1.000e+00
	FillingsUpdate:  mu: -0.094617609  nElectrons: 9.000000  magneticMoment: [ Abs: 0.48000  Tot: -0.48000 ]
LCAOMinimize: Iter:   1  F: -28.3935070044638955  |grad|_K:  2.790e-07  alpha:  9.796e-01  linmin: -3.174e-02  cgtest:  5.070e-01  t[s]:      4.63
LCAOMinimize: Encountered beta<0, resetting CG.
	FillingsUpdate:  mu: -0.094617636  nElectrons: 9.000000  magneticMoment: [ Abs: 0.48000  Tot: -0.48000 ]
LCAOMinimize: Iter:   2  F: -28.3935070045169304  |grad|_K:  2.190e-09  alpha:  9.935e-01  linmin: -8.090e-02  cgtest:  9.558e-01  t[s]:      5.80
LCAOMinimize: Encountered beta<0, resetting CG.
LCAOMinimize: Converged (|Delta F|<1.000000e-06 for 2 iters).


---- Citations for features of the code used in this run ----

   Software package:
      R. Sundararaman, K. Letchworth-Weaver, K.A. Schwarz, D. Gunceler, Y. Ozhabes and T.A. Arias, 'JDFTx: software for joint density-functional theory', SoftwareX 6, 278 (2017)

   gga-PBE exchange-correlation functional:
      J.P. Perdew, K. Burke and M. Ernzerhof, Phys. Rev. Lett. 77, 3865 (1996)

   Pseudopotentials:
      M Schlipf and F Gygi, Comput. Phys. Commun. 196, 36 (2015)

   Truncated Coulomb potentials:
      R. Sundararaman and T.A. Arias, Phys. Rev. B 87, 165122 (2013)

This list may not be complete. Please suggest additional citations or
report any other bugs at https://github.com/shankar1729/jdftx/issues

Initialization completed successfully at t[s]:      5.90


-------- Electronic minimization -----------
Will mix electronic density at each iteration.
	FillingsUpdate:  mu: -0.094617636  nElectrons: 9.000000  magneticMoment: [ Abs: 0.48000  Tot: -0.48000 ]
	FillingsUpdate:  mu: -0.106081981  nElectrons: 9.000000  magneticMoment: [ Abs: 0.48000  Tot: -0.48000 ]
SCF: Cycle:  0   F: -28.400536527982023   dF: -7.030e-03   |Residual|: 1.104e-02   |deigs|: 1.734e-01  t[s]:      8.34
	FillingsUpdate:  mu: -0.105793014  nElectrons: 9.000000  magneticMoment: [ Abs: 0.48000  Tot: -0.48000 ]
SCF: Cycle:  1   F: -28.400764353340708   dF: -2.278e-04   |Residual|: 8.197e-03   |deigs|: 6.674e-03  t[s]:     10.21
	FillingsUpdate:  mu: -0.104501825  nElectrons: 9.000000  magneticMoment: [ Abs: 0.48364  Tot: -0.48000 ]
SCF: Cycle:  2   F: -28.400805496217718   dF: -4.114e-05   |Residual|: 4.594e-03   |deigs|: 3.879e-03  t[s]:     12.05
	FillingsUpdate:  mu: -0.103935580  nElectrons: 9.000000  magneticMoment: [ Abs: 0.48000  Tot: -0.48000 ]
SCF: Cycle:  3   F: -28.400877187967666   dF: -7.169e-05   |Residual|: 2.933e-03   |deigs|: 3.559e-03  t[s]:     13.99
	FillingsUpdate:  mu: -0.102545354  nElectrons: 9.000000  magneticMoment: [ Abs: 0.48002  Tot: -0.48000 ]
SCF: Cycle:  4   F: -28.400919883805184   dF: -4.270e-05   |Residual|: 1.870e-03   |deigs|: 3.056e-03  t[s]:     15.86
	FillingsUpdate:  mu: -0.101199427  nElectrons: 9.000000  magneticMoment: [ Abs: 0.48109  Tot: -0.48000 ]
SCF: Cycle:  5   F: -28.400939625481573   dF: -1.974e-05   |Residual|: 1.511e-03   |deigs|: 3.996e-03  t[s]:     17.76
	FillingsUpdate:  mu: -0.099352655  nElectrons: 9.000000  magneticMoment: [ Abs: 0.48609  Tot: -0.48000 ]
SCF: Cycle:  6   F: -28.400949717618790   dF: -1.009e-05   |Residual|: 1.091e-03   |deigs|: 3.297e-03  t[s]:     19.70
	FillingsUpdate:  mu: -0.097374550  nElectrons: 9.000000  magneticMoment: [ Abs: 0.48696  Tot: -0.48000 ]
SCF: Cycle:  7   F: -28.400962694463583   dF: -1.298e-05   |Residual|: 8.924e-04   |deigs|: 2.536e-03  t[s]:     21.68
	FillingsUpdate:  mu: -0.096977987  nElectrons: 9.000000  magneticMoment: [ Abs: 0.48237  Tot: -0.48000 ]
SCF: Cycle:  8   F: -28.400981043522513   dF: -1.835e-05   |Residual|: 7.345e-04   |deigs|: 5.241e-04  t[s]:     23.66
	FillingsUpdate:  mu: -0.096334457  nElectrons: 9.000000  magneticMoment: [ Abs: 0.48186  Tot: -0.48000 ]
SCF: Cycle:  9   F: -28.400986585824963   dF: -5.542e-06   |Residual|: 5.777e-04   |deigs|: 6.854e-04  t[s]:     25.69
	FillingsUpdate:  mu: -0.095194197  nElectrons: 9.000000  magneticMoment: [ Abs: 0.48400  Tot: -0.48000 ]
SCF: Cycle: 10   F: -28.400988430996925   dF: -1.845e-06   |Residual|: 5.024e-04   |deigs|: 1.279e-03  t[s]:     27.78
	FillingsUpdate:  mu: -0.094003696  nElectrons: 9.000000  magneticMoment: [ Abs: 0.48356  Tot: -0.48000 ]
SCF: Cycle: 11   F: -28.400987336352177   dF: +1.095e-06   |Residual|: 4.730e-04   |deigs|: 1.355e-03  t[s]:     29.86
	FillingsUpdate:  mu: -0.092903311  nElectrons: 9.000000  magneticMoment: [ Abs: 0.48309  Tot: -0.48000 ]
SCF: Cycle: 12   F: -28.400995596630644   dF: -8.260e-06   |Residual|: 4.137e-04   |deigs|: 1.027e-03  t[s]:     31.93
	FillingsUpdate:  mu: -0.092076400  nElectrons: 9.000000  magneticMoment: [ Abs: 0.48401  Tot: -0.48000 ]
SCF: Cycle: 13   F: -28.401001127621967   dF: -5.531e-06   |Residual|: 3.931e-04   |deigs|: 8.028e-04  t[s]:     33.97
	FillingsUpdate:  mu: -0.090585279  nElectrons: 9.000000  magneticMoment: [ Abs: 0.48269  Tot: -0.48000 ]
SCF: Cycle: 14   F: -28.401005998686674   dF: -4.871e-06   |Residual|: 3.344e-04   |deigs|: 1.609e-03  t[s]:     36.03
	FillingsUpdate:  mu: -0.089841186  nElectrons: 9.000000  magneticMoment: [ Abs: 0.48038  Tot: -0.48000 ]
SCF: Cycle: 15   F: -28.401008297579761   dF: -2.299e-06   |Residual|: 2.892e-04   |deigs|: 7.901e-04  t[s]:     38.06
	FillingsUpdate:  mu: -0.089294278  nElectrons: 9.000000  magneticMoment: [ Abs: 0.48108  Tot: -0.48000 ]
SCF: Cycle: 16   F: -28.401009718573516   dF: -1.421e-06   |Residual|: 2.073e-04   |deigs|: 6.863e-04  t[s]:     40.09
	FillingsUpdate:  mu: -0.088986173  nElectrons: 9.000000  magneticMoment: [ Abs: 0.48089  Tot: -0.48000 ]
SCF: Cycle: 17   F: -28.401010461737876   dF: -7.432e-07   |Residual|: 1.334e-04   |deigs|: 4.354e-04  t[s]:     42.14
	FillingsUpdate:  mu: -0.088864799  nElectrons: 9.000000  magneticMoment: [ Abs: 0.48007  Tot: -0.48000 ]
SCF: Cycle: 18   F: -28.401010932925626   dF: -4.712e-07   |Residual|: 6.822e-05   |deigs|: 2.646e-04  t[s]:     44.23
	FillingsUpdate:  mu: -0.088849048  nElectrons: 9.000000  magneticMoment: [ Abs: 0.48023  Tot: -0.48000 ]
SCF: Cycle: 19   F: -28.401011085661221   dF: -1.527e-07   |Residual|: 5.099e-05   |deigs|: 2.194e-04  t[s]:     46.17
	FillingsUpdate:  mu: -0.088836079  nElectrons: 9.000000  magneticMoment: [ Abs: 0.48020  Tot: -0.48000 ]
SCF: Cycle: 20   F: -28.401011159354582   dF: -7.369e-08   |Residual|: 2.951e-05   |deigs|: 2.044e-04  t[s]:     48.14
	FillingsUpdate:  mu: -0.088820374  nElectrons: 9.000000  magneticMoment: [ Abs: 0.48020  Tot: -0.48000 ]
SCF: Cycle: 21   F: -28.401011200044874   dF: -4.069e-08   |Residual|: 1.261e-05   |deigs|: 1.415e-04  t[s]:     50.19
	FillingsUpdate:  mu: -0.088811498  nElectrons: 9.000000  magneticMoment: [ Abs: 0.48019  Tot: -0.48000 ]
SCF: Cycle: 22   F: -28.401011225847160   dF: -2.580e-08   |Residual|: 7.943e-06   |deigs|: 1.024e-04  t[s]:     52.21
	FillingsUpdate:  mu: -0.088809037  nElectrons: 9.000000  magneticMoment: [ Abs: 0.48017  Tot: -0.48000 ]
SCF: Cycle: 23   F: -28.401011242901191   dF: -1.705e-08   |Residual|: 5.509e-06   |deigs|: 7.026e-05  t[s]:     54.11
	FillingsUpdate:  mu: -0.088808250  nElectrons: 9.000000  magneticMoment: [ Abs: 0.48015  Tot: -0.48000 ]
SCF: Cycle: 24   F: -28.401011249565943   dF: -6.665e-09   |Residual|: 5.244e-06   |deigs|: 4.151e-05  t[s]:     56.03
	FillingsUpdate:  mu: -0.088814049  nElectrons: 9.000000  magneticMoment: [ Abs: 0.48013  Tot: -0.48000 ]
SCF: Cycle: 25   F: -28.401011253781409   dF: -4.215e-09   |Residual|: 4.558e-06   |deigs|: 7.762e-05  t[s]:     58.08
SCF: Converged (|Delta E|<1.000000e-08 for 2 iters).


# Ionic positions in lattice coordinates:
ion K   0.000000000000000   0.000000000000000   0.000000000000000 0

# Forces in Lattice coordinates:
force K  -0.000000000000000  -0.000000000000000   0.000000000000000 0

# Energy components:
   Eewald =      -18.0480261003326561
       EH =        4.8772932114772969
     Eloc =      -18.0697136825338305
      Enl =       -2.7754147625362937
   Epulay =        0.0000000041876954
      Exc =       -4.2647488253042489
       KE =        9.8795994313251239
-------------------------------------
     Etot =      -28.4010107237169152
       TS =        0.0000005300644922
-------------------------------------
        F =      -28.4010112537814088

IonicMinimize: Iter:   0  F: -28.401011253781409  |grad|_K:  0.000e+00  t[s]:     58.20
IonicMinimize: Converged (|grad|_K<1.000000e-04).

#--- Lowdin population analysis ---
# oxidation-state K +0.076
# magnetic-moments K -0.412

End date and time: Sat Feb  5 23:37:42 2022  (Duration: 0-0:00:58.23)
Done!
