
*************** JDFTx 1.6.0 (git hash 42ebbcc2) ***************

Start date and time: Sat Feb  5 23:43:06 2022
Executable jdftx with command-line: -i Alkali.in
Running on hosts (process indices):  d-4-2-2 (0-18)
Divided in process groups (process indices):  0 (0)  1 (1)  2 (2)  3 (3)  4 (4)  5 (5)  6 (6)  7 (7)  8 (8)  9 (9)  10 (10)  11 (11)  12 (12)  13 (13)  14 (14)  15 (15)  16 (16)  17 (17)  18 (18)
Resource initialization completed at t[s]:      0.00
Run totals: 19 processes, 48 threads, 0 GPUs


Input parsed successfully to the following command list (including defaults):

basis kpoint-dependent
coords-type Lattice
core-overlap-check vector
coulomb-interaction Slab 001
davidson-band-ratio 1.1
dump End None
dump-name $INPUT.$VAR
elec-cutoff 20
elec-eigen-algo Davidson
elec-ex-corr gga-PBE
elec-initial-magnetization 0.080000 yes
elec-smearing Fermi 1e-05
electronic-minimize  \
	dirUpdateScheme      FletcherReeves \
	linminMethod         DirUpdateRecommended \
	nIterations          100 \
	history              15 \
	knormThreshold       0 \
	energyDiffThreshold  1e-08 \
	nEnergyDiff          2 \
	alphaTstart          1 \
	alphaTmin            1e-10 \
	updateTestStepSize   yes \
	alphaTreduceFactor   0.1 \
	alphaTincreaseFactor 3 \
	nAlphaAdjustMax      3 \
	wolfeEnergy          0.0001 \
	wolfeGradient        0.9 \
	fdTest               no
electronic-scf  \
	nIterations	10000 \
	energyDiffThreshold	1e-08 \
	residualThreshold	1e-07 \
	mixFraction	0.5 \
	qMetric	0.8 \
	history	10 \
	nEigSteps	2 \
	eigDiffThreshold	1e-08 \
	mixedVariable	Density \
	qKerker	0.8 \
	qKappa	-1 \
	verbose	no \
	mixFractionMag	1.5
exchange-regularization WignerSeitzTruncated
fluid None
fluid-ex-corr (null) lda-PZ
fluid-gummel-loop 10 1.000000e-05
fluid-minimize  \
	dirUpdateScheme      PolakRibiere \
	linminMethod         DirUpdateRecommended \
	nIterations          100 \
	history              15 \
	knormThreshold       0 \
	energyDiffThreshold  0 \
	nEnergyDiff          2 \
	alphaTstart          1 \
	alphaTmin            1e-10 \
	updateTestStepSize   yes \
	alphaTreduceFactor   0.1 \
	alphaTincreaseFactor 3 \
	nAlphaAdjustMax      3 \
	wolfeEnergy          0.0001 \
	wolfeGradient        0.9 \
	fdTest               no
fluid-solvent H2O 55.338 ScalarEOS \
	epsBulk 78.4 \
	pMol 0.92466 \
	epsInf 1.77 \
	Pvap 1.06736e-10 \
	sigmaBulk 4.62e-05 \
	Rvdw 2.61727 \
	Res 1.42 \
	tauNuc 343133 \
	poleEl 15 7 1
forces-output-coords Positions
ion K   0.000000000000000   0.000000000000000   0.000000000000000 0
ion-species SG15/$ID_ONCV_PBE.upf
ion-width 0
ionic-minimize  \
	dirUpdateScheme      L-BFGS \
	linminMethod         DirUpdateRecommended \
	nIterations          0 \
	history              15 \
	knormThreshold       0.0001 \
	energyDiffThreshold  1e-06 \
	nEnergyDiff          2 \
	alphaTstart          1 \
	alphaTmin            1e-10 \
	updateTestStepSize   yes \
	alphaTreduceFactor   0.1 \
	alphaTincreaseFactor 3 \
	nAlphaAdjustMax      3 \
	wolfeEnergy          0.0001 \
	wolfeGradient        0.9 \
	fdTest               no
kpoint   0.000000000000   0.000000000000   0.000000000000  1.00000000000000
kpoint-folding 12 12 1 
latt-move-scale 1 1 1
latt-scale 2 2 1 
lattice  \
	   4.727486978767153   -2.363743489383575    0.000000000000000  \
	  -0.000000000000000    4.094123819672498    0.000000000000000  \
	   0.000000000000000    0.000000000000000   40.000000000000000 
lattice-minimize  \
	dirUpdateScheme      L-BFGS \
	linminMethod         DirUpdateRecommended \
	nIterations          0 \
	history              15 \
	knormThreshold       0 \
	energyDiffThreshold  1e-06 \
	nEnergyDiff          2 \
	alphaTstart          1 \
	alphaTmin            1e-10 \
	updateTestStepSize   yes \
	alphaTreduceFactor   0.1 \
	alphaTincreaseFactor 3 \
	nAlphaAdjustMax      3 \
	wolfeEnergy          0.0001 \
	wolfeGradient        0.9 \
	fdTest               no
lcao-params -1 1e-06 1e-05
pcm-variant GLSSA13
spintype z-spin
subspace-rotation-factor 1 yes
symmetries automatic
symmetry-threshold 0.0001



---------- Setting up symmetries ----------

Found 24 point-group symmetries of the bravais lattice
Found 24 space-group symmetries with basis
Applied RMS atom displacement 0 bohrs to make symmetries exact.

---------- Initializing the Grid ----------
R = 
[      9.45497     -4.72749            0  ]
[            0      8.18825            0  ]
[            0            0           40  ]
unit cell volume = 3096.79
G =
[   0.664538   0.383671         -0  ]
[          0   0.767342         -0  ]
[         -0         -0    0.15708  ]
Minimum fftbox size, Smin = [  40  40  164  ]
Chosen fftbox size, S = [  40  40  168  ]

---------- Exchange Correlation functional ----------
Initalized PBE GGA exchange.
Initalized PBE GGA correlation.

---------- Setting up pseudopotentials ----------
Width of ionic core gaussian charges (only for fluid interactions / plotting) set to 0

Reading pseudopotential file '/home/gridsan/aligho/DFT/build-Nov24/pseudopotentials/SG15/K_ONCV_PBE.upf':
  'K' pseudopotential, 'PBE' functional
  Generated using ONCVPSP code by D. R. Hamann
  Author: Martin Schlipf and Francois Gygi  Date: 150915.
  9 valence electrons, 3 orbitals, 6 projectors, 2222 radial grid points, with lMax = 2
  Transforming local potential to a uniform radial grid of dG=0.02 with 1489 points.
  Transforming nonlocal projectors to a uniform radial grid of dG=0.02 with 432 points.
    3S    l: 0   occupation:  2.0   eigenvalue: -1.298836
    3P    l: 1   occupation:  6.0   eigenvalue: -0.691386
    4S    l: 0   occupation:  1.0   eigenvalue: -0.085223
  Transforming atomic orbitals to a uniform radial grid of dG=0.02 with 432 points.
  Core radius for overlap checks: 2.06 bohrs.
  Reading pulay file /home/gridsan/aligho/DFT/build-Nov24/pseudopotentials/SG15/K_ONCV_PBE.pulay ... using dE_dnG = -1.597219e-05 computed for Ecut = 20.

Initialized 1 species with 1 total atoms.

Folded 1 k-points by 12x12x1 to 144 k-points.

---------- Setting up k-points, bands, fillings ----------
Reduced to 19 k-points under symmetry. 
Computing the number of bands and number of electrons
Calculating initial fillings.
nElectrons:   9.000000   nBands: 6   nStates: 38

----- Setting up reduced wavefunction bases (one per k-point) -----
average nbasis = 13230.521 , ideal nbasis = 13229.709

---------- Setting up coulomb interaction ----------
Initialized slab truncation along lattice direction 001

---------- Setting up 2D ewald sum ----------
Optimum gaussian width for ewald sums = 5.249020 bohr.
Real space sums over 289 unit cells with max indices [  8  8  0  ]
Reciprocal space sums over 81 terms with max indices [  4  4  0  ]

---------- Allocating electronic variables ----------
Initializing wave functions:  linear combination of atomic orbitals
Note: number of bands (6) exceeds available atomic orbitals (5)
K pseudo-atom occupations:   s ( 2 1 )  p ( 6 )
	FillingsUpdate:  mu: -0.096286950  nElectrons: 9.000000  magneticMoment: [ Abs: 0.08000  Tot: +0.08000 ]
LCAOMinimize: Iter:   0  F: -28.3988178341965636  |grad|_K:  4.389e-05  alpha:  1.000e+00
	FillingsUpdate:  mu: -0.096276515  nElectrons: 9.000000  magneticMoment: [ Abs: 0.08000  Tot: +0.08000 ]
LCAOMinimize: Iter:   1  F: -28.3988191238179652  |grad|_K:  4.670e-07  alpha:  9.789e-01  linmin: -3.239e-02  cgtest:  5.609e-01  t[s]:      4.74
LCAOMinimize: Encountered beta<0, resetting CG.
	FillingsUpdate:  mu: -0.096276587  nElectrons: 9.000000  magneticMoment: [ Abs: 0.08000  Tot: +0.08000 ]
LCAOMinimize: Iter:   2  F: -28.3988191239675665  |grad|_K:  1.023e-09  alpha:  1.002e+00  linmin:  5.067e-02  cgtest: -3.468e-01  t[s]:      5.99
LCAOMinimize: 	Wrong curvature in test step, increasing alphaT to 3.005640e+00.
	FillingsUpdate:  mu: -0.096276587  nElectrons: 9.000000  magneticMoment: [ Abs: 0.08000  Tot: +0.08000 ]
LCAOMinimize: Iter:   3  F: -28.3988191239676766  |grad|_K:  3.555e-10  alpha: -5.733e-03  linmin:  1.781e-03  cgtest:  2.922e-01  t[s]:      7.22
LCAOMinimize: Converged (|Delta F|<1.000000e-06 for 2 iters).


---- Citations for features of the code used in this run ----

   Software package:
      R. Sundararaman, K. Letchworth-Weaver, K.A. Schwarz, D. Gunceler, Y. Ozhabes and T.A. Arias, 'JDFTx: software for joint density-functional theory', SoftwareX 6, 278 (2017)

   gga-PBE exchange-correlation functional:
      J.P. Perdew, K. Burke and M. Ernzerhof, Phys. Rev. Lett. 77, 3865 (1996)

   Pseudopotentials:
      M Schlipf and F Gygi, Comput. Phys. Commun. 196, 36 (2015)

   Truncated Coulomb potentials:
      R. Sundararaman and T.A. Arias, Phys. Rev. B 87, 165122 (2013)

This list may not be complete. Please suggest additional citations or
report any other bugs at https://github.com/shankar1729/jdftx/issues

Initialization completed successfully at t[s]:      7.33


-------- Electronic minimization -----------
Will mix electronic density at each iteration.
	FillingsUpdate:  mu: -0.096276587  nElectrons: 9.000000  magneticMoment: [ Abs: 0.08000  Tot: +0.08000 ]
	FillingsUpdate:  mu: -0.106611478  nElectrons: 9.000000  magneticMoment: [ Abs: 0.08000  Tot: +0.08000 ]
SCF: Cycle:  0   F: -28.403466946135353   dF: -4.648e-03   |Residual|: 7.962e-03   |deigs|: 1.749e-01  t[s]:      9.86
	FillingsUpdate:  mu: -0.106434973  nElectrons: 9.000000  magneticMoment: [ Abs: 0.08000  Tot: +0.08000 ]
SCF: Cycle:  1   F: -28.403564278568005   dF: -9.733e-05   |Residual|: 6.396e-03   |deigs|: 5.505e-03  t[s]:     11.76
	FillingsUpdate:  mu: -0.104222204  nElectrons: 9.000000  magneticMoment: [ Abs: 0.08477  Tot: +0.08000 ]
SCF: Cycle:  2   F: -28.403611698882209   dF: -4.742e-05   |Residual|: 2.511e-03   |deigs|: 3.917e-03  t[s]:     13.66
	FillingsUpdate:  mu: -0.103480301  nElectrons: 9.000000  magneticMoment: [ Abs: 0.08005  Tot: +0.08000 ]
SCF: Cycle:  3   F: -28.403652148486870   dF: -4.045e-05   |Residual|: 1.819e-03   |deigs|: 4.513e-03  t[s]:     15.62
	FillingsUpdate:  mu: -0.102088676  nElectrons: 9.000000  magneticMoment: [ Abs: 0.08060  Tot: +0.08000 ]
SCF: Cycle:  4   F: -28.403671532112575   dF: -1.938e-05   |Residual|: 1.529e-03   |deigs|: 3.210e-03  t[s]:     17.63
	FillingsUpdate:  mu: -0.100068560  nElectrons: 9.000000  magneticMoment: [ Abs: 0.08247  Tot: +0.08000 ]
SCF: Cycle:  5   F: -28.403683879845875   dF: -1.235e-05   |Residual|: 1.095e-03   |deigs|: 2.861e-03  t[s]:     19.72
	FillingsUpdate:  mu: -0.098712901  nElectrons: 9.000000  magneticMoment: [ Abs: 0.08249  Tot: +0.08000 ]
SCF: Cycle:  6   F: -28.403696436910288   dF: -1.256e-05   |Residual|: 8.880e-04   |deigs|: 3.881e-03  t[s]:     21.77
	FillingsUpdate:  mu: -0.098121134  nElectrons: 9.000000  magneticMoment: [ Abs: 0.08116  Tot: +0.08000 ]
SCF: Cycle:  7   F: -28.403712970326094   dF: -1.653e-05   |Residual|: 7.229e-04   |deigs|: 1.146e-03  t[s]:     23.86
	FillingsUpdate:  mu: -0.097249230  nElectrons: 9.000000  magneticMoment: [ Abs: 0.08102  Tot: +0.08000 ]
SCF: Cycle:  8   F: -28.403722123301904   dF: -9.153e-06   |Residual|: 5.893e-04   |deigs|: 9.318e-04  t[s]:     25.96
	FillingsUpdate:  mu: -0.096057715  nElectrons: 9.000000  magneticMoment: [ Abs: 0.08138  Tot: +0.08000 ]
SCF: Cycle:  9   F: -28.403717799257475   dF: +4.324e-06   |Residual|: 5.145e-04   |deigs|: 1.249e-03  t[s]:     28.00
	FillingsUpdate:  mu: -0.095011467  nElectrons: 9.000000  magneticMoment: [ Abs: 0.08130  Tot: +0.08000 ]
SCF: Cycle: 10   F: -28.403721458724604   dF: -3.659e-06   |Residual|: 4.859e-04   |deigs|: 1.140e-03  t[s]:     30.15
	FillingsUpdate:  mu: -0.094101932  nElectrons: 9.000000  magneticMoment: [ Abs: 0.08067  Tot: +0.08000 ]
SCF: Cycle: 11   F: -28.403731338169031   dF: -9.879e-06   |Residual|: 4.132e-04   |deigs|: 9.353e-04  t[s]:     32.36
	FillingsUpdate:  mu: -0.092989974  nElectrons: 9.000000  magneticMoment: [ Abs: 0.08179  Tot: +0.08000 ]
SCF: Cycle: 12   F: -28.403738204396902   dF: -6.866e-06   |Residual|: 3.899e-04   |deigs|: 1.074e-03  t[s]:     34.43
	FillingsUpdate:  mu: -0.091883620  nElectrons: 9.000000  magneticMoment: [ Abs: 0.08174  Tot: +0.08000 ]
SCF: Cycle: 13   F: -28.403742164967731   dF: -3.961e-06   |Residual|: 3.669e-04   |deigs|: 1.175e-03  t[s]:     36.52
	FillingsUpdate:  mu: -0.090886901  nElectrons: 9.000000  magneticMoment: [ Abs: 0.08051  Tot: +0.08000 ]
SCF: Cycle: 14   F: -28.403745361686390   dF: -3.197e-06   |Residual|: 2.957e-04   |deigs|: 1.075e-03  t[s]:     38.70
	FillingsUpdate:  mu: -0.090495276  nElectrons: 9.000000  magneticMoment: [ Abs: 0.08017  Tot: +0.08000 ]
SCF: Cycle: 15   F: -28.403746735592197   dF: -1.374e-06   |Residual|: 2.275e-04   |deigs|: 4.282e-04  t[s]:     40.85
	FillingsUpdate:  mu: -0.090295811  nElectrons: 9.000000  magneticMoment: [ Abs: 0.08042  Tot: +0.08000 ]
SCF: Cycle: 16   F: -28.403747836349218   dF: -1.101e-06   |Residual|: 1.230e-04   |deigs|: 1.995e-04  t[s]:     43.00
	FillingsUpdate:  mu: -0.090018441  nElectrons: 9.000000  magneticMoment: [ Abs: 0.08017  Tot: +0.08000 ]
SCF: Cycle: 17   F: -28.403748102339470   dF: -2.660e-07   |Residual|: 7.275e-05   |deigs|: 3.270e-04  t[s]:     45.13
	FillingsUpdate:  mu: -0.090013501  nElectrons: 9.000000  magneticMoment: [ Abs: 0.08007  Tot: +0.08000 ]
SCF: Cycle: 18   F: -28.403748270690514   dF: -1.684e-07   |Residual|: 4.744e-05   |deigs|: 5.659e-05  t[s]:     47.25
	FillingsUpdate:  mu: -0.089985446  nElectrons: 9.000000  magneticMoment: [ Abs: 0.08008  Tot: +0.08000 ]
SCF: Cycle: 19   F: -28.403748360658454   dF: -8.997e-08   |Residual|: 3.243e-05   |deigs|: 4.614e-05  t[s]:     49.41
	FillingsUpdate:  mu: -0.089977669  nElectrons: 9.000000  magneticMoment: [ Abs: 0.08007  Tot: +0.08000 ]
SCF: Cycle: 20   F: -28.403748412892504   dF: -5.223e-08   |Residual|: 1.827e-05   |deigs|: 2.538e-05  t[s]:     51.53
	FillingsUpdate:  mu: -0.089985783  nElectrons: 9.000000  magneticMoment: [ Abs: 0.08004  Tot: +0.08000 ]
SCF: Cycle: 21   F: -28.403748442800214   dF: -2.991e-08   |Residual|: 8.212e-06   |deigs|: 2.454e-05  t[s]:     53.65
	FillingsUpdate:  mu: -0.089981059  nElectrons: 9.000000  magneticMoment: [ Abs: 0.08004  Tot: +0.08000 ]
SCF: Cycle: 22   F: -28.403748466042785   dF: -2.324e-08   |Residual|: 3.696e-06   |deigs|: 1.466e-05  t[s]:     55.57
	FillingsUpdate:  mu: -0.089973649  nElectrons: 9.000000  magneticMoment: [ Abs: 0.08004  Tot: +0.08000 ]
SCF: Cycle: 23   F: -28.403748482268252   dF: -1.623e-08   |Residual|: 2.212e-06   |deigs|: 1.542e-05  t[s]:     57.47
	FillingsUpdate:  mu: -0.089972956  nElectrons: 9.000000  magneticMoment: [ Abs: 0.08003  Tot: +0.08000 ]
SCF: Cycle: 24   F: -28.403748491564194   dF: -9.296e-09   |Residual|: 1.522e-06   |deigs|: 1.736e-05  t[s]:     59.46
	FillingsUpdate:  mu: -0.089972132  nElectrons: 9.000000  magneticMoment: [ Abs: 0.08003  Tot: +0.08000 ]
SCF: Cycle: 25   F: -28.403748496564255   dF: -5.000e-09   |Residual|: 1.225e-06   |deigs|: 2.112e-05  t[s]:     61.33
SCF: Converged (|Delta E|<1.000000e-08 for 2 iters).


# Ionic positions in lattice coordinates:
ion K   0.000000000000000   0.000000000000000   0.000000000000000 0

# Forces in Lattice coordinates:
force K   0.000000000000000   0.000000000000000   0.000000000000000 0

# Energy components:
   Eewald =      -18.0480261003326561
       EH =        4.8667227100886725
     Eloc =      -18.0591480316946580
      Enl =       -2.7736127585425088
   Epulay =        0.0000000041876954
      Exc =       -4.2622287634006071
       KE =        9.8725455737467342
-------------------------------------
     Etot =      -28.4037473659473250
       TS =        0.0000011306169286
-------------------------------------
        F =      -28.4037484965642548

IonicMinimize: Iter:   0  F: -28.403748496564255  |grad|_K:  0.000e+00  t[s]:     61.46
IonicMinimize: Converged (|grad|_K<1.000000e-04).

#--- Lowdin population analysis ---
# oxidation-state K +0.038
# magnetic-moments K +0.071

End date and time: Sat Feb  5 23:44:07 2022  (Duration: 0-0:01:01.48)
Done!
