
*************** JDFTx 1.6.0 (git hash 42ebbcc2) ***************

Start date and time: Sat Feb  5 23:54:35 2022
Executable jdftx with command-line: -i Alkali.in
Running on hosts (process indices):  d-3-13-4 (0-18)
Divided in process groups (process indices):  0 (0)  1 (1)  2 (2)  3 (3)  4 (4)  5 (5)  6 (6)  7 (7)  8 (8)  9 (9)  10 (10)  11 (11)  12 (12)  13 (13)  14 (14)  15 (15)  16 (16)  17 (17)  18 (18)
Resource initialization completed at t[s]:      0.00
Run totals: 19 processes, 48 threads, 0 GPUs


Input parsed successfully to the following command list (including defaults):

basis kpoint-dependent
coords-type Lattice
core-overlap-check vector
coulomb-interaction Slab 001
davidson-band-ratio 1.1
dump End None
dump-name $INPUT.$VAR
elec-cutoff 20
elec-eigen-algo Davidson
elec-ex-corr gga-PBE
elec-initial-magnetization 0.860000 yes
elec-smearing Fermi 1e-05
electronic-minimize  \
	dirUpdateScheme      FletcherReeves \
	linminMethod         DirUpdateRecommended \
	nIterations          100 \
	history              15 \
	knormThreshold       0 \
	energyDiffThreshold  1e-08 \
	nEnergyDiff          2 \
	alphaTstart          1 \
	alphaTmin            1e-10 \
	updateTestStepSize   yes \
	alphaTreduceFactor   0.1 \
	alphaTincreaseFactor 3 \
	nAlphaAdjustMax      3 \
	wolfeEnergy          0.0001 \
	wolfeGradient        0.9 \
	fdTest               no
electronic-scf  \
	nIterations	10000 \
	energyDiffThreshold	1e-08 \
	residualThreshold	1e-07 \
	mixFraction	0.5 \
	qMetric	0.8 \
	history	10 \
	nEigSteps	2 \
	eigDiffThreshold	1e-08 \
	mixedVariable	Density \
	qKerker	0.8 \
	qKappa	-1 \
	verbose	no \
	mixFractionMag	1.5
exchange-regularization WignerSeitzTruncated
fluid None
fluid-ex-corr (null) lda-PZ
fluid-gummel-loop 10 1.000000e-05
fluid-minimize  \
	dirUpdateScheme      PolakRibiere \
	linminMethod         DirUpdateRecommended \
	nIterations          100 \
	history              15 \
	knormThreshold       0 \
	energyDiffThreshold  0 \
	nEnergyDiff          2 \
	alphaTstart          1 \
	alphaTmin            1e-10 \
	updateTestStepSize   yes \
	alphaTreduceFactor   0.1 \
	alphaTincreaseFactor 3 \
	nAlphaAdjustMax      3 \
	wolfeEnergy          0.0001 \
	wolfeGradient        0.9 \
	fdTest               no
fluid-solvent H2O 55.338 ScalarEOS \
	epsBulk 78.4 \
	pMol 0.92466 \
	epsInf 1.77 \
	Pvap 1.06736e-10 \
	sigmaBulk 4.62e-05 \
	Rvdw 2.61727 \
	Res 1.42 \
	tauNuc 343133 \
	poleEl 15 7 1
forces-output-coords Positions
ion K   0.000000000000000   0.000000000000000   0.000000000000000 0
ion-species SG15/$ID_ONCV_PBE.upf
ion-width 0
ionic-minimize  \
	dirUpdateScheme      L-BFGS \
	linminMethod         DirUpdateRecommended \
	nIterations          0 \
	history              15 \
	knormThreshold       0.0001 \
	energyDiffThreshold  1e-06 \
	nEnergyDiff          2 \
	alphaTstart          1 \
	alphaTmin            1e-10 \
	updateTestStepSize   yes \
	alphaTreduceFactor   0.1 \
	alphaTincreaseFactor 3 \
	nAlphaAdjustMax      3 \
	wolfeEnergy          0.0001 \
	wolfeGradient        0.9 \
	fdTest               no
kpoint   0.000000000000   0.000000000000   0.000000000000  1.00000000000000
kpoint-folding 12 12 1 
latt-move-scale 1 1 1
latt-scale 2 2 1 
lattice  \
	   4.727486978767153   -2.363743489383575    0.000000000000000  \
	  -0.000000000000000    4.094123819672498    0.000000000000000  \
	   0.000000000000000    0.000000000000000   40.000000000000000 
lattice-minimize  \
	dirUpdateScheme      L-BFGS \
	linminMethod         DirUpdateRecommended \
	nIterations          0 \
	history              15 \
	knormThreshold       0 \
	energyDiffThreshold  1e-06 \
	nEnergyDiff          2 \
	alphaTstart          1 \
	alphaTmin            1e-10 \
	updateTestStepSize   yes \
	alphaTreduceFactor   0.1 \
	alphaTincreaseFactor 3 \
	nAlphaAdjustMax      3 \
	wolfeEnergy          0.0001 \
	wolfeGradient        0.9 \
	fdTest               no
lcao-params -1 1e-06 1e-05
pcm-variant GLSSA13
spintype z-spin
subspace-rotation-factor 1 yes
symmetries automatic
symmetry-threshold 0.0001



---------- Setting up symmetries ----------

Found 24 point-group symmetries of the bravais lattice
Found 24 space-group symmetries with basis
Applied RMS atom displacement 0 bohrs to make symmetries exact.

---------- Initializing the Grid ----------
R = 
[      9.45497     -4.72749            0  ]
[            0      8.18825            0  ]
[            0            0           40  ]
unit cell volume = 3096.79
G =
[   0.664538   0.383671         -0  ]
[          0   0.767342         -0  ]
[         -0         -0    0.15708  ]
Minimum fftbox size, Smin = [  40  40  164  ]
Chosen fftbox size, S = [  40  40  168  ]

---------- Exchange Correlation functional ----------
Initalized PBE GGA exchange.
Initalized PBE GGA correlation.

---------- Setting up pseudopotentials ----------
Width of ionic core gaussian charges (only for fluid interactions / plotting) set to 0

Reading pseudopotential file '/home/gridsan/aligho/DFT/build-Nov24/pseudopotentials/SG15/K_ONCV_PBE.upf':
  'K' pseudopotential, 'PBE' functional
  Generated using ONCVPSP code by D. R. Hamann
  Author: Martin Schlipf and Francois Gygi  Date: 150915.
  9 valence electrons, 3 orbitals, 6 projectors, 2222 radial grid points, with lMax = 2
  Transforming local potential to a uniform radial grid of dG=0.02 with 1489 points.
  Transforming nonlocal projectors to a uniform radial grid of dG=0.02 with 432 points.
    3S    l: 0   occupation:  2.0   eigenvalue: -1.298836
    3P    l: 1   occupation:  6.0   eigenvalue: -0.691386
    4S    l: 0   occupation:  1.0   eigenvalue: -0.085223
  Transforming atomic orbitals to a uniform radial grid of dG=0.02 with 432 points.
  Core radius for overlap checks: 2.06 bohrs.
  Reading pulay file /home/gridsan/aligho/DFT/build-Nov24/pseudopotentials/SG15/K_ONCV_PBE.pulay ... using dE_dnG = -1.597219e-05 computed for Ecut = 20.

Initialized 1 species with 1 total atoms.

Folded 1 k-points by 12x12x1 to 144 k-points.

---------- Setting up k-points, bands, fillings ----------
Reduced to 19 k-points under symmetry. 
Computing the number of bands and number of electrons
Calculating initial fillings.
nElectrons:   9.000000   nBands: 6   nStates: 38

----- Setting up reduced wavefunction bases (one per k-point) -----
average nbasis = 13230.521 , ideal nbasis = 13229.709

---------- Setting up coulomb interaction ----------
Initialized slab truncation along lattice direction 001

---------- Setting up 2D ewald sum ----------
Optimum gaussian width for ewald sums = 5.249020 bohr.
Real space sums over 289 unit cells with max indices [  8  8  0  ]
Reciprocal space sums over 81 terms with max indices [  4  4  0  ]

---------- Allocating electronic variables ----------
Initializing wave functions:  linear combination of atomic orbitals
Note: number of bands (6) exceeds available atomic orbitals (5)
K pseudo-atom occupations:   s ( 2 1 )  p ( 6 )
	FillingsUpdate:  mu: -0.091979365  nElectrons: 9.000000  magneticMoment: [ Abs: 0.86000  Tot: +0.86000 ]
LCAOMinimize: Iter:   0  F: -28.3826593221620769  |grad|_K:  1.046e-05  alpha:  1.000e+00
	FillingsUpdate:  mu: -0.091976712  nElectrons: 9.000000  magneticMoment: [ Abs: 0.86000  Tot: +0.86000 ]
LCAOMinimize: Iter:   1  F: -28.3826593959684885  |grad|_K:  9.285e-08  alpha:  9.863e-01  linmin: -8.344e-03  cgtest:  1.829e-01  t[s]:      4.65
LCAOMinimize: Encountered beta<0, resetting CG.
	FillingsUpdate:  mu: -0.091976737  nElectrons: 9.000000  magneticMoment: [ Abs: 0.86000  Tot: +0.86000 ]
LCAOMinimize: Iter:   2  F: -28.3826593959746596  |grad|_K:  4.731e-09  alpha:  9.480e-01  linmin: -1.065e-01  cgtest:  9.916e-01  t[s]:      5.97
LCAOMinimize: Encountered beta<0, resetting CG.
LCAOMinimize: Converged (|Delta F|<1.000000e-06 for 2 iters).


---- Citations for features of the code used in this run ----

   Software package:
      R. Sundararaman, K. Letchworth-Weaver, K.A. Schwarz, D. Gunceler, Y. Ozhabes and T.A. Arias, 'JDFTx: software for joint density-functional theory', SoftwareX 6, 278 (2017)

   gga-PBE exchange-correlation functional:
      J.P. Perdew, K. Burke and M. Ernzerhof, Phys. Rev. Lett. 77, 3865 (1996)

   Pseudopotentials:
      M Schlipf and F Gygi, Comput. Phys. Commun. 196, 36 (2015)

   Truncated Coulomb potentials:
      R. Sundararaman and T.A. Arias, Phys. Rev. B 87, 165122 (2013)

This list may not be complete. Please suggest additional citations or
report any other bugs at https://github.com/shankar1729/jdftx/issues

Initialization completed successfully at t[s]:      6.06


-------- Electronic minimization -----------
Will mix electronic density at each iteration.
	FillingsUpdate:  mu: -0.091976737  nElectrons: 9.000000  magneticMoment: [ Abs: 0.86000  Tot: +0.86000 ]
	FillingsUpdate:  mu: -0.105790956  nElectrons: 9.000000  magneticMoment: [ Abs: 0.86000  Tot: +0.86000 ]
SCF: Cycle:  0   F: -28.393046778477157   dF: -1.039e-02   |Residual|: 1.640e-02   |deigs|: 1.732e-01  t[s]:      8.58
	FillingsUpdate:  mu: -0.108347556  nElectrons: 9.000000  magneticMoment: [ Abs: 0.86000  Tot: +0.86000 ]
SCF: Cycle:  1   F: -28.393682533018804   dF: -6.358e-04   |Residual|: 1.230e-02   |deigs|: 8.575e-03  t[s]:     10.42
	FillingsUpdate:  mu: -0.107344496  nElectrons: 9.000000  magneticMoment: [ Abs: 0.86291  Tot: +0.86000 ]
SCF: Cycle:  2   F: -28.393845263398976   dF: -1.627e-04   |Residual|: 7.870e-03   |deigs|: 3.582e-03  t[s]:     12.27
	FillingsUpdate:  mu: -0.108480133  nElectrons: 9.000000  magneticMoment: [ Abs: 0.86000  Tot: +0.86000 ]
SCF: Cycle:  3   F: -28.393949970356704   dF: -1.047e-04   |Residual|: 4.288e-03   |deigs|: 3.216e-03  t[s]:     14.13
	FillingsUpdate:  mu: -0.104133613  nElectrons: 9.000000  magneticMoment: [ Abs: 0.86002  Tot: +0.86000 ]
SCF: Cycle:  4   F: -28.394017662371422   dF: -6.769e-05   |Residual|: 2.390e-03   |deigs|: 5.092e-03  t[s]:     16.04
	FillingsUpdate:  mu: -0.102843218  nElectrons: 9.000000  magneticMoment: [ Abs: 0.86004  Tot: +0.86000 ]
SCF: Cycle:  5   F: -28.394048304451420   dF: -3.064e-05   |Residual|: 2.030e-03   |deigs|: 2.334e-03  t[s]:     17.99
	FillingsUpdate:  mu: -0.100362376  nElectrons: 9.000000  magneticMoment: [ Abs: 0.86348  Tot: +0.86000 ]
SCF: Cycle:  6   F: -28.394068500567357   dF: -2.020e-05   |Residual|: 1.458e-03   |deigs|: 2.930e-03  t[s]:     19.95
	FillingsUpdate:  mu: -0.097768208  nElectrons: 9.000000  magneticMoment: [ Abs: 0.86679  Tot: +0.86000 ]
SCF: Cycle:  7   F: -28.394084221944361   dF: -1.572e-05   |Residual|: 1.217e-03   |deigs|: 3.369e-03  t[s]:     21.98
	FillingsUpdate:  mu: -0.097404437  nElectrons: 9.000000  magneticMoment: [ Abs: 0.86130  Tot: +0.86000 ]
SCF: Cycle:  8   F: -28.394114208420380   dF: -2.999e-05   |Residual|: 9.253e-04   |deigs|: 9.571e-04  t[s]:     23.98
	FillingsUpdate:  mu: -0.096754646  nElectrons: 9.000000  magneticMoment: [ Abs: 0.86011  Tot: +0.86000 ]
SCF: Cycle:  9   F: -28.394129979300139   dF: -1.577e-05   |Residual|: 7.581e-04   |deigs|: 8.443e-04  t[s]:     26.05
	FillingsUpdate:  mu: -0.095630200  nElectrons: 9.000000  magneticMoment: [ Abs: 0.86210  Tot: +0.86000 ]
SCF: Cycle: 10   F: -28.394139392177561   dF: -9.413e-06   |Residual|: 6.463e-04   |deigs|: 1.127e-03  t[s]:     28.10
	FillingsUpdate:  mu: -0.094882713  nElectrons: 9.000000  magneticMoment: [ Abs: 0.86330  Tot: +0.86000 ]
SCF: Cycle: 11   F: -28.394143440001553   dF: -4.048e-06   |Residual|: 5.350e-04   |deigs|: 7.170e-04  t[s]:     30.14
	FillingsUpdate:  mu: -0.094260448  nElectrons: 9.000000  magneticMoment: [ Abs: 0.86337  Tot: +0.86000 ]
SCF: Cycle: 12   F: -28.394147474003134   dF: -4.034e-06   |Residual|: 4.726e-04   |deigs|: 7.057e-04  t[s]:     32.21
	FillingsUpdate:  mu: -0.093009632  nElectrons: 9.000000  magneticMoment: [ Abs: 0.86423  Tot: +0.86000 ]
SCF: Cycle: 13   F: -28.394151499290654   dF: -4.025e-06   |Residual|: 4.259e-04   |deigs|: 1.375e-03  t[s]:     34.25
	FillingsUpdate:  mu: -0.091640168  nElectrons: 9.000000  magneticMoment: [ Abs: 0.86257  Tot: +0.86000 ]
SCF: Cycle: 14   F: -28.394154522832277   dF: -3.024e-06   |Residual|: 3.857e-04   |deigs|: 1.429e-03  t[s]:     36.30
	FillingsUpdate:  mu: -0.090736832  nElectrons: 9.000000  magneticMoment: [ Abs: 0.86132  Tot: +0.86000 ]
SCF: Cycle: 15   F: -28.394156710940322   dF: -2.188e-06   |Residual|: 3.605e-04   |deigs|: 9.526e-04  t[s]:     38.33
	FillingsUpdate:  mu: -0.089744655  nElectrons: 9.000000  magneticMoment: [ Abs: 0.86141  Tot: +0.86000 ]
SCF: Cycle: 16   F: -28.394159558460519   dF: -2.848e-06   |Residual|: 2.726e-04   |deigs|: 1.041e-03  t[s]:     40.48
	FillingsUpdate:  mu: -0.089161420  nElectrons: 9.000000  magneticMoment: [ Abs: 0.86091  Tot: +0.86000 ]
SCF: Cycle: 17   F: -28.394161585804110   dF: -2.027e-06   |Residual|: 1.927e-04   |deigs|: 6.936e-04  t[s]:     42.55
	FillingsUpdate:  mu: -0.088873835  nElectrons: 9.000000  magneticMoment: [ Abs: 0.86093  Tot: +0.86000 ]
SCF: Cycle: 18   F: -28.394165438184803   dF: -3.852e-06   |Residual|: 4.796e-04   |deigs|: 3.758e-04  t[s]:     44.59
	FillingsUpdate:  mu: -0.088834774  nElectrons: 9.000000  magneticMoment: [ Abs: 0.86095  Tot: +0.86000 ]
SCF: Cycle: 19   F: -28.394165531210120   dF: -9.303e-08   |Residual|: 5.034e-04   |deigs|: 5.789e-04  t[s]:     46.30
	FillingsUpdate:  mu: -0.089060544  nElectrons: 9.000000  magneticMoment: [ Abs: 0.86093  Tot: +0.86000 ]
SCF: Cycle: 20   F: -28.394166068586557   dF: -5.374e-07   |Residual|: 4.825e-04   |deigs|: 3.671e-04  t[s]:     48.42
	FillingsUpdate:  mu: -0.089460547  nElectrons: 9.000000  magneticMoment: [ Abs: 0.86079  Tot: +0.86000 ]
SCF: Cycle: 21   F: -28.394166703065501   dF: -6.345e-07   |Residual|: 2.762e-04   |deigs|: 4.451e-04  t[s]:     50.60
	FillingsUpdate:  mu: -0.089621017  nElectrons: 9.000000  magneticMoment: [ Abs: 0.86080  Tot: +0.86000 ]
SCF: Cycle: 22   F: -28.394167107745421   dF: -4.047e-07   |Residual|: 9.947e-05   |deigs|: 3.955e-04  t[s]:     52.64
	FillingsUpdate:  mu: -0.089708361  nElectrons: 9.000000  magneticMoment: [ Abs: 0.86065  Tot: +0.86000 ]
SCF: Cycle: 23   F: -28.394167190487465   dF: -8.274e-08   |Residual|: 7.600e-05   |deigs|: 4.160e-04  t[s]:     54.66
	FillingsUpdate:  mu: -0.089750810  nElectrons: 9.000000  magneticMoment: [ Abs: 0.86062  Tot: +0.86000 ]
SCF: Cycle: 24   F: -28.394167273476523   dF: -8.299e-08   |Residual|: 6.319e-05   |deigs|: 1.620e-04  t[s]:     56.74
	FillingsUpdate:  mu: -0.089818688  nElectrons: 9.000000  magneticMoment: [ Abs: 0.86062  Tot: +0.86000 ]
SCF: Cycle: 25   F: -28.394167347154180   dF: -7.368e-08   |Residual|: 6.334e-05   |deigs|: 1.247e-04  t[s]:     58.83
	FillingsUpdate:  mu: -0.089749466  nElectrons: 9.000000  magneticMoment: [ Abs: 0.86060  Tot: +0.86000 ]
SCF: Cycle: 26   F: -28.394167393469441   dF: -4.632e-08   |Residual|: 2.236e-05   |deigs|: 8.526e-05  t[s]:     60.85
	FillingsUpdate:  mu: -0.089665582  nElectrons: 9.000000  magneticMoment: [ Abs: 0.86044  Tot: +0.86000 ]
SCF: Cycle: 27   F: -28.394167407977108   dF: -1.451e-08   |Residual|: 5.862e-05   |deigs|: 8.458e-05  t[s]:     62.94
	FillingsUpdate:  mu: -0.089710445  nElectrons: 9.000000  magneticMoment: [ Abs: 0.86030  Tot: +0.86000 ]
SCF: Cycle: 28   F: -28.394167443562615   dF: -3.559e-08   |Residual|: 2.227e-05   |deigs|: 5.703e-05  t[s]:     65.03
	FillingsUpdate:  mu: -0.089698043  nElectrons: 9.000000  magneticMoment: [ Abs: 0.86017  Tot: +0.86000 ]
SCF: Cycle: 29   F: -28.394167450721998   dF: -7.159e-09   |Residual|: 1.849e-05   |deigs|: 1.899e-05  t[s]:     67.13
	FillingsUpdate:  mu: -0.089696123  nElectrons: 9.000000  magneticMoment: [ Abs: 0.86007  Tot: +0.86000 ]
SCF: Cycle: 30   F: -28.394167463048838   dF: -1.233e-08   |Residual|: 7.825e-06   |deigs|: 1.277e-05  t[s]:     69.23
	FillingsUpdate:  mu: -0.089695569  nElectrons: 9.000000  magneticMoment: [ Abs: 0.86005  Tot: +0.86000 ]
SCF: Cycle: 31   F: -28.394167476827143   dF: -1.378e-08   |Residual|: 6.324e-06   |deigs|: 5.765e-06  t[s]:     71.24
	FillingsUpdate:  mu: -0.089693259  nElectrons: 9.000000  magneticMoment: [ Abs: 0.86005  Tot: +0.86000 ]
SCF: Cycle: 32   F: -28.394167480308454   dF: -3.481e-09   |Residual|: 3.615e-06   |deigs|: 5.816e-06  t[s]:     73.23
	FillingsUpdate:  mu: -0.089690384  nElectrons: 9.000000  magneticMoment: [ Abs: 0.86005  Tot: +0.86000 ]
SCF: Cycle: 33   F: -28.394167484531845   dF: -4.223e-09   |Residual|: 2.418e-06   |deigs|: 5.018e-06  t[s]:     75.28
SCF: Converged (|Delta E|<1.000000e-08 for 2 iters).


# Ionic positions in lattice coordinates:
ion K   0.000000000000000   0.000000000000000   0.000000000000000 0

# Forces in Lattice coordinates:
force K  -0.000000000000000   0.000000000000000   0.000000000000000 0

# Energy components:
   Eewald =      -18.0480261003326561
       EH =        4.8932380575414554
     Eloc =      -18.0856638514093468
      Enl =       -2.7798201523570172
   Epulay =        0.0000000041876954
      Exc =       -4.2698824575562000
       KE =        9.8959878816720170
-------------------------------------
     Etot =      -28.3941666182540509
       TS =        0.0000008662777930
-------------------------------------
        F =      -28.3941674845318452

IonicMinimize: Iter:   0  F: -28.394167484531845  |grad|_K:  0.000e+00  t[s]:     75.40
IonicMinimize: Converged (|grad|_K<1.000000e-04).

#--- Lowdin population analysis ---
# oxidation-state K +0.177
# magnetic-moments K +0.686

End date and time: Sat Feb  5 23:55:51 2022  (Duration: 0-0:01:15.43)
Done!
