
*************** JDFTx 1.6.0 (git hash 42ebbcc2) ***************

Start date and time: Sat Feb  5 23:30:08 2022
Executable jdftx with command-line: -i Alkali.in
Running on hosts (process indices):  d-4-7-2 (0-18)
Divided in process groups (process indices):  0 (0)  1 (1)  2 (2)  3 (3)  4 (4)  5 (5)  6 (6)  7 (7)  8 (8)  9 (9)  10 (10)  11 (11)  12 (12)  13 (13)  14 (14)  15 (15)  16 (16)  17 (17)  18 (18)
Resource initialization completed at t[s]:      0.00
Run totals: 19 processes, 48 threads, 0 GPUs


Input parsed successfully to the following command list (including defaults):

basis kpoint-dependent
coords-type Lattice
core-overlap-check vector
coulomb-interaction Slab 001
davidson-band-ratio 1.1
dump End None
dump-name $INPUT.$VAR
elec-cutoff 20
elec-eigen-algo Davidson
elec-ex-corr gga-PBE
elec-initial-magnetization -0.860000 yes
elec-smearing Fermi 1e-05
electronic-minimize  \
	dirUpdateScheme      FletcherReeves \
	linminMethod         DirUpdateRecommended \
	nIterations          100 \
	history              15 \
	knormThreshold       0 \
	energyDiffThreshold  1e-08 \
	nEnergyDiff          2 \
	alphaTstart          1 \
	alphaTmin            1e-10 \
	updateTestStepSize   yes \
	alphaTreduceFactor   0.1 \
	alphaTincreaseFactor 3 \
	nAlphaAdjustMax      3 \
	wolfeEnergy          0.0001 \
	wolfeGradient        0.9 \
	fdTest               no
electronic-scf  \
	nIterations	10000 \
	energyDiffThreshold	1e-08 \
	residualThreshold	1e-07 \
	mixFraction	0.5 \
	qMetric	0.8 \
	history	10 \
	nEigSteps	2 \
	eigDiffThreshold	1e-08 \
	mixedVariable	Density \
	qKerker	0.8 \
	qKappa	-1 \
	verbose	no \
	mixFractionMag	1.5
exchange-regularization WignerSeitzTruncated
fluid None
fluid-ex-corr (null) lda-PZ
fluid-gummel-loop 10 1.000000e-05
fluid-minimize  \
	dirUpdateScheme      PolakRibiere \
	linminMethod         DirUpdateRecommended \
	nIterations          100 \
	history              15 \
	knormThreshold       0 \
	energyDiffThreshold  0 \
	nEnergyDiff          2 \
	alphaTstart          1 \
	alphaTmin            1e-10 \
	updateTestStepSize   yes \
	alphaTreduceFactor   0.1 \
	alphaTincreaseFactor 3 \
	nAlphaAdjustMax      3 \
	wolfeEnergy          0.0001 \
	wolfeGradient        0.9 \
	fdTest               no
fluid-solvent H2O 55.338 ScalarEOS \
	epsBulk 78.4 \
	pMol 0.92466 \
	epsInf 1.77 \
	Pvap 1.06736e-10 \
	sigmaBulk 4.62e-05 \
	Rvdw 2.61727 \
	Res 1.42 \
	tauNuc 343133 \
	poleEl 15 7 1
forces-output-coords Positions
ion K   0.000000000000000   0.000000000000000   0.000000000000000 0
ion-species SG15/$ID_ONCV_PBE.upf
ion-width 0
ionic-minimize  \
	dirUpdateScheme      L-BFGS \
	linminMethod         DirUpdateRecommended \
	nIterations          0 \
	history              15 \
	knormThreshold       0.0001 \
	energyDiffThreshold  1e-06 \
	nEnergyDiff          2 \
	alphaTstart          1 \
	alphaTmin            1e-10 \
	updateTestStepSize   yes \
	alphaTreduceFactor   0.1 \
	alphaTincreaseFactor 3 \
	nAlphaAdjustMax      3 \
	wolfeEnergy          0.0001 \
	wolfeGradient        0.9 \
	fdTest               no
kpoint   0.000000000000   0.000000000000   0.000000000000  1.00000000000000
kpoint-folding 12 12 1 
latt-move-scale 1 1 1
latt-scale 2 2 1 
lattice  \
	   4.727486978767153   -2.363743489383575    0.000000000000000  \
	  -0.000000000000000    4.094123819672498    0.000000000000000  \
	   0.000000000000000    0.000000000000000   40.000000000000000 
lattice-minimize  \
	dirUpdateScheme      L-BFGS \
	linminMethod         DirUpdateRecommended \
	nIterations          0 \
	history              15 \
	knormThreshold       0 \
	energyDiffThreshold  1e-06 \
	nEnergyDiff          2 \
	alphaTstart          1 \
	alphaTmin            1e-10 \
	updateTestStepSize   yes \
	alphaTreduceFactor   0.1 \
	alphaTincreaseFactor 3 \
	nAlphaAdjustMax      3 \
	wolfeEnergy          0.0001 \
	wolfeGradient        0.9 \
	fdTest               no
lcao-params -1 1e-06 1e-05
pcm-variant GLSSA13
spintype z-spin
subspace-rotation-factor 1 yes
symmetries automatic
symmetry-threshold 0.0001



---------- Setting up symmetries ----------

Found 24 point-group symmetries of the bravais lattice
Found 24 space-group symmetries with basis
Applied RMS atom displacement 0 bohrs to make symmetries exact.

---------- Initializing the Grid ----------
R = 
[      9.45497     -4.72749            0  ]
[            0      8.18825            0  ]
[            0            0           40  ]
unit cell volume = 3096.79
G =
[   0.664538   0.383671         -0  ]
[          0   0.767342         -0  ]
[         -0         -0    0.15708  ]
Minimum fftbox size, Smin = [  40  40  164  ]
Chosen fftbox size, S = [  40  40  168  ]

---------- Exchange Correlation functional ----------
Initalized PBE GGA exchange.
Initalized PBE GGA correlation.

---------- Setting up pseudopotentials ----------
Width of ionic core gaussian charges (only for fluid interactions / plotting) set to 0

Reading pseudopotential file '/home/gridsan/aligho/DFT/build-Nov24/pseudopotentials/SG15/K_ONCV_PBE.upf':
  'K' pseudopotential, 'PBE' functional
  Generated using ONCVPSP code by D. R. Hamann
  Author: Martin Schlipf and Francois Gygi  Date: 150915.
  9 valence electrons, 3 orbitals, 6 projectors, 2222 radial grid points, with lMax = 2
  Transforming local potential to a uniform radial grid of dG=0.02 with 1489 points.
  Transforming nonlocal projectors to a uniform radial grid of dG=0.02 with 432 points.
    3S    l: 0   occupation:  2.0   eigenvalue: -1.298836
    3P    l: 1   occupation:  6.0   eigenvalue: -0.691386
    4S    l: 0   occupation:  1.0   eigenvalue: -0.085223
  Transforming atomic orbitals to a uniform radial grid of dG=0.02 with 432 points.
  Core radius for overlap checks: 2.06 bohrs.
  Reading pulay file /home/gridsan/aligho/DFT/build-Nov24/pseudopotentials/SG15/K_ONCV_PBE.pulay ... using dE_dnG = -1.597219e-05 computed for Ecut = 20.

Initialized 1 species with 1 total atoms.

Folded 1 k-points by 12x12x1 to 144 k-points.

---------- Setting up k-points, bands, fillings ----------
Reduced to 19 k-points under symmetry. 
Computing the number of bands and number of electrons
Calculating initial fillings.
nElectrons:   9.000000   nBands: 6   nStates: 38

----- Setting up reduced wavefunction bases (one per k-point) -----
average nbasis = 13230.521 , ideal nbasis = 13229.709

---------- Setting up coulomb interaction ----------
Initialized slab truncation along lattice direction 001

---------- Setting up 2D ewald sum ----------
Optimum gaussian width for ewald sums = 5.249020 bohr.
Real space sums over 289 unit cells with max indices [  8  8  0  ]
Reciprocal space sums over 81 terms with max indices [  4  4  0  ]

---------- Allocating electronic variables ----------
Initializing wave functions:  linear combination of atomic orbitals
Note: number of bands (6) exceeds available atomic orbitals (5)
K pseudo-atom occupations:   s ( 2 1 )  p ( 6 )
	FillingsUpdate:  mu: -0.092025883  nElectrons: 9.000000  magneticMoment: [ Abs: 0.86000  Tot: -0.86000 ]
LCAOMinimize: Iter:   0  F: -28.3826595395468573  |grad|_K:  1.026e-05  alpha:  1.000e+00
	FillingsUpdate:  mu: -0.092023278  nElectrons: 9.000000  magneticMoment: [ Abs: 0.86000  Tot: -0.86000 ]
LCAOMinimize: Iter:   1  F: -28.3826596105097977  |grad|_K:  8.743e-08  alpha:  9.853e-01  linmin: -9.603e-03  cgtest:  2.037e-01  t[s]:      4.71
LCAOMinimize: Encountered beta<0, resetting CG.
	FillingsUpdate:  mu: -0.092023305  nElectrons: 9.000000  magneticMoment: [ Abs: 0.86000  Tot: -0.86000 ]
LCAOMinimize: Iter:   2  F: -28.3826596105153612  |grad|_K:  1.012e-09  alpha:  9.895e-01  linmin: -7.591e-02  cgtest:  8.629e-01  t[s]:      5.91
LCAOMinimize: Encountered beta<0, resetting CG.
LCAOMinimize: Converged (|Delta F|<1.000000e-06 for 2 iters).


---- Citations for features of the code used in this run ----

   Software package:
      R. Sundararaman, K. Letchworth-Weaver, K.A. Schwarz, D. Gunceler, Y. Ozhabes and T.A. Arias, 'JDFTx: software for joint density-functional theory', SoftwareX 6, 278 (2017)

   gga-PBE exchange-correlation functional:
      J.P. Perdew, K. Burke and M. Ernzerhof, Phys. Rev. Lett. 77, 3865 (1996)

   Pseudopotentials:
      M Schlipf and F Gygi, Comput. Phys. Commun. 196, 36 (2015)

   Truncated Coulomb potentials:
      R. Sundararaman and T.A. Arias, Phys. Rev. B 87, 165122 (2013)

This list may not be complete. Please suggest additional citations or
report any other bugs at https://github.com/shankar1729/jdftx/issues

Initialization completed successfully at t[s]:      6.00


-------- Electronic minimization -----------
Will mix electronic density at each iteration.
	FillingsUpdate:  mu: -0.092023305  nElectrons: 9.000000  magneticMoment: [ Abs: 0.86000  Tot: -0.86000 ]
	FillingsUpdate:  mu: -0.106029417  nElectrons: 9.000000  magneticMoment: [ Abs: 0.86000  Tot: -0.86000 ]
SCF: Cycle:  0   F: -28.393084296703648   dF: -1.042e-02   |Residual|: 1.643e-02   |deigs|: 1.730e-01  t[s]:      8.44
	FillingsUpdate:  mu: -0.108440239  nElectrons: 9.000000  magneticMoment: [ Abs: 0.86000  Tot: -0.86000 ]
SCF: Cycle:  1   F: -28.393684431504564   dF: -6.001e-04   |Residual|: 1.226e-02   |deigs|: 7.791e-03  t[s]:     10.23
	FillingsUpdate:  mu: -0.107399302  nElectrons: 9.000000  magneticMoment: [ Abs: 0.86297  Tot: -0.86000 ]
SCF: Cycle:  2   F: -28.393847516023097   dF: -1.631e-04   |Residual|: 7.836e-03   |deigs|: 4.718e-03  t[s]:     12.11
	FillingsUpdate:  mu: -0.108584605  nElectrons: 9.000000  magneticMoment: [ Abs: 0.86000  Tot: -0.86000 ]
SCF: Cycle:  3   F: -28.393960220680516   dF: -1.127e-04   |Residual|: 4.324e-03   |deigs|: 4.987e-03  t[s]:     13.97
	FillingsUpdate:  mu: -0.104216527  nElectrons: 9.000000  magneticMoment: [ Abs: 0.86002  Tot: -0.86000 ]
SCF: Cycle:  4   F: -28.394029889622804   dF: -6.967e-05   |Residual|: 2.397e-03   |deigs|: 4.084e-03  t[s]:     15.84
	FillingsUpdate:  mu: -0.102929985  nElectrons: 9.000000  magneticMoment: [ Abs: 0.86006  Tot: -0.86000 ]
SCF: Cycle:  5   F: -28.394057883616767   dF: -2.799e-05   |Residual|: 1.989e-03   |deigs|: 2.087e-03  t[s]:     17.73
	FillingsUpdate:  mu: -0.100446819  nElectrons: 9.000000  magneticMoment: [ Abs: 0.86317  Tot: -0.86000 ]
SCF: Cycle:  6   F: -28.394075290413461   dF: -1.741e-05   |Residual|: 1.463e-03   |deigs|: 2.964e-03  t[s]:     19.66
	FillingsUpdate:  mu: -0.097713644  nElectrons: 9.000000  magneticMoment: [ Abs: 0.86659  Tot: -0.86000 ]
SCF: Cycle:  7   F: -28.394090282711961   dF: -1.499e-05   |Residual|: 1.177e-03   |deigs|: 3.492e-03  t[s]:     21.63
	FillingsUpdate:  mu: -0.097487855  nElectrons: 9.000000  magneticMoment: [ Abs: 0.86166  Tot: -0.86000 ]
SCF: Cycle:  8   F: -28.394121705577131   dF: -3.142e-05   |Residual|: 9.142e-04   |deigs|: 9.595e-04  t[s]:     23.66
	FillingsUpdate:  mu: -0.096916516  nElectrons: 9.000000  magneticMoment: [ Abs: 0.86011  Tot: -0.86000 ]
SCF: Cycle:  9   F: -28.394134914438894   dF: -1.321e-05   |Residual|: 7.816e-04   |deigs|: 7.427e-04  t[s]:     25.72
	FillingsUpdate:  mu: -0.095722472  nElectrons: 9.000000  magneticMoment: [ Abs: 0.86215  Tot: -0.86000 ]
SCF: Cycle: 10   F: -28.394140198389508   dF: -5.284e-06   |Residual|: 6.386e-04   |deigs|: 1.173e-03  t[s]:     27.79
	FillingsUpdate:  mu: -0.094864714  nElectrons: 9.000000  magneticMoment: [ Abs: 0.86328  Tot: -0.86000 ]
SCF: Cycle: 11   F: -28.394144597338400   dF: -4.399e-06   |Residual|: 5.355e-04   |deigs|: 9.262e-04  t[s]:     29.82
	FillingsUpdate:  mu: -0.094395508  nElectrons: 9.000000  magneticMoment: [ Abs: 0.86336  Tot: -0.86000 ]
SCF: Cycle: 12   F: -28.394148561493267   dF: -3.964e-06   |Residual|: 5.119e-04   |deigs|: 7.579e-04  t[s]:     31.84
	FillingsUpdate:  mu: -0.093328445  nElectrons: 9.000000  magneticMoment: [ Abs: 0.86362  Tot: -0.86000 ]
SCF: Cycle: 13   F: -28.394152447594720   dF: -3.886e-06   |Residual|: 4.429e-04   |deigs|: 1.262e-03  t[s]:     33.92
	FillingsUpdate:  mu: -0.091897293  nElectrons: 9.000000  magneticMoment: [ Abs: 0.86251  Tot: -0.86000 ]
SCF: Cycle: 14   F: -28.394154682894825   dF: -2.235e-06   |Residual|: 4.092e-04   |deigs|: 1.430e-03  t[s]:     35.99
	FillingsUpdate:  mu: -0.090967217  nElectrons: 9.000000  magneticMoment: [ Abs: 0.86106  Tot: -0.86000 ]
SCF: Cycle: 15   F: -28.394156358324324   dF: -1.675e-06   |Residual|: 4.210e-04   |deigs|: 1.248e-03  t[s]:     38.11
	FillingsUpdate:  mu: -0.090042876  nElectrons: 9.000000  magneticMoment: [ Abs: 0.86162  Tot: -0.86000 ]
SCF: Cycle: 16   F: -28.394159146173706   dF: -2.788e-06   |Residual|: 2.887e-04   |deigs|: 1.060e-03  t[s]:     40.11
	FillingsUpdate:  mu: -0.089044392  nElectrons: 9.000000  magneticMoment: [ Abs: 0.86178  Tot: -0.86000 ]
SCF: Cycle: 17   F: -28.394161319203068   dF: -2.173e-06   |Residual|: 2.065e-04   |deigs|: 9.703e-04  t[s]:     42.12
	FillingsUpdate:  mu: -0.088785643  nElectrons: 9.000000  magneticMoment: [ Abs: 0.86190  Tot: -0.86000 ]
SCF: Cycle: 18   F: -28.394165154902332   dF: -3.836e-06   |Residual|: 4.582e-04   |deigs|: 3.543e-04  t[s]:     44.14
	FillingsUpdate:  mu: -0.088966673  nElectrons: 9.000000  magneticMoment: [ Abs: 0.86198  Tot: -0.86000 ]
SCF: Cycle: 19   F: -28.394165772288748   dF: -6.174e-07   |Residual|: 3.823e-04   |deigs|: 2.394e-04  t[s]:     46.08
	FillingsUpdate:  mu: -0.089747113  nElectrons: 9.000000  magneticMoment: [ Abs: 0.86148  Tot: -0.86000 ]
SCF: Cycle: 20   F: -28.394165693602297   dF: +7.869e-08   |Residual|: 1.729e-04   |deigs|: 7.881e-04  t[s]:     48.12
	FillingsUpdate:  mu: -0.089625909  nElectrons: 9.000000  magneticMoment: [ Abs: 0.86097  Tot: -0.86000 ]
SCF: Cycle: 21   F: -28.394166876616637   dF: -1.183e-06   |Residual|: 1.235e-04   |deigs|: 3.158e-04  t[s]:     50.14
	FillingsUpdate:  mu: -0.089780079  nElectrons: 9.000000  magneticMoment: [ Abs: 0.86038  Tot: -0.86000 ]
SCF: Cycle: 22   F: -28.394167136656339   dF: -2.600e-07   |Residual|: 7.758e-05   |deigs|: 2.654e-04  t[s]:     52.19
	FillingsUpdate:  mu: -0.089829854  nElectrons: 9.000000  magneticMoment: [ Abs: 0.86046  Tot: -0.86000 ]
SCF: Cycle: 23   F: -28.394167201082020   dF: -6.443e-08   |Residual|: 4.663e-05   |deigs|: 1.016e-04  t[s]:     54.32
	FillingsUpdate:  mu: -0.089797941  nElectrons: 9.000000  magneticMoment: [ Abs: 0.86059  Tot: -0.86000 ]
SCF: Cycle: 24   F: -28.394167296507248   dF: -9.543e-08   |Residual|: 4.613e-05   |deigs|: 6.545e-05  t[s]:     56.40
	FillingsUpdate:  mu: -0.089768232  nElectrons: 9.000000  magneticMoment: [ Abs: 0.86065  Tot: -0.86000 ]
SCF: Cycle: 25   F: -28.394167379232201   dF: -8.272e-08   |Residual|: 3.369e-05   |deigs|: 7.058e-05  t[s]:     58.50
	FillingsUpdate:  mu: -0.089745643  nElectrons: 9.000000  magneticMoment: [ Abs: 0.86056  Tot: -0.86000 ]
SCF: Cycle: 26   F: -28.394167416622324   dF: -3.739e-08   |Residual|: 2.255e-05   |deigs|: 4.351e-05  t[s]:     60.51
	FillingsUpdate:  mu: -0.089703163  nElectrons: 9.000000  magneticMoment: [ Abs: 0.86037  Tot: -0.86000 ]
SCF: Cycle: 27   F: -28.394167439121738   dF: -2.250e-08   |Residual|: 1.948e-05   |deigs|: 4.841e-05  t[s]:     62.53
	FillingsUpdate:  mu: -0.089667414  nElectrons: 9.000000  magneticMoment: [ Abs: 0.86019  Tot: -0.86000 ]
SCF: Cycle: 28   F: -28.394167461128632   dF: -2.201e-08   |Residual|: 1.128e-05   |deigs|: 4.285e-05  t[s]:     64.56
	FillingsUpdate:  mu: -0.089664710  nElectrons: 9.000000  magneticMoment: [ Abs: 0.86012  Tot: -0.86000 ]
SCF: Cycle: 29   F: -28.394167467570416   dF: -6.442e-09   |Residual|: 6.126e-06   |deigs|: 6.343e-06  t[s]:     66.60
	FillingsUpdate:  mu: -0.089666357  nElectrons: 9.000000  magneticMoment: [ Abs: 0.86008  Tot: -0.86000 ]
SCF: Cycle: 30   F: -28.394167472950443   dF: -5.380e-09   |Residual|: 3.540e-06   |deigs|: 6.420e-06  t[s]:     68.76
SCF: Converged (|Delta E|<1.000000e-08 for 2 iters).


# Ionic positions in lattice coordinates:
ion K   0.000000000000000   0.000000000000000   0.000000000000000 0

# Forces in Lattice coordinates:
force K   0.000000000000000   0.000000000000000   0.000000000000000 0

# Energy components:
   Eewald =      -18.0480261003326561
       EH =        4.8932179574550716
     Eloc =      -18.0856406660602893
      Enl =       -2.7798167443604491
   Epulay =        0.0000000041876954
      Exc =       -4.2698798225630528
       KE =        9.8959787649976292
-------------------------------------
     Etot =      -28.3941666066760519
       TS =        0.0000008662743924
-------------------------------------
        F =      -28.3941674729504427

IonicMinimize: Iter:   0  F: -28.394167472950443  |grad|_K:  0.000e+00  t[s]:     68.88
IonicMinimize: Converged (|grad|_K<1.000000e-04).

#--- Lowdin population analysis ---
# oxidation-state K +0.177
# magnetic-moments K -0.686

End date and time: Sat Feb  5 23:31:17 2022  (Duration: 0-0:01:08.91)
Done!
