
*************** JDFTx 1.6.0 (git hash 42ebbcc2) ***************

Start date and time: Sat Feb  5 23:43:06 2022
Executable jdftx with command-line: -i Alkali.in
Running on hosts (process indices):  d-6-7-4 (0-18)
Divided in process groups (process indices):  0 (0)  1 (1)  2 (2)  3 (3)  4 (4)  5 (5)  6 (6)  7 (7)  8 (8)  9 (9)  10 (10)  11 (11)  12 (12)  13 (13)  14 (14)  15 (15)  16 (16)  17 (17)  18 (18)
Resource initialization completed at t[s]:      0.00
Run totals: 19 processes, 48 threads, 0 GPUs


Input parsed successfully to the following command list (including defaults):

basis kpoint-dependent
coords-type Lattice
core-overlap-check vector
coulomb-interaction Slab 001
davidson-band-ratio 1.1
dump End None
dump-name $INPUT.$VAR
elec-cutoff 20
elec-eigen-algo Davidson
elec-ex-corr gga-PBE
elec-initial-magnetization 0.180000 yes
elec-smearing Fermi 1e-05
electronic-minimize  \
	dirUpdateScheme      FletcherReeves \
	linminMethod         DirUpdateRecommended \
	nIterations          100 \
	history              15 \
	knormThreshold       0 \
	energyDiffThreshold  1e-08 \
	nEnergyDiff          2 \
	alphaTstart          1 \
	alphaTmin            1e-10 \
	updateTestStepSize   yes \
	alphaTreduceFactor   0.1 \
	alphaTincreaseFactor 3 \
	nAlphaAdjustMax      3 \
	wolfeEnergy          0.0001 \
	wolfeGradient        0.9 \
	fdTest               no
electronic-scf  \
	nIterations	10000 \
	energyDiffThreshold	1e-08 \
	residualThreshold	1e-07 \
	mixFraction	0.5 \
	qMetric	0.8 \
	history	10 \
	nEigSteps	2 \
	eigDiffThreshold	1e-08 \
	mixedVariable	Density \
	qKerker	0.8 \
	qKappa	-1 \
	verbose	no \
	mixFractionMag	1.5
exchange-regularization WignerSeitzTruncated
fluid None
fluid-ex-corr (null) lda-PZ
fluid-gummel-loop 10 1.000000e-05
fluid-minimize  \
	dirUpdateScheme      PolakRibiere \
	linminMethod         DirUpdateRecommended \
	nIterations          100 \
	history              15 \
	knormThreshold       0 \
	energyDiffThreshold  0 \
	nEnergyDiff          2 \
	alphaTstart          1 \
	alphaTmin            1e-10 \
	updateTestStepSize   yes \
	alphaTreduceFactor   0.1 \
	alphaTincreaseFactor 3 \
	nAlphaAdjustMax      3 \
	wolfeEnergy          0.0001 \
	wolfeGradient        0.9 \
	fdTest               no
fluid-solvent H2O 55.338 ScalarEOS \
	epsBulk 78.4 \
	pMol 0.92466 \
	epsInf 1.77 \
	Pvap 1.06736e-10 \
	sigmaBulk 4.62e-05 \
	Rvdw 2.61727 \
	Res 1.42 \
	tauNuc 343133 \
	poleEl 15 7 1
forces-output-coords Positions
ion K   0.000000000000000   0.000000000000000   0.000000000000000 0
ion-species SG15/$ID_ONCV_PBE.upf
ion-width 0
ionic-minimize  \
	dirUpdateScheme      L-BFGS \
	linminMethod         DirUpdateRecommended \
	nIterations          0 \
	history              15 \
	knormThreshold       0.0001 \
	energyDiffThreshold  1e-06 \
	nEnergyDiff          2 \
	alphaTstart          1 \
	alphaTmin            1e-10 \
	updateTestStepSize   yes \
	alphaTreduceFactor   0.1 \
	alphaTincreaseFactor 3 \
	nAlphaAdjustMax      3 \
	wolfeEnergy          0.0001 \
	wolfeGradient        0.9 \
	fdTest               no
kpoint   0.000000000000   0.000000000000   0.000000000000  1.00000000000000
kpoint-folding 12 12 1 
latt-move-scale 1 1 1
latt-scale 2 2 1 
lattice  \
	   4.727486978767153   -2.363743489383575    0.000000000000000  \
	  -0.000000000000000    4.094123819672498    0.000000000000000  \
	   0.000000000000000    0.000000000000000   40.000000000000000 
lattice-minimize  \
	dirUpdateScheme      L-BFGS \
	linminMethod         DirUpdateRecommended \
	nIterations          0 \
	history              15 \
	knormThreshold       0 \
	energyDiffThreshold  1e-06 \
	nEnergyDiff          2 \
	alphaTstart          1 \
	alphaTmin            1e-10 \
	updateTestStepSize   yes \
	alphaTreduceFactor   0.1 \
	alphaTincreaseFactor 3 \
	nAlphaAdjustMax      3 \
	wolfeEnergy          0.0001 \
	wolfeGradient        0.9 \
	fdTest               no
lcao-params -1 1e-06 1e-05
pcm-variant GLSSA13
spintype z-spin
subspace-rotation-factor 1 yes
symmetries automatic
symmetry-threshold 0.0001



---------- Setting up symmetries ----------

Found 24 point-group symmetries of the bravais lattice
Found 24 space-group symmetries with basis
Applied RMS atom displacement 0 bohrs to make symmetries exact.

---------- Initializing the Grid ----------
R = 
[      9.45497     -4.72749            0  ]
[            0      8.18825            0  ]
[            0            0           40  ]
unit cell volume = 3096.79
G =
[   0.664538   0.383671         -0  ]
[          0   0.767342         -0  ]
[         -0         -0    0.15708  ]
Minimum fftbox size, Smin = [  40  40  164  ]
Chosen fftbox size, S = [  40  40  168  ]

---------- Exchange Correlation functional ----------
Initalized PBE GGA exchange.
Initalized PBE GGA correlation.

---------- Setting up pseudopotentials ----------
Width of ionic core gaussian charges (only for fluid interactions / plotting) set to 0

Reading pseudopotential file '/home/gridsan/aligho/DFT/build-Nov24/pseudopotentials/SG15/K_ONCV_PBE.upf':
  'K' pseudopotential, 'PBE' functional
  Generated using ONCVPSP code by D. R. Hamann
  Author: Martin Schlipf and Francois Gygi  Date: 150915.
  9 valence electrons, 3 orbitals, 6 projectors, 2222 radial grid points, with lMax = 2
  Transforming local potential to a uniform radial grid of dG=0.02 with 1489 points.
  Transforming nonlocal projectors to a uniform radial grid of dG=0.02 with 432 points.
    3S    l: 0   occupation:  2.0   eigenvalue: -1.298836
    3P    l: 1   occupation:  6.0   eigenvalue: -0.691386
    4S    l: 0   occupation:  1.0   eigenvalue: -0.085223
  Transforming atomic orbitals to a uniform radial grid of dG=0.02 with 432 points.
  Core radius for overlap checks: 2.06 bohrs.
  Reading pulay file /home/gridsan/aligho/DFT/build-Nov24/pseudopotentials/SG15/K_ONCV_PBE.pulay ... using dE_dnG = -1.597219e-05 computed for Ecut = 20.

Initialized 1 species with 1 total atoms.

Folded 1 k-points by 12x12x1 to 144 k-points.

---------- Setting up k-points, bands, fillings ----------
Reduced to 19 k-points under symmetry. 
Computing the number of bands and number of electrons
Calculating initial fillings.
nElectrons:   9.000000   nBands: 6   nStates: 38

----- Setting up reduced wavefunction bases (one per k-point) -----
average nbasis = 13230.521 , ideal nbasis = 13229.709

---------- Setting up coulomb interaction ----------
Initialized slab truncation along lattice direction 001

---------- Setting up 2D ewald sum ----------
Optimum gaussian width for ewald sums = 5.249020 bohr.
Real space sums over 289 unit cells with max indices [  8  8  0  ]
Reciprocal space sums over 81 terms with max indices [  4  4  0  ]

---------- Allocating electronic variables ----------
Initializing wave functions:  linear combination of atomic orbitals
Note: number of bands (6) exceeds available atomic orbitals (5)
K pseudo-atom occupations:   s ( 2 1 )  p ( 6 )
	FillingsUpdate:  mu: -0.100734014  nElectrons: 9.000000  magneticMoment: [ Abs: 0.18000  Tot: +0.18000 ]
LCAOMinimize: Iter:   0  F: -28.3985432570256506  |grad|_K:  4.336e-05  alpha:  1.000e+00
	FillingsUpdate:  mu: -0.100724262  nElectrons: 9.000000  magneticMoment: [ Abs: 0.18000  Tot: +0.18000 ]
LCAOMinimize: Iter:   1  F: -28.3985445159432572  |grad|_K:  4.633e-07  alpha:  9.793e-01  linmin: -3.168e-02  cgtest:  5.473e-01  t[s]:      4.50
LCAOMinimize: Encountered beta<0, resetting CG.
	FillingsUpdate:  mu: -0.100724343  nElectrons: 9.000000  magneticMoment: [ Abs: 0.18000  Tot: +0.18000 ]
LCAOMinimize: Iter:   2  F: -28.3985445160906771  |grad|_K:  2.108e-09  alpha:  1.006e+00  linmin:  1.103e-01  cgtest: -9.462e-01  t[s]:      5.71
LCAOMinimize: 	Step increased F by 6.750156e-14, reducing alpha to 8.618013e-05.
	FillingsUpdate:  mu: -0.100724343  nElectrons: 9.000000  magneticMoment: [ Abs: 0.18000  Tot: +0.18000 ]
LCAOMinimize: Iter:   3  F: -28.3985445160906984  |grad|_K:  2.108e-09  alpha:  8.618e-05  linmin: -7.241e-03  cgtest:  1.000e+00  t[s]:      7.61
LCAOMinimize: Encountered beta<0, resetting CG.
LCAOMinimize: Converged (|Delta F|<1.000000e-06 for 2 iters).


---- Citations for features of the code used in this run ----

   Software package:
      R. Sundararaman, K. Letchworth-Weaver, K.A. Schwarz, D. Gunceler, Y. Ozhabes and T.A. Arias, 'JDFTx: software for joint density-functional theory', SoftwareX 6, 278 (2017)

   gga-PBE exchange-correlation functional:
      J.P. Perdew, K. Burke and M. Ernzerhof, Phys. Rev. Lett. 77, 3865 (1996)

   Pseudopotentials:
      M Schlipf and F Gygi, Comput. Phys. Commun. 196, 36 (2015)

   Truncated Coulomb potentials:
      R. Sundararaman and T.A. Arias, Phys. Rev. B 87, 165122 (2013)

This list may not be complete. Please suggest additional citations or
report any other bugs at https://github.com/shankar1729/jdftx/issues

Initialization completed successfully at t[s]:      7.70


-------- Electronic minimization -----------
Will mix electronic density at each iteration.
	FillingsUpdate:  mu: -0.100724343  nElectrons: 9.000000  magneticMoment: [ Abs: 0.18000  Tot: +0.18000 ]
	FillingsUpdate:  mu: -0.109777185  nElectrons: 9.000000  magneticMoment: [ Abs: 0.18000  Tot: +0.18000 ]
SCF: Cycle:  0   F: -28.403362831806909   dF: -4.818e-03   |Residual|: 8.282e-03   |deigs|: 1.748e-01  t[s]:     10.06
	FillingsUpdate:  mu: -0.109569649  nElectrons: 9.000000  magneticMoment: [ Abs: 0.18000  Tot: +0.18000 ]
SCF: Cycle:  1   F: -28.403475943987520   dF: -1.131e-04   |Residual|: 6.556e-03   |deigs|: 5.742e-03  t[s]:     11.83
	FillingsUpdate:  mu: -0.107755916  nElectrons: 9.000000  magneticMoment: [ Abs: 0.18518  Tot: +0.18000 ]
SCF: Cycle:  2   F: -28.403522725093250   dF: -4.678e-05   |Residual|: 2.869e-03   |deigs|: 3.876e-03  t[s]:     13.63
	FillingsUpdate:  mu: -0.106896785  nElectrons: 9.000000  magneticMoment: [ Abs: 0.18001  Tot: +0.18000 ]
SCF: Cycle:  3   F: -28.403566726306423   dF: -4.400e-05   |Residual|: 1.966e-03   |deigs|: 4.274e-03  t[s]:     15.50
	FillingsUpdate:  mu: -0.105596369  nElectrons: 9.000000  magneticMoment: [ Abs: 0.18013  Tot: +0.18000 ]
SCF: Cycle:  4   F: -28.403588087189995   dF: -2.136e-05   |Residual|: 1.623e-03   |deigs|: 3.396e-03  t[s]:     17.33
	FillingsUpdate:  mu: -0.103737008  nElectrons: 9.000000  magneticMoment: [ Abs: 0.18311  Tot: +0.18000 ]
SCF: Cycle:  5   F: -28.403601160859250   dF: -1.307e-05   |Residual|: 1.262e-03   |deigs|: 2.560e-03  t[s]:     19.18
	FillingsUpdate:  mu: -0.102129140  nElectrons: 9.000000  magneticMoment: [ Abs: 0.18492  Tot: +0.18000 ]
SCF: Cycle:  6   F: -28.403608872865785   dF: -7.712e-06   |Residual|: 9.116e-04   |deigs|: 3.603e-03  t[s]:     21.09
	FillingsUpdate:  mu: -0.101227089  nElectrons: 9.000000  magneticMoment: [ Abs: 0.18287  Tot: +0.18000 ]
SCF: Cycle:  7   F: -28.403628600022522   dF: -1.973e-05   |Residual|: 7.784e-04   |deigs|: 1.530e-03  t[s]:     23.02
	FillingsUpdate:  mu: -0.100717186  nElectrons: 9.000000  magneticMoment: [ Abs: 0.18119  Tot: +0.18000 ]
SCF: Cycle:  8   F: -28.403640440351587   dF: -1.184e-05   |Residual|: 6.166e-04   |deigs|: 7.768e-04  t[s]:     25.00
	FillingsUpdate:  mu: -0.099493542  nElectrons: 9.000000  magneticMoment: [ Abs: 0.18232  Tot: +0.18000 ]
SCF: Cycle:  9   F: -28.403640746084079   dF: -3.057e-07   |Residual|: 5.009e-04   |deigs|: 1.280e-03  t[s]:     26.97
	FillingsUpdate:  mu: -0.098465894  nElectrons: 9.000000  magneticMoment: [ Abs: 0.18264  Tot: +0.18000 ]
SCF: Cycle: 10   F: -28.403638698538010   dF: +2.048e-06   |Residual|: 4.855e-04   |deigs|: 1.295e-03  t[s]:     28.95
	FillingsUpdate:  mu: -0.097159410  nElectrons: 9.000000  magneticMoment: [ Abs: 0.18139  Tot: +0.18000 ]
SCF: Cycle: 11   F: -28.403645622631299   dF: -6.924e-06   |Residual|: 4.434e-04   |deigs|: 1.339e-03  t[s]:     31.00
	FillingsUpdate:  mu: -0.096265363  nElectrons: 9.000000  magneticMoment: [ Abs: 0.18300  Tot: +0.18000 ]
SCF: Cycle: 12   F: -28.403654312553627   dF: -8.690e-06   |Residual|: 3.931e-04   |deigs|: 8.177e-04  t[s]:     32.99
	FillingsUpdate:  mu: -0.095161321  nElectrons: 9.000000  magneticMoment: [ Abs: 0.18304  Tot: +0.18000 ]
SCF: Cycle: 13   F: -28.403658404502455   dF: -4.092e-06   |Residual|: 3.645e-04   |deigs|: 1.170e-03  t[s]:     34.88
	FillingsUpdate:  mu: -0.094037615  nElectrons: 9.000000  magneticMoment: [ Abs: 0.18099  Tot: +0.18000 ]
SCF: Cycle: 14   F: -28.403661944025991   dF: -3.540e-06   |Residual|: 3.046e-04   |deigs|: 1.203e-03  t[s]:     36.93
	FillingsUpdate:  mu: -0.093593190  nElectrons: 9.000000  magneticMoment: [ Abs: 0.18002  Tot: +0.18000 ]
SCF: Cycle: 15   F: -28.403663794271040   dF: -1.850e-06   |Residual|: 2.525e-04   |deigs|: 4.824e-04  t[s]:     38.87
	FillingsUpdate:  mu: -0.093255204  nElectrons: 9.000000  magneticMoment: [ Abs: 0.18078  Tot: +0.18000 ]
SCF: Cycle: 16   F: -28.403664945221095   dF: -1.151e-06   |Residual|: 1.440e-04   |deigs|: 3.476e-04  t[s]:     40.89
	FillingsUpdate:  mu: -0.092985295  nElectrons: 9.000000  magneticMoment: [ Abs: 0.18038  Tot: +0.18000 ]
SCF: Cycle: 17   F: -28.403665330929901   dF: -3.857e-07   |Residual|: 8.325e-05   |deigs|: 2.999e-04  t[s]:     42.86
	FillingsUpdate:  mu: -0.093007460  nElectrons: 9.000000  magneticMoment: [ Abs: 0.18010  Tot: +0.18000 ]
SCF: Cycle: 18   F: -28.403665543455688   dF: -2.125e-07   |Residual|: 4.671e-05   |deigs|: 1.046e-04  t[s]:     44.88
	FillingsUpdate:  mu: -0.093006592  nElectrons: 9.000000  magneticMoment: [ Abs: 0.18017  Tot: +0.18000 ]
SCF: Cycle: 19   F: -28.403665649223083   dF: -1.058e-07   |Residual|: 2.938e-05   |deigs|: 4.293e-05  t[s]:     46.88
	FillingsUpdate:  mu: -0.092987228  nElectrons: 9.000000  magneticMoment: [ Abs: 0.18011  Tot: +0.18000 ]
SCF: Cycle: 20   F: -28.403665696997628   dF: -4.777e-08   |Residual|: 1.684e-05   |deigs|: 2.616e-05  t[s]:     48.79
	FillingsUpdate:  mu: -0.092974357  nElectrons: 9.000000  magneticMoment: [ Abs: 0.18007  Tot: +0.18000 ]
SCF: Cycle: 21   F: -28.403665725123137   dF: -2.813e-08   |Residual|: 9.621e-06   |deigs|: 2.169e-05  t[s]:     50.69
	FillingsUpdate:  mu: -0.092976172  nElectrons: 9.000000  magneticMoment: [ Abs: 0.18007  Tot: +0.18000 ]
SCF: Cycle: 22   F: -28.403665745036982   dF: -1.991e-08   |Residual|: 4.426e-06   |deigs|: 1.311e-05  t[s]:     52.57
	FillingsUpdate:  mu: -0.092978882  nElectrons: 9.000000  magneticMoment: [ Abs: 0.18007  Tot: +0.18000 ]
SCF: Cycle: 23   F: -28.403665757415535   dF: -1.238e-08   |Residual|: 2.897e-06   |deigs|: 5.055e-05  t[s]:     54.37
	FillingsUpdate:  mu: -0.092980504  nElectrons: 9.000000  magneticMoment: [ Abs: 0.18006  Tot: +0.18000 ]
SCF: Cycle: 24   F: -28.403665767479545   dF: -1.006e-08   |Residual|: 2.052e-06   |deigs|: 7.535e-05  t[s]:     56.27
	FillingsUpdate:  mu: -0.092976431  nElectrons: 9.000000  magneticMoment: [ Abs: 0.18005  Tot: +0.18000 ]
SCF: Cycle: 25   F: -28.403665771689433   dF: -4.210e-09   |Residual|: 1.847e-06   |deigs|: 2.616e-05  t[s]:     58.16
	FillingsUpdate:  mu: -0.092976292  nElectrons: 9.000000  magneticMoment: [ Abs: 0.18004  Tot: +0.18000 ]
SCF: Cycle: 26   F: -28.403665774603194   dF: -2.914e-09   |Residual|: 1.458e-06   |deigs|: 2.202e-05  t[s]:     59.96
SCF: Converged (|Delta E|<1.000000e-08 for 2 iters).


# Ionic positions in lattice coordinates:
ion K   0.000000000000000   0.000000000000000   0.000000000000000 0

# Forces in Lattice coordinates:
force K  -0.000000000000000  -0.000000000000000   0.000000000000000 0

# Energy components:
   Eewald =      -18.0480261003326561
       EH =        4.8679444140025705
     Eloc =      -18.0603585436205698
      Enl =       -2.7737341311051100
   Epulay =        0.0000000041876954
      Exc =       -4.2625071435935586
       KE =        9.8730160077224376
-------------------------------------
     Etot =      -28.4036654927391901
       TS =        0.0000002818640035
-------------------------------------
        F =      -28.4036657746031942

IonicMinimize: Iter:   0  F: -28.403665774603194  |grad|_K:  0.000e+00  t[s]:     60.07
IonicMinimize: Converged (|grad|_K<1.000000e-04).

#--- Lowdin population analysis ---
# oxidation-state K +0.040
# magnetic-moments K +0.160

End date and time: Sat Feb  5 23:44:06 2022  (Duration: 0-0:01:00.10)
Done!
