
*************** JDFTx 1.6.0 (git hash 42ebbcc2) ***************

Start date and time: Sat Feb  5 23:43:06 2022
Executable jdftx with command-line: -i Alkali.in
Running on hosts (process indices):  d-16-5-2 (0-18)
Divided in process groups (process indices):  0 (0)  1 (1)  2 (2)  3 (3)  4 (4)  5 (5)  6 (6)  7 (7)  8 (8)  9 (9)  10 (10)  11 (11)  12 (12)  13 (13)  14 (14)  15 (15)  16 (16)  17 (17)  18 (18)
Resource initialization completed at t[s]:      0.00
Run totals: 19 processes, 48 threads, 0 GPUs


Input parsed successfully to the following command list (including defaults):

basis kpoint-dependent
coords-type Lattice
core-overlap-check vector
coulomb-interaction Slab 001
davidson-band-ratio 1.1
dump End None
dump-name $INPUT.$VAR
elec-cutoff 20
elec-eigen-algo Davidson
elec-ex-corr gga-PBE
elec-initial-magnetization 0.260000 yes
elec-smearing Fermi 1e-05
electronic-minimize  \
	dirUpdateScheme      FletcherReeves \
	linminMethod         DirUpdateRecommended \
	nIterations          100 \
	history              15 \
	knormThreshold       0 \
	energyDiffThreshold  1e-08 \
	nEnergyDiff          2 \
	alphaTstart          1 \
	alphaTmin            1e-10 \
	updateTestStepSize   yes \
	alphaTreduceFactor   0.1 \
	alphaTincreaseFactor 3 \
	nAlphaAdjustMax      3 \
	wolfeEnergy          0.0001 \
	wolfeGradient        0.9 \
	fdTest               no
electronic-scf  \
	nIterations	10000 \
	energyDiffThreshold	1e-08 \
	residualThreshold	1e-07 \
	mixFraction	0.5 \
	qMetric	0.8 \
	history	10 \
	nEigSteps	2 \
	eigDiffThreshold	1e-08 \
	mixedVariable	Density \
	qKerker	0.8 \
	qKappa	-1 \
	verbose	no \
	mixFractionMag	1.5
exchange-regularization WignerSeitzTruncated
fluid None
fluid-ex-corr (null) lda-PZ
fluid-gummel-loop 10 1.000000e-05
fluid-minimize  \
	dirUpdateScheme      PolakRibiere \
	linminMethod         DirUpdateRecommended \
	nIterations          100 \
	history              15 \
	knormThreshold       0 \
	energyDiffThreshold  0 \
	nEnergyDiff          2 \
	alphaTstart          1 \
	alphaTmin            1e-10 \
	updateTestStepSize   yes \
	alphaTreduceFactor   0.1 \
	alphaTincreaseFactor 3 \
	nAlphaAdjustMax      3 \
	wolfeEnergy          0.0001 \
	wolfeGradient        0.9 \
	fdTest               no
fluid-solvent H2O 55.338 ScalarEOS \
	epsBulk 78.4 \
	pMol 0.92466 \
	epsInf 1.77 \
	Pvap 1.06736e-10 \
	sigmaBulk 4.62e-05 \
	Rvdw 2.61727 \
	Res 1.42 \
	tauNuc 343133 \
	poleEl 15 7 1
forces-output-coords Positions
ion K   0.000000000000000   0.000000000000000   0.000000000000000 0
ion-species SG15/$ID_ONCV_PBE.upf
ion-width 0
ionic-minimize  \
	dirUpdateScheme      L-BFGS \
	linminMethod         DirUpdateRecommended \
	nIterations          0 \
	history              15 \
	knormThreshold       0.0001 \
	energyDiffThreshold  1e-06 \
	nEnergyDiff          2 \
	alphaTstart          1 \
	alphaTmin            1e-10 \
	updateTestStepSize   yes \
	alphaTreduceFactor   0.1 \
	alphaTincreaseFactor 3 \
	nAlphaAdjustMax      3 \
	wolfeEnergy          0.0001 \
	wolfeGradient        0.9 \
	fdTest               no
kpoint   0.000000000000   0.000000000000   0.000000000000  1.00000000000000
kpoint-folding 12 12 1 
latt-move-scale 1 1 1
latt-scale 2 2 1 
lattice  \
	   4.727486978767153   -2.363743489383575    0.000000000000000  \
	  -0.000000000000000    4.094123819672498    0.000000000000000  \
	   0.000000000000000    0.000000000000000   40.000000000000000 
lattice-minimize  \
	dirUpdateScheme      L-BFGS \
	linminMethod         DirUpdateRecommended \
	nIterations          0 \
	history              15 \
	knormThreshold       0 \
	energyDiffThreshold  1e-06 \
	nEnergyDiff          2 \
	alphaTstart          1 \
	alphaTmin            1e-10 \
	updateTestStepSize   yes \
	alphaTreduceFactor   0.1 \
	alphaTincreaseFactor 3 \
	nAlphaAdjustMax      3 \
	wolfeEnergy          0.0001 \
	wolfeGradient        0.9 \
	fdTest               no
lcao-params -1 1e-06 1e-05
pcm-variant GLSSA13
spintype z-spin
subspace-rotation-factor 1 yes
symmetries automatic
symmetry-threshold 0.0001



---------- Setting up symmetries ----------

Found 24 point-group symmetries of the bravais lattice
Found 24 space-group symmetries with basis
Applied RMS atom displacement 0 bohrs to make symmetries exact.

---------- Initializing the Grid ----------
R = 
[      9.45497     -4.72749            0  ]
[            0      8.18825            0  ]
[            0            0           40  ]
unit cell volume = 3096.79
G =
[   0.664538   0.383671         -0  ]
[          0   0.767342         -0  ]
[         -0         -0    0.15708  ]
Minimum fftbox size, Smin = [  40  40  164  ]
Chosen fftbox size, S = [  40  40  168  ]

---------- Exchange Correlation functional ----------
Initalized PBE GGA exchange.
Initalized PBE GGA correlation.

---------- Setting up pseudopotentials ----------
Width of ionic core gaussian charges (only for fluid interactions / plotting) set to 0

Reading pseudopotential file '/home/gridsan/aligho/DFT/build-Nov24/pseudopotentials/SG15/K_ONCV_PBE.upf':
  'K' pseudopotential, 'PBE' functional
  Generated using ONCVPSP code by D. R. Hamann
  Author: Martin Schlipf and Francois Gygi  Date: 150915.
  9 valence electrons, 3 orbitals, 6 projectors, 2222 radial grid points, with lMax = 2
  Transforming local potential to a uniform radial grid of dG=0.02 with 1489 points.
  Transforming nonlocal projectors to a uniform radial grid of dG=0.02 with 432 points.
    3S    l: 0   occupation:  2.0   eigenvalue: -1.298836
    3P    l: 1   occupation:  6.0   eigenvalue: -0.691386
    4S    l: 0   occupation:  1.0   eigenvalue: -0.085223
  Transforming atomic orbitals to a uniform radial grid of dG=0.02 with 432 points.
  Core radius for overlap checks: 2.06 bohrs.
  Reading pulay file /home/gridsan/aligho/DFT/build-Nov24/pseudopotentials/SG15/K_ONCV_PBE.pulay ... using dE_dnG = -1.597219e-05 computed for Ecut = 20.

Initialized 1 species with 1 total atoms.

Folded 1 k-points by 12x12x1 to 144 k-points.

---------- Setting up k-points, bands, fillings ----------
Reduced to 19 k-points under symmetry. 
Computing the number of bands and number of electrons
Calculating initial fillings.
nElectrons:   9.000000   nBands: 6   nStates: 38

----- Setting up reduced wavefunction bases (one per k-point) -----
average nbasis = 13230.521 , ideal nbasis = 13229.709

---------- Setting up coulomb interaction ----------
Initialized slab truncation along lattice direction 001

---------- Setting up 2D ewald sum ----------
Optimum gaussian width for ewald sums = 5.249020 bohr.
Real space sums over 289 unit cells with max indices [  8  8  0  ]
Reciprocal space sums over 81 terms with max indices [  4  4  0  ]

---------- Allocating electronic variables ----------
Initializing wave functions:  linear combination of atomic orbitals
Note: number of bands (6) exceeds available atomic orbitals (5)
K pseudo-atom occupations:   s ( 2 1 )  p ( 6 )
	FillingsUpdate:  mu: -0.099080902  nElectrons: 9.000000  magneticMoment: [ Abs: 0.26000  Tot: +0.26000 ]
LCAOMinimize: Iter:   0  F: -28.3975869490924246  |grad|_K:  4.137e-05  alpha:  1.000e+00
	FillingsUpdate:  mu: -0.099071235  nElectrons: 9.000000  magneticMoment: [ Abs: 0.26000  Tot: +0.26000 ]
LCAOMinimize: Iter:   1  F: -28.3975880954006854  |grad|_K:  4.314e-07  alpha:  9.795e-01  linmin: -3.115e-02  cgtest:  5.353e-01  t[s]:      4.63
LCAOMinimize: Encountered beta<0, resetting CG.
	FillingsUpdate:  mu: -0.099071304  nElectrons: 9.000000  magneticMoment: [ Abs: 0.26000  Tot: +0.26000 ]
LCAOMinimize: Iter:   2  F: -28.3975880955281035  |grad|_K:  1.117e-09  alpha:  1.003e+00  linmin:  1.025e-01  cgtest: -8.886e-01  t[s]:      5.81
LCAOMinimize: 	Wrong curvature in test step, increasing alphaT to 3.010244e+00.
	FillingsUpdate:  mu: -0.099071304  nElectrons: 9.000000  magneticMoment: [ Abs: 0.26000  Tot: +0.26000 ]
LCAOMinimize: Iter:   3  F: -28.3975880955284126  |grad|_K:  9.945e-10  alpha: -5.792e-04  linmin:  3.097e-04  cgtest:  8.832e-01  t[s]:      7.10
LCAOMinimize: Converged (|Delta F|<1.000000e-06 for 2 iters).


---- Citations for features of the code used in this run ----

   Software package:
      R. Sundararaman, K. Letchworth-Weaver, K.A. Schwarz, D. Gunceler, Y. Ozhabes and T.A. Arias, 'JDFTx: software for joint density-functional theory', SoftwareX 6, 278 (2017)

   gga-PBE exchange-correlation functional:
      J.P. Perdew, K. Burke and M. Ernzerhof, Phys. Rev. Lett. 77, 3865 (1996)

   Pseudopotentials:
      M Schlipf and F Gygi, Comput. Phys. Commun. 196, 36 (2015)

   Truncated Coulomb potentials:
      R. Sundararaman and T.A. Arias, Phys. Rev. B 87, 165122 (2013)

This list may not be complete. Please suggest additional citations or
report any other bugs at https://github.com/shankar1729/jdftx/issues

Initialization completed successfully at t[s]:      7.19


-------- Electronic minimization -----------
Will mix electronic density at each iteration.
	FillingsUpdate:  mu: -0.099071304  nElectrons: 9.000000  magneticMoment: [ Abs: 0.26000  Tot: +0.26000 ]
	FillingsUpdate:  mu: -0.108739015  nElectrons: 9.000000  magneticMoment: [ Abs: 0.26000  Tot: +0.26000 ]
SCF: Cycle:  0   F: -28.402791314136998   dF: -5.203e-03   |Residual|: 8.803e-03   |deigs|: 1.747e-01  t[s]:      9.64
	FillingsUpdate:  mu: -0.108522341  nElectrons: 9.000000  magneticMoment: [ Abs: 0.26000  Tot: +0.26000 ]
SCF: Cycle:  1   F: -28.402927741324866   dF: -1.364e-04   |Residual|: 6.857e-03   |deigs|: 5.897e-03  t[s]:     11.52
	FillingsUpdate:  mu: -0.106968530  nElectrons: 9.000000  magneticMoment: [ Abs: 0.26470  Tot: +0.26000 ]
SCF: Cycle:  2   F: -28.402975535292832   dF: -4.779e-05   |Residual|: 3.281e-03   |deigs|: 3.674e-03  t[s]:     13.37
	FillingsUpdate:  mu: -0.106107447  nElectrons: 9.000000  magneticMoment: [ Abs: 0.26000  Tot: +0.26000 ]
SCF: Cycle:  3   F: -28.403024858874144   dF: -4.932e-05   |Residual|: 2.160e-03   |deigs|: 4.319e-03  t[s]:     15.32
	FillingsUpdate:  mu: -0.104763661  nElectrons: 9.000000  magneticMoment: [ Abs: 0.26008  Tot: +0.26000 ]
SCF: Cycle:  4   F: -28.403048373748135   dF: -2.351e-05   |Residual|: 1.670e-03   |deigs|: 3.518e-03  t[s]:     17.32
	FillingsUpdate:  mu: -0.103110641  nElectrons: 9.000000  magneticMoment: [ Abs: 0.26258  Tot: +0.26000 ]
SCF: Cycle:  5   F: -28.403062892368148   dF: -1.452e-05   |Residual|: 1.370e-03   |deigs|: 2.829e-03  t[s]:     19.38
	FillingsUpdate:  mu: -0.101463367  nElectrons: 9.000000  magneticMoment: [ Abs: 0.26564  Tot: +0.26000 ]
SCF: Cycle:  6   F: -28.403068191179081   dF: -5.299e-06   |Residual|: 9.445e-04   |deigs|: 2.670e-03  t[s]:     21.34
	FillingsUpdate:  mu: -0.100117761  nElectrons: 9.000000  magneticMoment: [ Abs: 0.26444  Tot: +0.26000 ]
SCF: Cycle:  7   F: -28.403085877897681   dF: -1.769e-05   |Residual|: 8.181e-04   |deigs|: 2.330e-03  t[s]:     23.41
	FillingsUpdate:  mu: -0.099822238  nElectrons: 9.000000  magneticMoment: [ Abs: 0.26115  Tot: +0.26000 ]
SCF: Cycle:  8   F: -28.403098866086804   dF: -1.299e-05   |Residual|: 6.575e-04   |deigs|: 6.886e-04  t[s]:     25.50
	FillingsUpdate:  mu: -0.098637845  nElectrons: 9.000000  magneticMoment: [ Abs: 0.26270  Tot: +0.26000 ]
SCF: Cycle:  9   F: -28.403101303220232   dF: -2.437e-06   |Residual|: 5.118e-04   |deigs|: 1.285e-03  t[s]:     27.55
	FillingsUpdate:  mu: -0.097528121  nElectrons: 9.000000  magneticMoment: [ Abs: 0.26336  Tot: +0.26000 ]
SCF: Cycle: 10   F: -28.403099862167430   dF: +1.441e-06   |Residual|: 4.831e-04   |deigs|: 1.204e-03  t[s]:     29.64
	FillingsUpdate:  mu: -0.096364238  nElectrons: 9.000000  magneticMoment: [ Abs: 0.26202  Tot: +0.26000 ]
SCF: Cycle: 11   F: -28.403105298341412   dF: -5.436e-06   |Residual|: 4.451e-04   |deigs|: 1.156e-03  t[s]:     31.77
	FillingsUpdate:  mu: -0.095345273  nElectrons: 9.000000  magneticMoment: [ Abs: 0.26382  Tot: +0.26000 ]
SCF: Cycle: 12   F: -28.403114698376882   dF: -9.400e-06   |Residual|: 3.914e-04   |deigs|: 8.985e-04  t[s]:     33.90
	FillingsUpdate:  mu: -0.094221090  nElectrons: 9.000000  magneticMoment: [ Abs: 0.26367  Tot: +0.26000 ]
SCF: Cycle: 13   F: -28.403119088795570   dF: -4.390e-06   |Residual|: 3.611e-04   |deigs|: 1.189e-03  t[s]:     35.84
	FillingsUpdate:  mu: -0.093019526  nElectrons: 9.000000  magneticMoment: [ Abs: 0.26144  Tot: +0.26000 ]
SCF: Cycle: 14   F: -28.403122996005550   dF: -3.907e-06   |Residual|: 3.045e-04   |deigs|: 1.296e-03  t[s]:     37.90
	FillingsUpdate:  mu: -0.092475767  nElectrons: 9.000000  magneticMoment: [ Abs: 0.26001  Tot: +0.26000 ]
SCF: Cycle: 15   F: -28.403124935381804   dF: -1.939e-06   |Residual|: 2.623e-04   |deigs|: 6.861e-04  t[s]:     39.89
	FillingsUpdate:  mu: -0.092130423  nElectrons: 9.000000  magneticMoment: [ Abs: 0.26097  Tot: +0.26000 ]
SCF: Cycle: 16   F: -28.403126212860638   dF: -1.277e-06   |Residual|: 1.561e-04   |deigs|: 5.473e-04  t[s]:     41.95
	FillingsUpdate:  mu: -0.091919083  nElectrons: 9.000000  magneticMoment: [ Abs: 0.26043  Tot: +0.26000 ]
SCF: Cycle: 17   F: -28.403126673653365   dF: -4.608e-07   |Residual|: 8.836e-05   |deigs|: 3.808e-04  t[s]:     44.00
	FillingsUpdate:  mu: -0.091922343  nElectrons: 9.000000  magneticMoment: [ Abs: 0.26012  Tot: +0.26000 ]
SCF: Cycle: 18   F: -28.403126977743547   dF: -3.041e-07   |Residual|: 5.041e-05   |deigs|: 1.968e-04  t[s]:     46.01
	FillingsUpdate:  mu: -0.091905753  nElectrons: 9.000000  magneticMoment: [ Abs: 0.26017  Tot: +0.26000 ]
SCF: Cycle: 19   F: -28.403127095320947   dF: -1.176e-07   |Residual|: 3.383e-05   |deigs|: 1.159e-04  t[s]:     47.98
	FillingsUpdate:  mu: -0.091879981  nElectrons: 9.000000  magneticMoment: [ Abs: 0.26014  Tot: +0.26000 ]
SCF: Cycle: 20   F: -28.403127153921584   dF: -5.860e-08   |Residual|: 1.778e-05   |deigs|: 7.662e-05  t[s]:     50.05
	FillingsUpdate:  mu: -0.091871699  nElectrons: 9.000000  magneticMoment: [ Abs: 0.26011  Tot: +0.26000 ]
SCF: Cycle: 21   F: -28.403127193450867   dF: -3.953e-08   |Residual|: 8.609e-06   |deigs|: 6.227e-05  t[s]:     52.11
	FillingsUpdate:  mu: -0.091873066  nElectrons: 9.000000  magneticMoment: [ Abs: 0.26011  Tot: +0.26000 ]
SCF: Cycle: 22   F: -28.403127216029116   dF: -2.258e-08   |Residual|: 4.910e-06   |deigs|: 3.726e-05  t[s]:     54.08
	FillingsUpdate:  mu: -0.091873265  nElectrons: 9.000000  magneticMoment: [ Abs: 0.26010  Tot: +0.26000 ]
SCF: Cycle: 23   F: -28.403127227675316   dF: -1.165e-08   |Residual|: 3.351e-06   |deigs|: 2.629e-05  t[s]:     56.11
	FillingsUpdate:  mu: -0.091875856  nElectrons: 9.000000  magneticMoment: [ Abs: 0.26008  Tot: +0.26000 ]
SCF: Cycle: 24   F: -28.403127242022887   dF: -1.435e-08   |Residual|: 2.428e-06   |deigs|: 2.955e-05  t[s]:     58.07
	FillingsUpdate:  mu: -0.091875639  nElectrons: 9.000000  magneticMoment: [ Abs: 0.26006  Tot: +0.26000 ]
SCF: Cycle: 25   F: -28.403127248053448   dF: -6.031e-09   |Residual|: 2.411e-06   |deigs|: 1.250e-05  t[s]:     59.98
	FillingsUpdate:  mu: -0.091876010  nElectrons: 9.000000  magneticMoment: [ Abs: 0.26005  Tot: +0.26000 ]
SCF: Cycle: 26   F: -28.403127251548032   dF: -3.495e-09   |Residual|: 2.055e-06   |deigs|: 1.198e-05  t[s]:     61.95
SCF: Converged (|Delta E|<1.000000e-08 for 2 iters).


# Ionic positions in lattice coordinates:
ion K   0.000000000000000   0.000000000000000   0.000000000000000 0

# Forces in Lattice coordinates:
force K  -0.000000000000000   0.000000000000000   0.000000000000000 0

# Energy components:
   Eewald =      -18.0480261003326561
       EH =        4.8696418211710988
     Eloc =      -18.0620702359647431
      Enl =       -2.7740217965857719
   Epulay =        0.0000000041876954
      Exc =       -4.2629088957413197
       KE =        9.8742583727668993
-------------------------------------
     Etot =      -28.4031268304987954
       TS =        0.0000004210492349
-------------------------------------
        F =      -28.4031272515480318

IonicMinimize: Iter:   0  F: -28.403127251548032  |grad|_K:  0.000e+00  t[s]:     62.08
IonicMinimize: Converged (|grad|_K<1.000000e-04).

#--- Lowdin population analysis ---
# oxidation-state K +0.047
# magnetic-moments K +0.229

End date and time: Sat Feb  5 23:44:08 2022  (Duration: 0-0:01:02.09)
Done!
