
*************** JDFTx 1.6.0 (git hash 42ebbcc2) ***************

Start date and time: Sat Feb  5 23:42:02 2022
Executable jdftx with command-line: -i Alkali.in
Running on hosts (process indices):  d-3-4-2 (0-18)
Divided in process groups (process indices):  0 (0)  1 (1)  2 (2)  3 (3)  4 (4)  5 (5)  6 (6)  7 (7)  8 (8)  9 (9)  10 (10)  11 (11)  12 (12)  13 (13)  14 (14)  15 (15)  16 (16)  17 (17)  18 (18)
Resource initialization completed at t[s]:      0.00
Run totals: 19 processes, 48 threads, 0 GPUs


Input parsed successfully to the following command list (including defaults):

basis kpoint-dependent
coords-type Lattice
core-overlap-check vector
coulomb-interaction Slab 001
davidson-band-ratio 1.1
dump End None
dump-name $INPUT.$VAR
elec-cutoff 20
elec-eigen-algo Davidson
elec-ex-corr gga-PBE
elec-initial-magnetization -0.080000 yes
elec-smearing Fermi 1e-05
electronic-minimize  \
	dirUpdateScheme      FletcherReeves \
	linminMethod         DirUpdateRecommended \
	nIterations          100 \
	history              15 \
	knormThreshold       0 \
	energyDiffThreshold  1e-08 \
	nEnergyDiff          2 \
	alphaTstart          1 \
	alphaTmin            1e-10 \
	updateTestStepSize   yes \
	alphaTreduceFactor   0.1 \
	alphaTincreaseFactor 3 \
	nAlphaAdjustMax      3 \
	wolfeEnergy          0.0001 \
	wolfeGradient        0.9 \
	fdTest               no
electronic-scf  \
	nIterations	10000 \
	energyDiffThreshold	1e-08 \
	residualThreshold	1e-07 \
	mixFraction	0.5 \
	qMetric	0.8 \
	history	10 \
	nEigSteps	2 \
	eigDiffThreshold	1e-08 \
	mixedVariable	Density \
	qKerker	0.8 \
	qKappa	-1 \
	verbose	no \
	mixFractionMag	1.5
exchange-regularization WignerSeitzTruncated
fluid None
fluid-ex-corr (null) lda-PZ
fluid-gummel-loop 10 1.000000e-05
fluid-minimize  \
	dirUpdateScheme      PolakRibiere \
	linminMethod         DirUpdateRecommended \
	nIterations          100 \
	history              15 \
	knormThreshold       0 \
	energyDiffThreshold  0 \
	nEnergyDiff          2 \
	alphaTstart          1 \
	alphaTmin            1e-10 \
	updateTestStepSize   yes \
	alphaTreduceFactor   0.1 \
	alphaTincreaseFactor 3 \
	nAlphaAdjustMax      3 \
	wolfeEnergy          0.0001 \
	wolfeGradient        0.9 \
	fdTest               no
fluid-solvent H2O 55.338 ScalarEOS \
	epsBulk 78.4 \
	pMol 0.92466 \
	epsInf 1.77 \
	Pvap 1.06736e-10 \
	sigmaBulk 4.62e-05 \
	Rvdw 2.61727 \
	Res 1.42 \
	tauNuc 343133 \
	poleEl 15 7 1
forces-output-coords Positions
ion K   0.000000000000000   0.000000000000000   0.000000000000000 0
ion-species SG15/$ID_ONCV_PBE.upf
ion-width 0
ionic-minimize  \
	dirUpdateScheme      L-BFGS \
	linminMethod         DirUpdateRecommended \
	nIterations          0 \
	history              15 \
	knormThreshold       0.0001 \
	energyDiffThreshold  1e-06 \
	nEnergyDiff          2 \
	alphaTstart          1 \
	alphaTmin            1e-10 \
	updateTestStepSize   yes \
	alphaTreduceFactor   0.1 \
	alphaTincreaseFactor 3 \
	nAlphaAdjustMax      3 \
	wolfeEnergy          0.0001 \
	wolfeGradient        0.9 \
	fdTest               no
kpoint   0.000000000000   0.000000000000   0.000000000000  1.00000000000000
kpoint-folding 12 12 1 
latt-move-scale 1 1 1
latt-scale 2 2 1 
lattice  \
	   4.727486978767153   -2.363743489383575    0.000000000000000  \
	  -0.000000000000000    4.094123819672498    0.000000000000000  \
	   0.000000000000000    0.000000000000000   40.000000000000000 
lattice-minimize  \
	dirUpdateScheme      L-BFGS \
	linminMethod         DirUpdateRecommended \
	nIterations          0 \
	history              15 \
	knormThreshold       0 \
	energyDiffThreshold  1e-06 \
	nEnergyDiff          2 \
	alphaTstart          1 \
	alphaTmin            1e-10 \
	updateTestStepSize   yes \
	alphaTreduceFactor   0.1 \
	alphaTincreaseFactor 3 \
	nAlphaAdjustMax      3 \
	wolfeEnergy          0.0001 \
	wolfeGradient        0.9 \
	fdTest               no
lcao-params -1 1e-06 1e-05
pcm-variant GLSSA13
spintype z-spin
subspace-rotation-factor 1 yes
symmetries automatic
symmetry-threshold 0.0001



---------- Setting up symmetries ----------

Found 24 point-group symmetries of the bravais lattice
Found 24 space-group symmetries with basis
Applied RMS atom displacement 0 bohrs to make symmetries exact.

---------- Initializing the Grid ----------
R = 
[      9.45497     -4.72749            0  ]
[            0      8.18825            0  ]
[            0            0           40  ]
unit cell volume = 3096.79
G =
[   0.664538   0.383671         -0  ]
[          0   0.767342         -0  ]
[         -0         -0    0.15708  ]
Minimum fftbox size, Smin = [  40  40  164  ]
Chosen fftbox size, S = [  40  40  168  ]

---------- Exchange Correlation functional ----------
Initalized PBE GGA exchange.
Initalized PBE GGA correlation.

---------- Setting up pseudopotentials ----------
Width of ionic core gaussian charges (only for fluid interactions / plotting) set to 0

Reading pseudopotential file '/home/gridsan/aligho/DFT/build-Nov24/pseudopotentials/SG15/K_ONCV_PBE.upf':
  'K' pseudopotential, 'PBE' functional
  Generated using ONCVPSP code by D. R. Hamann
  Author: Martin Schlipf and Francois Gygi  Date: 150915.
  9 valence electrons, 3 orbitals, 6 projectors, 2222 radial grid points, with lMax = 2
  Transforming local potential to a uniform radial grid of dG=0.02 with 1489 points.
  Transforming nonlocal projectors to a uniform radial grid of dG=0.02 with 432 points.
    3S    l: 0   occupation:  2.0   eigenvalue: -1.298836
    3P    l: 1   occupation:  6.0   eigenvalue: -0.691386
    4S    l: 0   occupation:  1.0   eigenvalue: -0.085223
  Transforming atomic orbitals to a uniform radial grid of dG=0.02 with 432 points.
  Core radius for overlap checks: 2.06 bohrs.
  Reading pulay file /home/gridsan/aligho/DFT/build-Nov24/pseudopotentials/SG15/K_ONCV_PBE.pulay ... using dE_dnG = -1.597219e-05 computed for Ecut = 20.

Initialized 1 species with 1 total atoms.

Folded 1 k-points by 12x12x1 to 144 k-points.

---------- Setting up k-points, bands, fillings ----------
Reduced to 19 k-points under symmetry. 
Computing the number of bands and number of electrons
Calculating initial fillings.
nElectrons:   9.000000   nBands: 6   nStates: 38

----- Setting up reduced wavefunction bases (one per k-point) -----
average nbasis = 13230.521 , ideal nbasis = 13229.709

---------- Setting up coulomb interaction ----------
Initialized slab truncation along lattice direction 001

---------- Setting up 2D ewald sum ----------
Optimum gaussian width for ewald sums = 5.249020 bohr.
Real space sums over 289 unit cells with max indices [  8  8  0  ]
Reciprocal space sums over 81 terms with max indices [  4  4  0  ]

---------- Allocating electronic variables ----------
Initializing wave functions:  linear combination of atomic orbitals
Note: number of bands (6) exceeds available atomic orbitals (5)
K pseudo-atom occupations:   s ( 2 1 )  p ( 6 )
	FillingsUpdate:  mu: -0.096294434  nElectrons: 9.000000  magneticMoment: [ Abs: 0.08000  Tot: -0.08000 ]
LCAOMinimize: Iter:   0  F: -28.3988160914822956  |grad|_K:  4.334e-05  alpha:  1.000e+00
	FillingsUpdate:  mu: -0.096282663  nElectrons: 9.000000  magneticMoment: [ Abs: 0.08000  Tot: -0.08000 ]
LCAOMinimize: Iter:   1  F: -28.3988173479150277  |grad|_K:  4.415e-07  alpha:  9.782e-01  linmin: -3.603e-02  cgtest:  5.900e-01  t[s]:      4.57
LCAOMinimize: Encountered beta<0, resetting CG.
	FillingsUpdate:  mu: -0.096282692  nElectrons: 9.000000  magneticMoment: [ Abs: 0.08000  Tot: -0.08000 ]
LCAOMinimize: Iter:   2  F: -28.3988173480487731  |grad|_K:  1.902e-09  alpha:  1.003e+00  linmin:  7.015e-02  cgtest: -5.785e-01  t[s]:      5.86
LCAOMinimize: 	Step increased F by 8.881784e-14, reducing alpha to 3.684892e-04.
LCAOMinimize: 	Step increased F by 1.918465e-13, reducing alpha to 3.684892e-05.
LCAOMinimize: 	Step increased F by 1.421085e-14, reducing alpha to 3.684892e-06.
LCAOMinimize: 	Step failed to reduce F after 3 attempts. Quitting step.
LCAOMinimize: 	Undoing step.
LCAOMinimize: 	Step failed: resetting search direction.
	FillingsUpdate:  mu: -0.096282692  nElectrons: 9.000000  magneticMoment: [ Abs: 0.08000  Tot: -0.08000 ]
LCAOMinimize: Iter:   3  F: -28.3988173480484996  |grad|_K:  1.901e-09  alpha:  3.685e-06
	FillingsUpdate:  mu: -0.096282692  nElectrons: 9.000000  magneticMoment: [ Abs: 0.08000  Tot: -0.08000 ]
LCAOMinimize: Iter:   4  F: -28.3988173480489152  |grad|_K:  1.840e-09  alpha:  3.183e-02  linmin: -5.862e-02  cgtest:  1.000e+00  t[s]:     10.22
LCAOMinimize: Encountered beta<0, resetting CG.
LCAOMinimize: 	Step increased F by 2.273737e-13, reducing alpha to 1.100846e-05.
LCAOMinimize: 	Step increased F by 7.815970e-14, reducing alpha to 1.100846e-06.
LCAOMinimize: 	Step increased F by 7.460699e-14, reducing alpha to 1.100846e-07.
LCAOMinimize: 	Step failed to reduce F after 3 attempts. Quitting step.
LCAOMinimize: 	Undoing step.
LCAOMinimize: 	Step failed along negative gradient direction.
LCAOMinimize: Probably at roundoff error limit. (Stopping)


---- Citations for features of the code used in this run ----

   Software package:
      R. Sundararaman, K. Letchworth-Weaver, K.A. Schwarz, D. Gunceler, Y. Ozhabes and T.A. Arias, 'JDFTx: software for joint density-functional theory', SoftwareX 6, 278 (2017)

   gga-PBE exchange-correlation functional:
      J.P. Perdew, K. Burke and M. Ernzerhof, Phys. Rev. Lett. 77, 3865 (1996)

   Pseudopotentials:
      M Schlipf and F Gygi, Comput. Phys. Commun. 196, 36 (2015)

   Truncated Coulomb potentials:
      R. Sundararaman and T.A. Arias, Phys. Rev. B 87, 165122 (2013)

This list may not be complete. Please suggest additional citations or
report any other bugs at https://github.com/shankar1729/jdftx/issues

Initialization completed successfully at t[s]:     13.48


-------- Electronic minimization -----------
Will mix electronic density at each iteration.
	FillingsUpdate:  mu: -0.096282692  nElectrons: 9.000000  magneticMoment: [ Abs: 0.08000  Tot: -0.08000 ]
	FillingsUpdate:  mu: -0.106610344  nElectrons: 9.000000  magneticMoment: [ Abs: 0.08000  Tot: -0.08000 ]
SCF: Cycle:  0   F: -28.403470428432467   dF: -4.653e-03   |Residual|: 7.959e-03   |deigs|: 1.749e-01  t[s]:     15.84
	FillingsUpdate:  mu: -0.106421677  nElectrons: 9.000000  magneticMoment: [ Abs: 0.08000  Tot: -0.08000 ]
SCF: Cycle:  1   F: -28.403566446572690   dF: -9.602e-05   |Residual|: 6.384e-03   |deigs|: 4.908e-03  t[s]:     17.77
	FillingsUpdate:  mu: -0.104236271  nElectrons: 9.000000  magneticMoment: [ Abs: 0.08413  Tot: -0.08000 ]
SCF: Cycle:  2   F: -28.403613665719764   dF: -4.722e-05   |Residual|: 2.490e-03   |deigs|: 4.194e-03  t[s]:     19.66
	FillingsUpdate:  mu: -0.103479773  nElectrons: 9.000000  magneticMoment: [ Abs: 0.08005  Tot: -0.08000 ]
SCF: Cycle:  3   F: -28.403652606332098   dF: -3.894e-05   |Residual|: 1.833e-03   |deigs|: 4.198e-03  t[s]:     21.52
	FillingsUpdate:  mu: -0.102068590  nElectrons: 9.000000  magneticMoment: [ Abs: 0.08052  Tot: -0.08000 ]
SCF: Cycle:  4   F: -28.403672325130692   dF: -1.972e-05   |Residual|: 1.535e-03   |deigs|: 4.134e-03  t[s]:     23.41
	FillingsUpdate:  mu: -0.100037215  nElectrons: 9.000000  magneticMoment: [ Abs: 0.08208  Tot: -0.08000 ]
SCF: Cycle:  5   F: -28.403683515662973   dF: -1.119e-05   |Residual|: 1.084e-03   |deigs|: 3.816e-03  t[s]:     25.30
	FillingsUpdate:  mu: -0.098637302  nElectrons: 9.000000  magneticMoment: [ Abs: 0.08219  Tot: -0.08000 ]
SCF: Cycle:  6   F: -28.403699196244165   dF: -1.568e-05   |Residual|: 8.918e-04   |deigs|: 2.026e-03  t[s]:     27.21
	FillingsUpdate:  mu: -0.098191178  nElectrons: 9.000000  magneticMoment: [ Abs: 0.08089  Tot: -0.08000 ]
SCF: Cycle:  7   F: -28.403714728472419   dF: -1.553e-05   |Residual|: 7.207e-04   |deigs|: 2.138e-03  t[s]:     29.17
	FillingsUpdate:  mu: -0.097200328  nElectrons: 9.000000  magneticMoment: [ Abs: 0.08093  Tot: -0.08000 ]
SCF: Cycle:  8   F: -28.403723141551605   dF: -8.413e-06   |Residual|: 5.948e-04   |deigs|: 9.546e-04  t[s]:     31.15
	FillingsUpdate:  mu: -0.095971750  nElectrons: 9.000000  magneticMoment: [ Abs: 0.08121  Tot: -0.08000 ]
SCF: Cycle:  9   F: -28.403718080452116   dF: +5.061e-06   |Residual|: 5.176e-04   |deigs|: 1.289e-03  t[s]:     33.15
	FillingsUpdate:  mu: -0.094951524  nElectrons: 9.000000  magneticMoment: [ Abs: 0.08111  Tot: -0.08000 ]
SCF: Cycle: 10   F: -28.403723258692057   dF: -5.178e-06   |Residual|: 4.822e-04   |deigs|: 1.326e-03  t[s]:     35.18
	FillingsUpdate:  mu: -0.094039007  nElectrons: 9.000000  magneticMoment: [ Abs: 0.08060  Tot: -0.08000 ]
SCF: Cycle: 11   F: -28.403732436157277   dF: -9.177e-06   |Residual|: 4.175e-04   |deigs|: 9.246e-04  t[s]:     37.22
	FillingsUpdate:  mu: -0.092882024  nElectrons: 9.000000  magneticMoment: [ Abs: 0.08125  Tot: -0.08000 ]
SCF: Cycle: 12   F: -28.403738622613133   dF: -6.186e-06   |Residual|: 3.941e-04   |deigs|: 1.133e-03  t[s]:     39.27
	FillingsUpdate:  mu: -0.091804802  nElectrons: 9.000000  magneticMoment: [ Abs: 0.08105  Tot: -0.08000 ]
SCF: Cycle: 13   F: -28.403742480229845   dF: -3.858e-06   |Residual|: 3.650e-04   |deigs|: 1.152e-03  t[s]:     41.27
	FillingsUpdate:  mu: -0.090834054  nElectrons: 9.000000  magneticMoment: [ Abs: 0.08032  Tot: -0.08000 ]
SCF: Cycle: 14   F: -28.403745580260093   dF: -3.100e-06   |Residual|: 2.826e-04   |deigs|: 1.056e-03  t[s]:     43.27
	FillingsUpdate:  mu: -0.090474741  nElectrons: 9.000000  magneticMoment: [ Abs: 0.08038  Tot: -0.08000 ]
SCF: Cycle: 15   F: -28.403747140152163   dF: -1.560e-06   |Residual|: 2.051e-04   |deigs|: 3.841e-04  t[s]:     45.28
	FillingsUpdate:  mu: -0.090275535  nElectrons: 9.000000  magneticMoment: [ Abs: 0.08028  Tot: -0.08000 ]
SCF: Cycle: 16   F: -28.403747859046931   dF: -7.189e-07   |Residual|: 1.389e-04   |deigs|: 2.886e-04  t[s]:     47.34
	FillingsUpdate:  mu: -0.090064255  nElectrons: 9.000000  magneticMoment: [ Abs: 0.08007  Tot: -0.08000 ]
SCF: Cycle: 17   F: -28.403748122967230   dF: -2.639e-07   |Residual|: 8.236e-05   |deigs|: 3.343e-04  t[s]:     49.40
	FillingsUpdate:  mu: -0.090014510  nElectrons: 9.000000  magneticMoment: [ Abs: 0.08014  Tot: -0.08000 ]
SCF: Cycle: 18   F: -28.403748294865576   dF: -1.719e-07   |Residual|: 4.941e-05   |deigs|: 1.568e-04  t[s]:     51.37
	FillingsUpdate:  mu: -0.089984969  nElectrons: 9.000000  magneticMoment: [ Abs: 0.08011  Tot: -0.08000 ]
SCF: Cycle: 19   F: -28.403748376914010   dF: -8.205e-08   |Residual|: 3.375e-05   |deigs|: 9.805e-05  t[s]:     53.39
	FillingsUpdate:  mu: -0.089978537  nElectrons: 9.000000  magneticMoment: [ Abs: 0.08005  Tot: -0.08000 ]
SCF: Cycle: 20   F: -28.403748421280387   dF: -4.437e-08   |Residual|: 1.780e-05   |deigs|: 6.640e-05  t[s]:     55.41
	FillingsUpdate:  mu: -0.089986209  nElectrons: 9.000000  magneticMoment: [ Abs: 0.08003  Tot: -0.08000 ]
SCF: Cycle: 21   F: -28.403748450432651   dF: -2.915e-08   |Residual|: 7.502e-06   |deigs|: 5.238e-05  t[s]:     57.37
	FillingsUpdate:  mu: -0.089979366  nElectrons: 9.000000  magneticMoment: [ Abs: 0.08003  Tot: -0.08000 ]
SCF: Cycle: 22   F: -28.403748470454307   dF: -2.002e-08   |Residual|: 3.572e-06   |deigs|: 3.674e-05  t[s]:     59.22
	FillingsUpdate:  mu: -0.089971906  nElectrons: 9.000000  magneticMoment: [ Abs: 0.08003  Tot: -0.08000 ]
SCF: Cycle: 23   F: -28.403748482560466   dF: -1.211e-08   |Residual|: 1.874e-06   |deigs|: 2.896e-05  t[s]:     61.07
	FillingsUpdate:  mu: -0.089970080  nElectrons: 9.000000  magneticMoment: [ Abs: 0.08002  Tot: -0.08000 ]
SCF: Cycle: 24   F: -28.403748489250912   dF: -6.690e-09   |Residual|: 1.226e-06   |deigs|: 2.181e-05  t[s]:     62.92
	FillingsUpdate:  mu: -0.089969706  nElectrons: 9.000000  magneticMoment: [ Abs: 0.08002  Tot: -0.08000 ]
SCF: Cycle: 25   F: -28.403748494934870   dF: -5.684e-09   |Residual|: 9.058e-07   |deigs|: 1.670e-05  t[s]:     64.82
SCF: Converged (|Delta E|<1.000000e-08 for 2 iters).


# Ionic positions in lattice coordinates:
ion K   0.000000000000000   0.000000000000000   0.000000000000000 0

# Forces in Lattice coordinates:
force K  -0.000000000000000   0.000000000000000   0.000000000000000 0

# Energy components:
   Eewald =      -18.0480261003326561
       EH =        4.8667140320028119
     Eloc =      -18.0591379767045126
      Enl =       -2.7736122942136254
   Epulay =        0.0000000041876954
      Exc =       -4.2622279693078431
       KE =        9.8725429400501916
-------------------------------------
     Etot =      -28.4037473643179403
       TS =        0.0000011306169286
-------------------------------------
        F =      -28.4037484949348702

IonicMinimize: Iter:   0  F: -28.403748494934870  |grad|_K:  0.000e+00  t[s]:     64.94
IonicMinimize: Converged (|grad|_K<1.000000e-04).

#--- Lowdin population analysis ---
# oxidation-state K +0.038
# magnetic-moments K -0.071

End date and time: Sat Feb  5 23:43:07 2022  (Duration: 0-0:01:04.96)
Done!
