
*************** JDFTx 1.6.0 (git hash 42ebbcc2) ***************

Start date and time: Sat Feb  5 23:37:43 2022
Executable jdftx with command-line: -i Alkali.in
Running on hosts (process indices):  d-16-6-2 (0-18)
Divided in process groups (process indices):  0 (0)  1 (1)  2 (2)  3 (3)  4 (4)  5 (5)  6 (6)  7 (7)  8 (8)  9 (9)  10 (10)  11 (11)  12 (12)  13 (13)  14 (14)  15 (15)  16 (16)  17 (17)  18 (18)
Resource initialization completed at t[s]:      0.00
Run totals: 19 processes, 48 threads, 0 GPUs


Input parsed successfully to the following command list (including defaults):

basis kpoint-dependent
coords-type Lattice
core-overlap-check vector
coulomb-interaction Slab 001
davidson-band-ratio 1.1
dump End None
dump-name $INPUT.$VAR
elec-cutoff 20
elec-eigen-algo Davidson
elec-ex-corr gga-PBE
elec-initial-magnetization -0.300000 yes
elec-smearing Fermi 1e-05
electronic-minimize  \
	dirUpdateScheme      FletcherReeves \
	linminMethod         DirUpdateRecommended \
	nIterations          100 \
	history              15 \
	knormThreshold       0 \
	energyDiffThreshold  1e-08 \
	nEnergyDiff          2 \
	alphaTstart          1 \
	alphaTmin            1e-10 \
	updateTestStepSize   yes \
	alphaTreduceFactor   0.1 \
	alphaTincreaseFactor 3 \
	nAlphaAdjustMax      3 \
	wolfeEnergy          0.0001 \
	wolfeGradient        0.9 \
	fdTest               no
electronic-scf  \
	nIterations	10000 \
	energyDiffThreshold	1e-08 \
	residualThreshold	1e-07 \
	mixFraction	0.5 \
	qMetric	0.8 \
	history	10 \
	nEigSteps	2 \
	eigDiffThreshold	1e-08 \
	mixedVariable	Density \
	qKerker	0.8 \
	qKappa	-1 \
	verbose	no \
	mixFractionMag	1.5
exchange-regularization WignerSeitzTruncated
fluid None
fluid-ex-corr (null) lda-PZ
fluid-gummel-loop 10 1.000000e-05
fluid-minimize  \
	dirUpdateScheme      PolakRibiere \
	linminMethod         DirUpdateRecommended \
	nIterations          100 \
	history              15 \
	knormThreshold       0 \
	energyDiffThreshold  0 \
	nEnergyDiff          2 \
	alphaTstart          1 \
	alphaTmin            1e-10 \
	updateTestStepSize   yes \
	alphaTreduceFactor   0.1 \
	alphaTincreaseFactor 3 \
	nAlphaAdjustMax      3 \
	wolfeEnergy          0.0001 \
	wolfeGradient        0.9 \
	fdTest               no
fluid-solvent H2O 55.338 ScalarEOS \
	epsBulk 78.4 \
	pMol 0.92466 \
	epsInf 1.77 \
	Pvap 1.06736e-10 \
	sigmaBulk 4.62e-05 \
	Rvdw 2.61727 \
	Res 1.42 \
	tauNuc 343133 \
	poleEl 15 7 1
forces-output-coords Positions
ion K   0.000000000000000   0.000000000000000   0.000000000000000 0
ion-species SG15/$ID_ONCV_PBE.upf
ion-width 0
ionic-minimize  \
	dirUpdateScheme      L-BFGS \
	linminMethod         DirUpdateRecommended \
	nIterations          0 \
	history              15 \
	knormThreshold       0.0001 \
	energyDiffThreshold  1e-06 \
	nEnergyDiff          2 \
	alphaTstart          1 \
	alphaTmin            1e-10 \
	updateTestStepSize   yes \
	alphaTreduceFactor   0.1 \
	alphaTincreaseFactor 3 \
	nAlphaAdjustMax      3 \
	wolfeEnergy          0.0001 \
	wolfeGradient        0.9 \
	fdTest               no
kpoint   0.000000000000   0.000000000000   0.000000000000  1.00000000000000
kpoint-folding 12 12 1 
latt-move-scale 1 1 1
latt-scale 3 3 1 
lattice  \
	   4.727486978767153   -2.363743489383575    0.000000000000000  \
	  -0.000000000000000    4.094123819672498    0.000000000000000  \
	   0.000000000000000    0.000000000000000   40.000000000000000 
lattice-minimize  \
	dirUpdateScheme      L-BFGS \
	linminMethod         DirUpdateRecommended \
	nIterations          0 \
	history              15 \
	knormThreshold       0 \
	energyDiffThreshold  1e-06 \
	nEnergyDiff          2 \
	alphaTstart          1 \
	alphaTmin            1e-10 \
	updateTestStepSize   yes \
	alphaTreduceFactor   0.1 \
	alphaTincreaseFactor 3 \
	nAlphaAdjustMax      3 \
	wolfeEnergy          0.0001 \
	wolfeGradient        0.9 \
	fdTest               no
lcao-params -1 1e-06 1e-05
pcm-variant GLSSA13
spintype z-spin
subspace-rotation-factor 1 yes
symmetries automatic
symmetry-threshold 0.0001



---------- Setting up symmetries ----------

Found 24 point-group symmetries of the bravais lattice
Found 24 space-group symmetries with basis
Applied RMS atom displacement 0 bohrs to make symmetries exact.

---------- Initializing the Grid ----------
R = 
[      14.1825     -7.09123            0  ]
[            0      12.2824            0  ]
[            0            0           40  ]
unit cell volume = 6967.77
G =
[   0.443025   0.255781         -0  ]
[          0   0.511561         -0  ]
[         -0         -0    0.15708  ]
Minimum fftbox size, Smin = [  60  60  164  ]
Chosen fftbox size, S = [  60  60  168  ]

---------- Exchange Correlation functional ----------
Initalized PBE GGA exchange.
Initalized PBE GGA correlation.

---------- Setting up pseudopotentials ----------
Width of ionic core gaussian charges (only for fluid interactions / plotting) set to 0

Reading pseudopotential file '/home/gridsan/aligho/DFT/build-Nov24/pseudopotentials/SG15/K_ONCV_PBE.upf':
  'K' pseudopotential, 'PBE' functional
  Generated using ONCVPSP code by D. R. Hamann
  Author: Martin Schlipf and Francois Gygi  Date: 150915.
  9 valence electrons, 3 orbitals, 6 projectors, 2222 radial grid points, with lMax = 2
  Transforming local potential to a uniform radial grid of dG=0.02 with 1489 points.
  Transforming nonlocal projectors to a uniform radial grid of dG=0.02 with 432 points.
    3S    l: 0   occupation:  2.0   eigenvalue: -1.298836
    3P    l: 1   occupation:  6.0   eigenvalue: -0.691386
    4S    l: 0   occupation:  1.0   eigenvalue: -0.085223
  Transforming atomic orbitals to a uniform radial grid of dG=0.02 with 432 points.
  Core radius for overlap checks: 2.06 bohrs.
  Reading pulay file /home/gridsan/aligho/DFT/build-Nov24/pseudopotentials/SG15/K_ONCV_PBE.pulay ... using dE_dnG = -1.597219e-05 computed for Ecut = 20.

Initialized 1 species with 1 total atoms.

Folded 1 k-points by 12x12x1 to 144 k-points.

---------- Setting up k-points, bands, fillings ----------
Reduced to 19 k-points under symmetry. 
Computing the number of bands and number of electrons
Calculating initial fillings.
nElectrons:   9.000000   nBands: 6   nStates: 38

----- Setting up reduced wavefunction bases (one per k-point) -----
average nbasis = 29766.104 , ideal nbasis = 29766.845

---------- Setting up coulomb interaction ----------
Initialized slab truncation along lattice direction 001

---------- Setting up 2D ewald sum ----------
Optimum gaussian width for ewald sums = 7.873530 bohr.
Real space sums over 289 unit cells with max indices [  8  8  0  ]
Reciprocal space sums over 81 terms with max indices [  4  4  0  ]

---------- Allocating electronic variables ----------
Initializing wave functions:  linear combination of atomic orbitals
Note: number of bands (6) exceeds available atomic orbitals (5)
K pseudo-atom occupations:   s ( 2 1 )  p ( 6 )
	FillingsUpdate:  mu: -0.086718887  nElectrons: 9.000000  magneticMoment: [ Abs: 0.30000  Tot: -0.30000 ]
LCAOMinimize: Iter:   0  F: -28.3827676878347681  |grad|_K:  1.747e-05  alpha:  1.000e+00
	FillingsUpdate:  mu: -0.086715801  nElectrons: 9.000000  magneticMoment: [ Abs: 0.30000  Tot: -0.30000 ]
LCAOMinimize: Iter:   1  F: -28.3827678943626829  |grad|_K:  1.281e-07  alpha:  9.891e-01  linmin: -1.412e-02  cgtest:  4.204e-01  t[s]:      8.65
LCAOMinimize: Encountered beta<0, resetting CG.
	FillingsUpdate:  mu: -0.086715805  nElectrons: 9.000000  magneticMoment: [ Abs: 0.30000  Tot: -0.30000 ]
LCAOMinimize: Iter:   2  F: -28.3827678943734938  |grad|_K:  5.684e-09  alpha:  9.559e-01  linmin: -5.372e-02  cgtest:  9.978e-01  t[s]:     10.98
LCAOMinimize: Encountered beta<0, resetting CG.
LCAOMinimize: Converged (|Delta F|<1.000000e-06 for 2 iters).


---- Citations for features of the code used in this run ----

   Software package:
      R. Sundararaman, K. Letchworth-Weaver, K.A. Schwarz, D. Gunceler, Y. Ozhabes and T.A. Arias, 'JDFTx: software for joint density-functional theory', SoftwareX 6, 278 (2017)

   gga-PBE exchange-correlation functional:
      J.P. Perdew, K. Burke and M. Ernzerhof, Phys. Rev. Lett. 77, 3865 (1996)

   Pseudopotentials:
      M Schlipf and F Gygi, Comput. Phys. Commun. 196, 36 (2015)

   Truncated Coulomb potentials:
      R. Sundararaman and T.A. Arias, Phys. Rev. B 87, 165122 (2013)

This list may not be complete. Please suggest additional citations or
report any other bugs at https://github.com/shankar1729/jdftx/issues

Initialization completed successfully at t[s]:     11.14


-------- Electronic minimization -----------
Will mix electronic density at each iteration.
	FillingsUpdate:  mu: -0.086715805  nElectrons: 9.000000  magneticMoment: [ Abs: 0.30000  Tot: -0.30000 ]
	FillingsUpdate:  mu: -0.088369988  nElectrons: 9.000000  magneticMoment: [ Abs: 0.30000  Tot: -0.30000 ]
SCF: Cycle:  0   F: -28.384184812695860   dF: -1.417e-03   |Residual|: 3.360e-03   |deigs|: 1.745e-01  t[s]:     15.87
	FillingsUpdate:  mu: -0.088549022  nElectrons: 9.000000  magneticMoment: [ Abs: 0.30000  Tot: -0.30000 ]
SCF: Cycle:  1   F: -28.384214348669527   dF: -2.954e-05   |Residual|: 2.801e-03   |deigs|: 4.542e-03  t[s]:     19.54
	FillingsUpdate:  mu: -0.088915425  nElectrons: 9.000000  magneticMoment: [ Abs: 0.30119  Tot: -0.30000 ]
SCF: Cycle:  2   F: -28.384241650520064   dF: -2.730e-05   |Residual|: 1.789e-03   |deigs|: 1.996e-03  t[s]:     23.28
	FillingsUpdate:  mu: -0.089211804  nElectrons: 9.000000  magneticMoment: [ Abs: 0.30100  Tot: -0.30000 ]
SCF: Cycle:  3   F: -28.384255056295501   dF: -1.341e-05   |Residual|: 9.947e-04   |deigs|: 3.589e-03  t[s]:     27.07
	FillingsUpdate:  mu: -0.089249870  nElectrons: 9.000000  magneticMoment: [ Abs: 0.30029  Tot: -0.30000 ]
SCF: Cycle:  4   F: -28.384262321233354   dF: -7.265e-06   |Residual|: 5.603e-04   |deigs|: 2.130e-03  t[s]:     30.87
	FillingsUpdate:  mu: -0.089246366  nElectrons: 9.000000  magneticMoment: [ Abs: 0.30050  Tot: -0.30000 ]
SCF: Cycle:  5   F: -28.384266611571309   dF: -4.290e-06   |Residual|: 3.955e-04   |deigs|: 1.402e-03  t[s]:     34.72
	FillingsUpdate:  mu: -0.089133909  nElectrons: 9.000000  magneticMoment: [ Abs: 0.30043  Tot: -0.30000 ]
SCF: Cycle:  6   F: -28.384268905100203   dF: -2.294e-06   |Residual|: 2.794e-04   |deigs|: 1.820e-03  t[s]:     38.69
	FillingsUpdate:  mu: -0.089018990  nElectrons: 9.000000  magneticMoment: [ Abs: 0.30043  Tot: -0.30000 ]
SCF: Cycle:  7   F: -28.384269763591156   dF: -8.585e-07   |Residual|: 2.221e-04   |deigs|: 4.470e-04  t[s]:     42.72
	FillingsUpdate:  mu: -0.088812586  nElectrons: 9.000000  magneticMoment: [ Abs: 0.30105  Tot: -0.30000 ]
SCF: Cycle:  8   F: -28.384270194424850   dF: -4.308e-07   |Residual|: 1.752e-04   |deigs|: 2.654e-04  t[s]:     46.87
	FillingsUpdate:  mu: -0.088630857  nElectrons: 9.000000  magneticMoment: [ Abs: 0.30117  Tot: -0.30000 ]
SCF: Cycle:  9   F: -28.384270290121663   dF: -9.570e-08   |Residual|: 1.657e-04   |deigs|: 2.447e-04  t[s]:     51.03
	FillingsUpdate:  mu: -0.088371186  nElectrons: 9.000000  magneticMoment: [ Abs: 0.30101  Tot: -0.30000 ]
SCF: Cycle: 10   F: -28.384270117073946   dF: +1.730e-07   |Residual|: 1.371e-04   |deigs|: 2.887e-04  t[s]:     55.30
	FillingsUpdate:  mu: -0.088234557  nElectrons: 9.000000  magneticMoment: [ Abs: 0.30116  Tot: -0.30000 ]
SCF: Cycle: 11   F: -28.384270494692569   dF: -3.776e-07   |Residual|: 1.201e-04   |deigs|: 1.772e-04  t[s]:     59.65
	FillingsUpdate:  mu: -0.088106006  nElectrons: 9.000000  magneticMoment: [ Abs: 0.30102  Tot: -0.30000 ]
SCF: Cycle: 12   F: -28.384270871187194   dF: -3.765e-07   |Residual|: 9.886e-05   |deigs|: 2.531e-04  t[s]:     63.92
	FillingsUpdate:  mu: -0.087872111  nElectrons: 9.000000  magneticMoment: [ Abs: 0.30087  Tot: -0.30000 ]
SCF: Cycle: 13   F: -28.384270856106181   dF: +1.508e-08   |Residual|: 9.752e-05   |deigs|: 2.499e-04  t[s]:     68.23
	FillingsUpdate:  mu: -0.087714023  nElectrons: 9.000000  magneticMoment: [ Abs: 0.30049  Tot: -0.30000 ]
SCF: Cycle: 14   F: -28.384270686096041   dF: +1.700e-07   |Residual|: 9.484e-05   |deigs|: 2.111e-04  t[s]:     72.46
	FillingsUpdate:  mu: -0.087535515  nElectrons: 9.000000  magneticMoment: [ Abs: 0.30116  Tot: -0.30000 ]
SCF: Cycle: 15   F: -28.384271067021757   dF: -3.809e-07   |Residual|: 8.346e-05   |deigs|: 1.881e-04  t[s]:     76.82
	FillingsUpdate:  mu: -0.087471940  nElectrons: 9.000000  magneticMoment: [ Abs: 0.30090  Tot: -0.30000 ]
SCF: Cycle: 16   F: -28.384271516323942   dF: -4.493e-07   |Residual|: 6.579e-05   |deigs|: 6.936e-05  t[s]:     81.04
	FillingsUpdate:  mu: -0.087385075  nElectrons: 9.000000  magneticMoment: [ Abs: 0.30047  Tot: -0.30000 ]
SCF: Cycle: 17   F: -28.384271716358537   dF: -2.000e-07   |Residual|: 4.489e-05   |deigs|: 8.474e-05  t[s]:     85.28
	FillingsUpdate:  mu: -0.087321257  nElectrons: 9.000000  magneticMoment: [ Abs: 0.30051  Tot: -0.30000 ]
SCF: Cycle: 18   F: -28.384271818449005   dF: -1.021e-07   |Residual|: 2.803e-05   |deigs|: 6.919e-05  t[s]:     89.48
	FillingsUpdate:  mu: -0.087317636  nElectrons: 9.000000  magneticMoment: [ Abs: 0.30049  Tot: -0.30000 ]
SCF: Cycle: 19   F: -28.384271851110842   dF: -3.266e-08   |Residual|: 1.759e-05   |deigs|: 7.381e-05  t[s]:     93.64
	FillingsUpdate:  mu: -0.087322107  nElectrons: 9.000000  magneticMoment: [ Abs: 0.30048  Tot: -0.30000 ]
SCF: Cycle: 20   F: -28.384271878969290   dF: -2.786e-08   |Residual|: 9.585e-06   |deigs|: 1.280e-04  t[s]:     97.84
	FillingsUpdate:  mu: -0.087322641  nElectrons: 9.000000  magneticMoment: [ Abs: 0.30047  Tot: -0.30000 ]
SCF: Cycle: 21   F: -28.384271891126762   dF: -1.216e-08   |Residual|: 6.248e-06   |deigs|: 1.458e-04  t[s]:    101.79
	FillingsUpdate:  mu: -0.087322072  nElectrons: 9.000000  magneticMoment: [ Abs: 0.30047  Tot: -0.30000 ]
SCF: Cycle: 22   F: -28.384271897710629   dF: -6.584e-09   |Residual|: 3.752e-06   |deigs|: 1.322e-04  t[s]:    105.84
	FillingsUpdate:  mu: -0.087320715  nElectrons: 9.000000  magneticMoment: [ Abs: 0.30047  Tot: -0.30000 ]
SCF: Cycle: 23   F: -28.384271901158368   dF: -3.448e-09   |Residual|: 2.312e-06   |deigs|: 1.013e-04  t[s]:    109.86
SCF: Converged (|Delta E|<1.000000e-08 for 2 iters).


# Ionic positions in lattice coordinates:
ion K   0.000000000000000   0.000000000000000   0.000000000000000 0

# Forces in Lattice coordinates:
force K   0.000000000000000   0.000000000000000   0.000000000000000 0

# Energy components:
   Eewald =      -12.0320174002217755
       EH =       10.7118010530278394
     Eloc =      -29.9065804395904387
      Enl =       -2.7718014740108754
   Epulay =       -0.0000000016982517
      Exc =       -4.2370486534222636
       KE =        9.8513758545809740
-------------------------------------
     Etot =      -28.3842710613348004
       TS =        0.0000008398235688
-------------------------------------
        F =      -28.3842719011583675

IonicMinimize: Iter:   0  F: -28.384271901158368  |grad|_K:  0.000e+00  t[s]:    110.11
IonicMinimize: Converged (|grad|_K<1.000000e-04).

#--- Lowdin population analysis ---
# oxidation-state K +0.026
# magnetic-moments K -0.286

End date and time: Sat Feb  5 23:39:33 2022  (Duration: 0-0:01:50.16)
Done!
