
*************** JDFTx 1.6.0 (git hash 42ebbcc2) ***************

Start date and time: Sat Feb  5 23:44:07 2022
Executable jdftx with command-line: -i Alkali.in
Running on hosts (process indices):  d-6-4-1 (0-18)
Divided in process groups (process indices):  0 (0)  1 (1)  2 (2)  3 (3)  4 (4)  5 (5)  6 (6)  7 (7)  8 (8)  9 (9)  10 (10)  11 (11)  12 (12)  13 (13)  14 (14)  15 (15)  16 (16)  17 (17)  18 (18)
Resource initialization completed at t[s]:      0.00
Run totals: 19 processes, 48 threads, 0 GPUs


Input parsed successfully to the following command list (including defaults):

basis kpoint-dependent
coords-type Lattice
core-overlap-check vector
coulomb-interaction Slab 001
davidson-band-ratio 1.1
dump End None
dump-name $INPUT.$VAR
elec-cutoff 20
elec-eigen-algo Davidson
elec-ex-corr gga-PBE
elec-initial-magnetization 0.160000 yes
elec-smearing Fermi 1e-05
electronic-minimize  \
	dirUpdateScheme      FletcherReeves \
	linminMethod         DirUpdateRecommended \
	nIterations          100 \
	history              15 \
	knormThreshold       0 \
	energyDiffThreshold  1e-08 \
	nEnergyDiff          2 \
	alphaTstart          1 \
	alphaTmin            1e-10 \
	updateTestStepSize   yes \
	alphaTreduceFactor   0.1 \
	alphaTincreaseFactor 3 \
	nAlphaAdjustMax      3 \
	wolfeEnergy          0.0001 \
	wolfeGradient        0.9 \
	fdTest               no
electronic-scf  \
	nIterations	10000 \
	energyDiffThreshold	1e-08 \
	residualThreshold	1e-07 \
	mixFraction	0.5 \
	qMetric	0.8 \
	history	10 \
	nEigSteps	2 \
	eigDiffThreshold	1e-08 \
	mixedVariable	Density \
	qKerker	0.8 \
	qKappa	-1 \
	verbose	no \
	mixFractionMag	1.5
exchange-regularization WignerSeitzTruncated
fluid None
fluid-ex-corr (null) lda-PZ
fluid-gummel-loop 10 1.000000e-05
fluid-minimize  \
	dirUpdateScheme      PolakRibiere \
	linminMethod         DirUpdateRecommended \
	nIterations          100 \
	history              15 \
	knormThreshold       0 \
	energyDiffThreshold  0 \
	nEnergyDiff          2 \
	alphaTstart          1 \
	alphaTmin            1e-10 \
	updateTestStepSize   yes \
	alphaTreduceFactor   0.1 \
	alphaTincreaseFactor 3 \
	nAlphaAdjustMax      3 \
	wolfeEnergy          0.0001 \
	wolfeGradient        0.9 \
	fdTest               no
fluid-solvent H2O 55.338 ScalarEOS \
	epsBulk 78.4 \
	pMol 0.92466 \
	epsInf 1.77 \
	Pvap 1.06736e-10 \
	sigmaBulk 4.62e-05 \
	Rvdw 2.61727 \
	Res 1.42 \
	tauNuc 343133 \
	poleEl 15 7 1
forces-output-coords Positions
ion K   0.000000000000000   0.000000000000000   0.000000000000000 0
ion-species SG15/$ID_ONCV_PBE.upf
ion-width 0
ionic-minimize  \
	dirUpdateScheme      L-BFGS \
	linminMethod         DirUpdateRecommended \
	nIterations          0 \
	history              15 \
	knormThreshold       0.0001 \
	energyDiffThreshold  1e-06 \
	nEnergyDiff          2 \
	alphaTstart          1 \
	alphaTmin            1e-10 \
	updateTestStepSize   yes \
	alphaTreduceFactor   0.1 \
	alphaTincreaseFactor 3 \
	nAlphaAdjustMax      3 \
	wolfeEnergy          0.0001 \
	wolfeGradient        0.9 \
	fdTest               no
kpoint   0.000000000000   0.000000000000   0.000000000000  1.00000000000000
kpoint-folding 12 12 1 
latt-move-scale 1 1 1
latt-scale 3 3 1 
lattice  \
	   4.727486978767153   -2.363743489383575    0.000000000000000  \
	  -0.000000000000000    4.094123819672498    0.000000000000000  \
	   0.000000000000000    0.000000000000000   40.000000000000000 
lattice-minimize  \
	dirUpdateScheme      L-BFGS \
	linminMethod         DirUpdateRecommended \
	nIterations          0 \
	history              15 \
	knormThreshold       0 \
	energyDiffThreshold  1e-06 \
	nEnergyDiff          2 \
	alphaTstart          1 \
	alphaTmin            1e-10 \
	updateTestStepSize   yes \
	alphaTreduceFactor   0.1 \
	alphaTincreaseFactor 3 \
	nAlphaAdjustMax      3 \
	wolfeEnergy          0.0001 \
	wolfeGradient        0.9 \
	fdTest               no
lcao-params -1 1e-06 1e-05
pcm-variant GLSSA13
spintype z-spin
subspace-rotation-factor 1 yes
symmetries automatic
symmetry-threshold 0.0001



---------- Setting up symmetries ----------

Found 24 point-group symmetries of the bravais lattice
Found 24 space-group symmetries with basis
Applied RMS atom displacement 0 bohrs to make symmetries exact.

---------- Initializing the Grid ----------
R = 
[      14.1825     -7.09123            0  ]
[            0      12.2824            0  ]
[            0            0           40  ]
unit cell volume = 6967.77
G =
[   0.443025   0.255781         -0  ]
[          0   0.511561         -0  ]
[         -0         -0    0.15708  ]
Minimum fftbox size, Smin = [  60  60  164  ]
Chosen fftbox size, S = [  60  60  168  ]

---------- Exchange Correlation functional ----------
Initalized PBE GGA exchange.
Initalized PBE GGA correlation.

---------- Setting up pseudopotentials ----------
Width of ionic core gaussian charges (only for fluid interactions / plotting) set to 0

Reading pseudopotential file '/home/gridsan/aligho/DFT/build-Nov24/pseudopotentials/SG15/K_ONCV_PBE.upf':
  'K' pseudopotential, 'PBE' functional
  Generated using ONCVPSP code by D. R. Hamann
  Author: Martin Schlipf and Francois Gygi  Date: 150915.
  9 valence electrons, 3 orbitals, 6 projectors, 2222 radial grid points, with lMax = 2
  Transforming local potential to a uniform radial grid of dG=0.02 with 1489 points.
  Transforming nonlocal projectors to a uniform radial grid of dG=0.02 with 432 points.
    3S    l: 0   occupation:  2.0   eigenvalue: -1.298836
    3P    l: 1   occupation:  6.0   eigenvalue: -0.691386
    4S    l: 0   occupation:  1.0   eigenvalue: -0.085223
  Transforming atomic orbitals to a uniform radial grid of dG=0.02 with 432 points.
  Core radius for overlap checks: 2.06 bohrs.
  Reading pulay file /home/gridsan/aligho/DFT/build-Nov24/pseudopotentials/SG15/K_ONCV_PBE.pulay ... using dE_dnG = -1.597219e-05 computed for Ecut = 20.

Initialized 1 species with 1 total atoms.

Folded 1 k-points by 12x12x1 to 144 k-points.

---------- Setting up k-points, bands, fillings ----------
Reduced to 19 k-points under symmetry. 
Computing the number of bands and number of electrons
Calculating initial fillings.
nElectrons:   9.000000   nBands: 6   nStates: 38

----- Setting up reduced wavefunction bases (one per k-point) -----
average nbasis = 29766.104 , ideal nbasis = 29766.845

---------- Setting up coulomb interaction ----------
Initialized slab truncation along lattice direction 001

---------- Setting up 2D ewald sum ----------
Optimum gaussian width for ewald sums = 7.873530 bohr.
Real space sums over 289 unit cells with max indices [  8  8  0  ]
Reciprocal space sums over 81 terms with max indices [  4  4  0  ]

---------- Allocating electronic variables ----------
Initializing wave functions:  linear combination of atomic orbitals
Note: number of bands (6) exceeds available atomic orbitals (5)
K pseudo-atom occupations:   s ( 2 1 )  p ( 6 )
	FillingsUpdate:  mu: -0.087577222  nElectrons: 9.000000  magneticMoment: [ Abs: 0.16000  Tot: +0.16000 ]
LCAOMinimize: Iter:   0  F: -28.3829524493958125  |grad|_K:  1.855e-05  alpha:  1.000e+00
	FillingsUpdate:  mu: -0.087573504  nElectrons: 9.000000  magneticMoment: [ Abs: 0.16000  Tot: +0.16000 ]
LCAOMinimize: Iter:   1  F: -28.3829526819979883  |grad|_K:  1.369e-07  alpha:  9.878e-01  linmin: -1.514e-02  cgtest:  4.853e-01  t[s]:      8.76
LCAOMinimize: Encountered beta<0, resetting CG.
	FillingsUpdate:  mu: -0.087573500  nElectrons: 9.000000  magneticMoment: [ Abs: 0.16000  Tot: +0.16000 ]
LCAOMinimize: Iter:   2  F: -28.3829526820111688  |grad|_K:  1.407e-09  alpha:  1.011e+00  linmin:  4.163e-02  cgtest: -9.887e-01  t[s]:     11.13
LCAOMinimize: Converged (|Delta F|<1.000000e-06 for 2 iters).


---- Citations for features of the code used in this run ----

   Software package:
      R. Sundararaman, K. Letchworth-Weaver, K.A. Schwarz, D. Gunceler, Y. Ozhabes and T.A. Arias, 'JDFTx: software for joint density-functional theory', SoftwareX 6, 278 (2017)

   gga-PBE exchange-correlation functional:
      J.P. Perdew, K. Burke and M. Ernzerhof, Phys. Rev. Lett. 77, 3865 (1996)

   Pseudopotentials:
      M Schlipf and F Gygi, Comput. Phys. Commun. 196, 36 (2015)

   Truncated Coulomb potentials:
      R. Sundararaman and T.A. Arias, Phys. Rev. B 87, 165122 (2013)

This list may not be complete. Please suggest additional citations or
report any other bugs at https://github.com/shankar1729/jdftx/issues

Initialization completed successfully at t[s]:     11.29


-------- Electronic minimization -----------
Will mix electronic density at each iteration.
	FillingsUpdate:  mu: -0.087573500  nElectrons: 9.000000  magneticMoment: [ Abs: 0.16000  Tot: +0.16000 ]
	FillingsUpdate:  mu: -0.089412053  nElectrons: 9.000000  magneticMoment: [ Abs: 0.16000  Tot: +0.16000 ]
SCF: Cycle:  0   F: -28.384436666771869   dF: -1.484e-03   |Residual|: 3.350e-03   |deigs|: 1.746e-01  t[s]:     16.01
	FillingsUpdate:  mu: -0.089634139  nElectrons: 9.000000  magneticMoment: [ Abs: 0.16000  Tot: +0.16000 ]
SCF: Cycle:  1   F: -28.384459771542037   dF: -2.310e-05   |Residual|: 2.865e-03   |deigs|: 4.748e-03  t[s]:     19.69
	FillingsUpdate:  mu: -0.090241148  nElectrons: 9.000000  magneticMoment: [ Abs: 0.16175  Tot: +0.16000 ]
SCF: Cycle:  2   F: -28.384489866376800   dF: -3.009e-05   |Residual|: 1.467e-03   |deigs|: 2.951e-03  t[s]:     23.43
	FillingsUpdate:  mu: -0.090475660  nElectrons: 9.000000  magneticMoment: [ Abs: 0.16051  Tot: +0.16000 ]
SCF: Cycle:  3   F: -28.384500573838249   dF: -1.071e-05   |Residual|: 8.465e-04   |deigs|: 2.097e-03  t[s]:     27.24
	FillingsUpdate:  mu: -0.090430211  nElectrons: 9.000000  magneticMoment: [ Abs: 0.16017  Tot: +0.16000 ]
SCF: Cycle:  4   F: -28.384506009099020   dF: -5.435e-06   |Residual|: 5.105e-04   |deigs|: 2.186e-03  t[s]:     31.08
	FillingsUpdate:  mu: -0.090385886  nElectrons: 9.000000  magneticMoment: [ Abs: 0.16027  Tot: +0.16000 ]
SCF: Cycle:  5   F: -28.384509289414602   dF: -3.280e-06   |Residual|: 3.707e-04   |deigs|: 2.144e-03  t[s]:     34.97
	FillingsUpdate:  mu: -0.090248723  nElectrons: 9.000000  magneticMoment: [ Abs: 0.16019  Tot: +0.16000 ]
SCF: Cycle:  6   F: -28.384510891551940   dF: -1.602e-06   |Residual|: 2.782e-04   |deigs|: 1.634e-03  t[s]:     38.90
	FillingsUpdate:  mu: -0.090077674  nElectrons: 9.000000  magneticMoment: [ Abs: 0.16037  Tot: +0.16000 ]
SCF: Cycle:  7   F: -28.384511558022563   dF: -6.665e-07   |Residual|: 2.112e-04   |deigs|: 8.519e-04  t[s]:     42.97
	FillingsUpdate:  mu: -0.089878069  nElectrons: 9.000000  magneticMoment: [ Abs: 0.16077  Tot: +0.16000 ]
SCF: Cycle:  8   F: -28.384511704144131   dF: -1.461e-07   |Residual|: 1.769e-04   |deigs|: 7.384e-04  t[s]:     47.09
	FillingsUpdate:  mu: -0.089711325  nElectrons: 9.000000  magneticMoment: [ Abs: 0.16075  Tot: +0.16000 ]
SCF: Cycle:  9   F: -28.384511733702332   dF: -2.956e-08   |Residual|: 1.672e-04   |deigs|: 1.713e-04  t[s]:     51.39
	FillingsUpdate:  mu: -0.089464349  nElectrons: 9.000000  magneticMoment: [ Abs: 0.16069  Tot: +0.16000 ]
SCF: Cycle: 10   F: -28.384511878880158   dF: -1.452e-07   |Residual|: 1.416e-04   |deigs|: 3.266e-04  t[s]:     55.67
	FillingsUpdate:  mu: -0.089331121  nElectrons: 9.000000  magneticMoment: [ Abs: 0.16072  Tot: +0.16000 ]
SCF: Cycle: 11   F: -28.384512092908746   dF: -2.140e-07   |Residual|: 1.180e-04   |deigs|: 1.612e-04  t[s]:     59.97
	FillingsUpdate:  mu: -0.089195008  nElectrons: 9.000000  magneticMoment: [ Abs: 0.16066  Tot: +0.16000 ]
SCF: Cycle: 12   F: -28.384512308975314   dF: -2.161e-07   |Residual|: 9.962e-05   |deigs|: 1.488e-04  t[s]:     64.20
	FillingsUpdate:  mu: -0.088977632  nElectrons: 9.000000  magneticMoment: [ Abs: 0.16050  Tot: +0.16000 ]
SCF: Cycle: 13   F: -28.384512207398320   dF: +1.016e-07   |Residual|: 9.895e-05   |deigs|: 2.566e-04  t[s]:     68.47
	FillingsUpdate:  mu: -0.088785829  nElectrons: 9.000000  magneticMoment: [ Abs: 0.16026  Tot: +0.16000 ]
SCF: Cycle: 14   F: -28.384512048805227   dF: +1.586e-07   |Residual|: 9.579e-05   |deigs|: 4.734e-04  t[s]:     72.73
	FillingsUpdate:  mu: -0.088644923  nElectrons: 9.000000  magneticMoment: [ Abs: 0.16083  Tot: +0.16000 ]
SCF: Cycle: 15   F: -28.384512550834131   dF: -5.020e-07   |Residual|: 8.316e-05   |deigs|: 3.244e-04  t[s]:     77.03
	FillingsUpdate:  mu: -0.088586939  nElectrons: 9.000000  magneticMoment: [ Abs: 0.16060  Tot: +0.16000 ]
SCF: Cycle: 16   F: -28.384512970734409   dF: -4.199e-07   |Residual|: 6.441e-05   |deigs|: 6.517e-05  t[s]:     81.29
	FillingsUpdate:  mu: -0.088479121  nElectrons: 9.000000  magneticMoment: [ Abs: 0.16025  Tot: +0.16000 ]
SCF: Cycle: 17   F: -28.384513124070644   dF: -1.533e-07   |Residual|: 4.417e-05   |deigs|: 9.382e-05  t[s]:     85.51
	FillingsUpdate:  mu: -0.088443745  nElectrons: 9.000000  magneticMoment: [ Abs: 0.16029  Tot: +0.16000 ]
SCF: Cycle: 18   F: -28.384513216832222   dF: -9.276e-08   |Residual|: 2.712e-05   |deigs|: 3.942e-05  t[s]:     89.65
	FillingsUpdate:  mu: -0.088442042  nElectrons: 9.000000  magneticMoment: [ Abs: 0.16026  Tot: +0.16000 ]
SCF: Cycle: 19   F: -28.384513243101996   dF: -2.627e-08   |Residual|: 1.634e-05   |deigs|: 1.148e-05  t[s]:     93.69
	FillingsUpdate:  mu: -0.088442038  nElectrons: 9.000000  magneticMoment: [ Abs: 0.16027  Tot: +0.16000 ]
SCF: Cycle: 20   F: -28.384513266064239   dF: -2.296e-08   |Residual|: 8.116e-06   |deigs|: 9.040e-06  t[s]:     97.90
	FillingsUpdate:  mu: -0.088440257  nElectrons: 9.000000  magneticMoment: [ Abs: 0.16026  Tot: +0.16000 ]
SCF: Cycle: 21   F: -28.384513274460058   dF: -8.396e-09   |Residual|: 5.493e-06   |deigs|: 7.033e-06  t[s]:    101.76
	FillingsUpdate:  mu: -0.088440100  nElectrons: 9.000000  magneticMoment: [ Abs: 0.16026  Tot: +0.16000 ]
SCF: Cycle: 22   F: -28.384513279523691   dF: -5.064e-09   |Residual|: 3.035e-06   |deigs|: 8.873e-06  t[s]:    105.89
SCF: Converged (|Delta E|<1.000000e-08 for 2 iters).


# Ionic positions in lattice coordinates:
ion K   0.000000000000000   0.000000000000000   0.000000000000000 0

# Forces in Lattice coordinates:
force K  -0.000000000000000  -0.000000000000000   0.000000000000000 0

# Energy components:
   Eewald =      -12.0320174002217755
       EH =       10.7068565016333448
     Eloc =      -29.9010920790195840
      Enl =       -2.7720393689680582
   Epulay =       -0.0000000016982517
      Exc =       -4.2364121123168932
       KE =        9.8501916151448441
-------------------------------------
     Etot =      -28.3845128454463733
       TS =        0.0000004340773189
-------------------------------------
        F =      -28.3845132795236914

IonicMinimize: Iter:   0  F: -28.384513279523691  |grad|_K:  0.000e+00  t[s]:    106.14
IonicMinimize: Converged (|grad|_K<1.000000e-04).

#--- Lowdin population analysis ---
# oxidation-state K +0.026
# magnetic-moments K +0.152

End date and time: Sat Feb  5 23:45:54 2022  (Duration: 0-0:01:46.19)
Done!
