
*************** JDFTx 1.6.0 (git hash 42ebbcc2) ***************

Start date and time: Sat Feb  5 23:56:10 2022
Executable jdftx with command-line: -i Alkali.in
Running on hosts (process indices):  d-4-8-2 (0-18)
Divided in process groups (process indices):  0 (0)  1 (1)  2 (2)  3 (3)  4 (4)  5 (5)  6 (6)  7 (7)  8 (8)  9 (9)  10 (10)  11 (11)  12 (12)  13 (13)  14 (14)  15 (15)  16 (16)  17 (17)  18 (18)
Resource initialization completed at t[s]:      0.00
Run totals: 19 processes, 48 threads, 0 GPUs


Input parsed successfully to the following command list (including defaults):

basis kpoint-dependent
coords-type Lattice
core-overlap-check vector
coulomb-interaction Slab 001
davidson-band-ratio 1.1
dump End None
dump-name $INPUT.$VAR
elec-cutoff 20
elec-eigen-algo Davidson
elec-ex-corr gga-PBE
elec-initial-magnetization 0.900000 yes
elec-smearing Fermi 1e-05
electronic-minimize  \
	dirUpdateScheme      FletcherReeves \
	linminMethod         DirUpdateRecommended \
	nIterations          100 \
	history              15 \
	knormThreshold       0 \
	energyDiffThreshold  1e-08 \
	nEnergyDiff          2 \
	alphaTstart          1 \
	alphaTmin            1e-10 \
	updateTestStepSize   yes \
	alphaTreduceFactor   0.1 \
	alphaTincreaseFactor 3 \
	nAlphaAdjustMax      3 \
	wolfeEnergy          0.0001 \
	wolfeGradient        0.9 \
	fdTest               no
electronic-scf  \
	nIterations	10000 \
	energyDiffThreshold	1e-08 \
	residualThreshold	1e-07 \
	mixFraction	0.5 \
	qMetric	0.8 \
	history	10 \
	nEigSteps	2 \
	eigDiffThreshold	1e-08 \
	mixedVariable	Density \
	qKerker	0.8 \
	qKappa	-1 \
	verbose	no \
	mixFractionMag	1.5
exchange-regularization WignerSeitzTruncated
fluid None
fluid-ex-corr (null) lda-PZ
fluid-gummel-loop 10 1.000000e-05
fluid-minimize  \
	dirUpdateScheme      PolakRibiere \
	linminMethod         DirUpdateRecommended \
	nIterations          100 \
	history              15 \
	knormThreshold       0 \
	energyDiffThreshold  0 \
	nEnergyDiff          2 \
	alphaTstart          1 \
	alphaTmin            1e-10 \
	updateTestStepSize   yes \
	alphaTreduceFactor   0.1 \
	alphaTincreaseFactor 3 \
	nAlphaAdjustMax      3 \
	wolfeEnergy          0.0001 \
	wolfeGradient        0.9 \
	fdTest               no
fluid-solvent H2O 55.338 ScalarEOS \
	epsBulk 78.4 \
	pMol 0.92466 \
	epsInf 1.77 \
	Pvap 1.06736e-10 \
	sigmaBulk 4.62e-05 \
	Rvdw 2.61727 \
	Res 1.42 \
	tauNuc 343133 \
	poleEl 15 7 1
forces-output-coords Positions
ion K   0.000000000000000   0.000000000000000   0.000000000000000 0
ion-species SG15/$ID_ONCV_PBE.upf
ion-width 0
ionic-minimize  \
	dirUpdateScheme      L-BFGS \
	linminMethod         DirUpdateRecommended \
	nIterations          0 \
	history              15 \
	knormThreshold       0.0001 \
	energyDiffThreshold  1e-06 \
	nEnergyDiff          2 \
	alphaTstart          1 \
	alphaTmin            1e-10 \
	updateTestStepSize   yes \
	alphaTreduceFactor   0.1 \
	alphaTincreaseFactor 3 \
	nAlphaAdjustMax      3 \
	wolfeEnergy          0.0001 \
	wolfeGradient        0.9 \
	fdTest               no
kpoint   0.000000000000   0.000000000000   0.000000000000  1.00000000000000
kpoint-folding 12 12 1 
latt-move-scale 1 1 1
latt-scale 3 3 1 
lattice  \
	   4.727486978767153   -2.363743489383575    0.000000000000000  \
	  -0.000000000000000    4.094123819672498    0.000000000000000  \
	   0.000000000000000    0.000000000000000   40.000000000000000 
lattice-minimize  \
	dirUpdateScheme      L-BFGS \
	linminMethod         DirUpdateRecommended \
	nIterations          0 \
	history              15 \
	knormThreshold       0 \
	energyDiffThreshold  1e-06 \
	nEnergyDiff          2 \
	alphaTstart          1 \
	alphaTmin            1e-10 \
	updateTestStepSize   yes \
	alphaTreduceFactor   0.1 \
	alphaTincreaseFactor 3 \
	nAlphaAdjustMax      3 \
	wolfeEnergy          0.0001 \
	wolfeGradient        0.9 \
	fdTest               no
lcao-params -1 1e-06 1e-05
pcm-variant GLSSA13
spintype z-spin
subspace-rotation-factor 1 yes
symmetries automatic
symmetry-threshold 0.0001



---------- Setting up symmetries ----------

Found 24 point-group symmetries of the bravais lattice
Found 24 space-group symmetries with basis
Applied RMS atom displacement 0 bohrs to make symmetries exact.

---------- Initializing the Grid ----------
R = 
[      14.1825     -7.09123            0  ]
[            0      12.2824            0  ]
[            0            0           40  ]
unit cell volume = 6967.77
G =
[   0.443025   0.255781         -0  ]
[          0   0.511561         -0  ]
[         -0         -0    0.15708  ]
Minimum fftbox size, Smin = [  60  60  164  ]
Chosen fftbox size, S = [  60  60  168  ]

---------- Exchange Correlation functional ----------
Initalized PBE GGA exchange.
Initalized PBE GGA correlation.

---------- Setting up pseudopotentials ----------
Width of ionic core gaussian charges (only for fluid interactions / plotting) set to 0

Reading pseudopotential file '/home/gridsan/aligho/DFT/build-Nov24/pseudopotentials/SG15/K_ONCV_PBE.upf':
  'K' pseudopotential, 'PBE' functional
  Generated using ONCVPSP code by D. R. Hamann
  Author: Martin Schlipf and Francois Gygi  Date: 150915.
  9 valence electrons, 3 orbitals, 6 projectors, 2222 radial grid points, with lMax = 2
  Transforming local potential to a uniform radial grid of dG=0.02 with 1489 points.
  Transforming nonlocal projectors to a uniform radial grid of dG=0.02 with 432 points.
    3S    l: 0   occupation:  2.0   eigenvalue: -1.298836
    3P    l: 1   occupation:  6.0   eigenvalue: -0.691386
    4S    l: 0   occupation:  1.0   eigenvalue: -0.085223
  Transforming atomic orbitals to a uniform radial grid of dG=0.02 with 432 points.
  Core radius for overlap checks: 2.06 bohrs.
  Reading pulay file /home/gridsan/aligho/DFT/build-Nov24/pseudopotentials/SG15/K_ONCV_PBE.pulay ... using dE_dnG = -1.597219e-05 computed for Ecut = 20.

Initialized 1 species with 1 total atoms.

Folded 1 k-points by 12x12x1 to 144 k-points.

---------- Setting up k-points, bands, fillings ----------
Reduced to 19 k-points under symmetry. 
Computing the number of bands and number of electrons
Calculating initial fillings.
nElectrons:   9.000000   nBands: 6   nStates: 38

----- Setting up reduced wavefunction bases (one per k-point) -----
average nbasis = 29766.104 , ideal nbasis = 29766.845

---------- Setting up coulomb interaction ----------
Initialized slab truncation along lattice direction 001

---------- Setting up 2D ewald sum ----------
Optimum gaussian width for ewald sums = 7.873530 bohr.
Real space sums over 289 unit cells with max indices [  8  8  0  ]
Reciprocal space sums over 81 terms with max indices [  4  4  0  ]

---------- Allocating electronic variables ----------
Initializing wave functions:  linear combination of atomic orbitals
Note: number of bands (6) exceeds available atomic orbitals (5)
K pseudo-atom occupations:   s ( 2 1 )  p ( 6 )
	FillingsUpdate:  mu: -0.086802138  nElectrons: 9.000000  magneticMoment: [ Abs: 0.90000  Tot: +0.90000 ]
LCAOMinimize: Iter:   0  F: -28.3816774522148947  |grad|_K:  5.077e-06  alpha:  1.000e+00
	FillingsUpdate:  mu: -0.086801344  nElectrons: 9.000000  magneticMoment: [ Abs: 0.90000  Tot: +0.90000 ]
LCAOMinimize: Iter:   1  F: -28.3816774697871459  |grad|_K:  2.479e-08  alpha:  9.968e-01  linmin: -4.407e-03  cgtest:  7.203e-02  t[s]:      8.84
LCAOMinimize: Encountered beta<0, resetting CG.
	FillingsUpdate:  mu: -0.086801347  nElectrons: 9.000000  magneticMoment: [ Abs: 0.90000  Tot: +0.90000 ]
LCAOMinimize: Iter:   2  F: -28.3816774697877712  |grad|_K:  9.342e-09  alpha:  6.188e-01  linmin: -8.331e-02  cgtest:  1.000e+00  t[s]:     11.19
LCAOMinimize: Encountered beta<0, resetting CG.
LCAOMinimize: Converged (|Delta F|<1.000000e-06 for 2 iters).


---- Citations for features of the code used in this run ----

   Software package:
      R. Sundararaman, K. Letchworth-Weaver, K.A. Schwarz, D. Gunceler, Y. Ozhabes and T.A. Arias, 'JDFTx: software for joint density-functional theory', SoftwareX 6, 278 (2017)

   gga-PBE exchange-correlation functional:
      J.P. Perdew, K. Burke and M. Ernzerhof, Phys. Rev. Lett. 77, 3865 (1996)

   Pseudopotentials:
      M Schlipf and F Gygi, Comput. Phys. Commun. 196, 36 (2015)

   Truncated Coulomb potentials:
      R. Sundararaman and T.A. Arias, Phys. Rev. B 87, 165122 (2013)

This list may not be complete. Please suggest additional citations or
report any other bugs at https://github.com/shankar1729/jdftx/issues

Initialization completed successfully at t[s]:     11.35


-------- Electronic minimization -----------
Will mix electronic density at each iteration.
	FillingsUpdate:  mu: -0.086801347  nElectrons: 9.000000  magneticMoment: [ Abs: 0.90000  Tot: +0.90000 ]
	FillingsUpdate:  mu: -0.087411671  nElectrons: 9.000000  magneticMoment: [ Abs: 0.90000  Tot: +0.90000 ]
SCF: Cycle:  0   F: -28.382607041571948   dF: -9.296e-04   |Residual|: 2.985e-03   |deigs|: 1.731e-01  t[s]:     16.22
	FillingsUpdate:  mu: -0.087568070  nElectrons: 9.000000  magneticMoment: [ Abs: 0.90095  Tot: +0.90000 ]
SCF: Cycle:  1   F: -28.382630345748833   dF: -2.330e-05   |Residual|: 1.717e-03   |deigs|: 5.375e-03  t[s]:     19.94
	FillingsUpdate:  mu: -0.087817392  nElectrons: 9.000000  magneticMoment: [ Abs: 0.90180  Tot: +0.90000 ]
SCF: Cycle:  2   F: -28.382644701782493   dF: -1.436e-05   |Residual|: 1.365e-03   |deigs|: 3.055e-03  t[s]:     23.74
	FillingsUpdate:  mu: -0.088134247  nElectrons: 9.000000  magneticMoment: [ Abs: 0.90233  Tot: +0.90000 ]
SCF: Cycle:  3   F: -28.382658843458074   dF: -1.414e-05   |Residual|: 1.019e-03   |deigs|: 2.253e-03  t[s]:     27.64
	FillingsUpdate:  mu: -0.088306464  nElectrons: 9.000000  magneticMoment: [ Abs: 0.90188  Tot: +0.90000 ]
SCF: Cycle:  4   F: -28.382672535603049   dF: -1.369e-05   |Residual|: 6.949e-04   |deigs|: 1.565e-03  t[s]:     31.53
	FillingsUpdate:  mu: -0.088264930  nElectrons: 9.000000  magneticMoment: [ Abs: 0.90206  Tot: +0.90000 ]
SCF: Cycle:  5   F: -28.382683658579754   dF: -1.112e-05   |Residual|: 3.708e-04   |deigs|: 8.194e-04  t[s]:     35.52
	FillingsUpdate:  mu: -0.088152149  nElectrons: 9.000000  magneticMoment: [ Abs: 0.90177  Tot: +0.90000 ]
SCF: Cycle:  6   F: -28.382687345555532   dF: -3.687e-06   |Residual|: 2.758e-04   |deigs|: 1.552e-03  t[s]:     39.52
	FillingsUpdate:  mu: -0.088019235  nElectrons: 9.000000  magneticMoment: [ Abs: 0.90210  Tot: +0.90000 ]
SCF: Cycle:  7   F: -28.382690143705926   dF: -2.798e-06   |Residual|: 2.074e-04   |deigs|: 9.686e-04  t[s]:     43.71
	FillingsUpdate:  mu: -0.087734747  nElectrons: 9.000000  magneticMoment: [ Abs: 0.90222  Tot: +0.90000 ]
SCF: Cycle:  8   F: -28.382691120430728   dF: -9.767e-07   |Residual|: 1.661e-04   |deigs|: 3.202e-04  t[s]:     47.84
	FillingsUpdate:  mu: -0.087599524  nElectrons: 9.000000  magneticMoment: [ Abs: 0.90243  Tot: +0.90000 ]
SCF: Cycle:  9   F: -28.382691578788908   dF: -4.584e-07   |Residual|: 1.537e-04   |deigs|: 1.861e-04  t[s]:     52.12
	FillingsUpdate:  mu: -0.087473352  nElectrons: 9.000000  magneticMoment: [ Abs: 0.90210  Tot: +0.90000 ]
SCF: Cycle: 10   F: -28.382691990554303   dF: -4.118e-07   |Residual|: 1.396e-04   |deigs|: 2.631e-04  t[s]:     56.42
	FillingsUpdate:  mu: -0.087390201  nElectrons: 9.000000  magneticMoment: [ Abs: 0.90289  Tot: +0.90000 ]
SCF: Cycle: 11   F: -28.382691929486217   dF: +6.107e-08   |Residual|: 1.007e-04   |deigs|: 1.657e-04  t[s]:     60.73
	FillingsUpdate:  mu: -0.087361847  nElectrons: 9.000000  magneticMoment: [ Abs: 0.90271  Tot: +0.90000 ]
SCF: Cycle: 12   F: -28.382693045574900   dF: -1.116e-06   |Residual|: 8.315e-05   |deigs|: 1.960e-04  t[s]:     64.99
	FillingsUpdate:  mu: -0.087217243  nElectrons: 9.000000  magneticMoment: [ Abs: 0.90287  Tot: +0.90000 ]
SCF: Cycle: 13   F: -28.382693398273819   dF: -3.527e-07   |Residual|: 8.666e-05   |deigs|: 2.151e-04  t[s]:     69.26
	FillingsUpdate:  mu: -0.086990337  nElectrons: 9.000000  magneticMoment: [ Abs: 0.90278  Tot: +0.90000 ]
SCF: Cycle: 14   F: -28.382693175117335   dF: +2.232e-07   |Residual|: 8.867e-05   |deigs|: 2.529e-04  t[s]:     73.51
	FillingsUpdate:  mu: -0.086815564  nElectrons: 9.000000  magneticMoment: [ Abs: 0.90273  Tot: +0.90000 ]
SCF: Cycle: 15   F: -28.382693367988239   dF: -1.929e-07   |Residual|: 7.422e-05   |deigs|: 1.905e-04  t[s]:     77.78
	FillingsUpdate:  mu: -0.086762190  nElectrons: 9.000000  magneticMoment: [ Abs: 0.90228  Tot: +0.90000 ]
SCF: Cycle: 16   F: -28.382693655516036   dF: -2.875e-07   |Residual|: 6.192e-05   |deigs|: 1.238e-04  t[s]:     82.06
	FillingsUpdate:  mu: -0.086664018  nElectrons: 9.000000  magneticMoment: [ Abs: 0.90199  Tot: +0.90000 ]
SCF: Cycle: 17   F: -28.382693961070647   dF: -3.056e-07   |Residual|: 5.364e-05   |deigs|: 1.334e-04  t[s]:     86.38
	FillingsUpdate:  mu: -0.086643670  nElectrons: 9.000000  magneticMoment: [ Abs: 0.90191  Tot: +0.90000 ]
SCF: Cycle: 18   F: -28.382694268706391   dF: -3.076e-07   |Residual|: 4.083e-05   |deigs|: 3.670e-05  t[s]:     90.64
	FillingsUpdate:  mu: -0.086648662  nElectrons: 9.000000  magneticMoment: [ Abs: 0.90193  Tot: +0.90000 ]
SCF: Cycle: 19   F: -28.382694239752613   dF: +2.895e-08   |Residual|: 2.565e-05   |deigs|: 2.424e-05  t[s]:     94.89
	FillingsUpdate:  mu: -0.086623369  nElectrons: 9.000000  magneticMoment: [ Abs: 0.90194  Tot: +0.90000 ]
SCF: Cycle: 20   F: -28.382694453164891   dF: -2.134e-07   |Residual|: 1.564e-05   |deigs|: 3.444e-05  t[s]:     99.17
	FillingsUpdate:  mu: -0.086622400  nElectrons: 9.000000  magneticMoment: [ Abs: 0.90192  Tot: +0.90000 ]
SCF: Cycle: 21   F: -28.382694529201160   dF: -7.604e-08   |Residual|: 1.077e-05   |deigs|: 4.677e-05  t[s]:    103.37
	FillingsUpdate:  mu: -0.086623974  nElectrons: 9.000000  magneticMoment: [ Abs: 0.90194  Tot: +0.90000 ]
SCF: Cycle: 22   F: -28.382694532284628   dF: -3.083e-09   |Residual|: 6.139e-06   |deigs|: 4.493e-05  t[s]:    107.70
	FillingsUpdate:  mu: -0.086624577  nElectrons: 9.000000  magneticMoment: [ Abs: 0.90195  Tot: +0.90000 ]
SCF: Cycle: 23   F: -28.382694552853998   dF: -2.057e-08   |Residual|: 4.613e-06   |deigs|: 5.293e-05  t[s]:    111.97
	FillingsUpdate:  mu: -0.086629632  nElectrons: 9.000000  magneticMoment: [ Abs: 0.90195  Tot: +0.90000 ]
SCF: Cycle: 24   F: -28.382694558720559   dF: -5.867e-09   |Residual|: 3.680e-06   |deigs|: 5.082e-05  t[s]:    116.18
	FillingsUpdate:  mu: -0.086629874  nElectrons: 9.000000  magneticMoment: [ Abs: 0.90193  Tot: +0.90000 ]
SCF: Cycle: 25   F: -28.382694565585904   dF: -6.865e-09   |Residual|: 2.880e-06   |deigs|: 5.375e-05  t[s]:    120.50
SCF: Converged (|Delta E|<1.000000e-08 for 2 iters).


# Ionic positions in lattice coordinates:
ion K   0.000000000000000   0.000000000000000   0.000000000000000 0

# Forces in Lattice coordinates:
force K   0.000000000000000  -0.000000000000000   0.000000000000000 0

# Energy components:
   Eewald =      -12.0320174002217755
       EH =       10.7665331663853259
     Eloc =      -29.9672358601809492
      Enl =       -2.7690682188207072
   Epulay =       -0.0000000016982517
      Exc =       -4.2447929008036542
       KE =        9.8638872808408919
-------------------------------------
     Etot =      -28.3826939344991231
       TS =        0.0000006310867818
-------------------------------------
        F =      -28.3826945655859042

IonicMinimize: Iter:   0  F: -28.382694565585904  |grad|_K:  0.000e+00  t[s]:    120.75
IonicMinimize: Converged (|grad|_K<1.000000e-04).

#--- Lowdin population analysis ---
# oxidation-state K +0.019
# magnetic-moments K +0.881

End date and time: Sat Feb  5 23:58:10 2022  (Duration: 0-0:02:00.80)
Done!
