
*************** JDFTx 1.6.0 (git hash 42ebbcc2) ***************

Start date and time: Sat Feb  5 23:31:16 2022
Executable jdftx with command-line: -i Alkali.in
Running on hosts (process indices):  d-6-7-4 (0-18)
Divided in process groups (process indices):  0 (0)  1 (1)  2 (2)  3 (3)  4 (4)  5 (5)  6 (6)  7 (7)  8 (8)  9 (9)  10 (10)  11 (11)  12 (12)  13 (13)  14 (14)  15 (15)  16 (16)  17 (17)  18 (18)
Resource initialization completed at t[s]:      0.00
Run totals: 19 processes, 48 threads, 0 GPUs


Input parsed successfully to the following command list (including defaults):

basis kpoint-dependent
coords-type Lattice
core-overlap-check vector
coulomb-interaction Slab 001
davidson-band-ratio 1.1
dump End None
dump-name $INPUT.$VAR
elec-cutoff 20
elec-eigen-algo Davidson
elec-ex-corr gga-PBE
elec-initial-magnetization -0.740000 yes
elec-smearing Fermi 1e-05
electronic-minimize  \
	dirUpdateScheme      FletcherReeves \
	linminMethod         DirUpdateRecommended \
	nIterations          100 \
	history              15 \
	knormThreshold       0 \
	energyDiffThreshold  1e-08 \
	nEnergyDiff          2 \
	alphaTstart          1 \
	alphaTmin            1e-10 \
	updateTestStepSize   yes \
	alphaTreduceFactor   0.1 \
	alphaTincreaseFactor 3 \
	nAlphaAdjustMax      3 \
	wolfeEnergy          0.0001 \
	wolfeGradient        0.9 \
	fdTest               no
electronic-scf  \
	nIterations	10000 \
	energyDiffThreshold	1e-08 \
	residualThreshold	1e-07 \
	mixFraction	0.5 \
	qMetric	0.8 \
	history	10 \
	nEigSteps	2 \
	eigDiffThreshold	1e-08 \
	mixedVariable	Density \
	qKerker	0.8 \
	qKappa	-1 \
	verbose	no \
	mixFractionMag	1.5
exchange-regularization WignerSeitzTruncated
fluid None
fluid-ex-corr (null) lda-PZ
fluid-gummel-loop 10 1.000000e-05
fluid-minimize  \
	dirUpdateScheme      PolakRibiere \
	linminMethod         DirUpdateRecommended \
	nIterations          100 \
	history              15 \
	knormThreshold       0 \
	energyDiffThreshold  0 \
	nEnergyDiff          2 \
	alphaTstart          1 \
	alphaTmin            1e-10 \
	updateTestStepSize   yes \
	alphaTreduceFactor   0.1 \
	alphaTincreaseFactor 3 \
	nAlphaAdjustMax      3 \
	wolfeEnergy          0.0001 \
	wolfeGradient        0.9 \
	fdTest               no
fluid-solvent H2O 55.338 ScalarEOS \
	epsBulk 78.4 \
	pMol 0.92466 \
	epsInf 1.77 \
	Pvap 1.06736e-10 \
	sigmaBulk 4.62e-05 \
	Rvdw 2.61727 \
	Res 1.42 \
	tauNuc 343133 \
	poleEl 15 7 1
forces-output-coords Positions
ion K   0.000000000000000   0.000000000000000   0.000000000000000 0
ion-species SG15/$ID_ONCV_PBE.upf
ion-width 0
ionic-minimize  \
	dirUpdateScheme      L-BFGS \
	linminMethod         DirUpdateRecommended \
	nIterations          0 \
	history              15 \
	knormThreshold       0.0001 \
	energyDiffThreshold  1e-06 \
	nEnergyDiff          2 \
	alphaTstart          1 \
	alphaTmin            1e-10 \
	updateTestStepSize   yes \
	alphaTreduceFactor   0.1 \
	alphaTincreaseFactor 3 \
	nAlphaAdjustMax      3 \
	wolfeEnergy          0.0001 \
	wolfeGradient        0.9 \
	fdTest               no
kpoint   0.000000000000   0.000000000000   0.000000000000  1.00000000000000
kpoint-folding 12 12 1 
latt-move-scale 1 1 1
latt-scale 3 3 1 
lattice  \
	   4.727486978767153   -2.363743489383575    0.000000000000000  \
	  -0.000000000000000    4.094123819672498    0.000000000000000  \
	   0.000000000000000    0.000000000000000   40.000000000000000 
lattice-minimize  \
	dirUpdateScheme      L-BFGS \
	linminMethod         DirUpdateRecommended \
	nIterations          0 \
	history              15 \
	knormThreshold       0 \
	energyDiffThreshold  1e-06 \
	nEnergyDiff          2 \
	alphaTstart          1 \
	alphaTmin            1e-10 \
	updateTestStepSize   yes \
	alphaTreduceFactor   0.1 \
	alphaTincreaseFactor 3 \
	nAlphaAdjustMax      3 \
	wolfeEnergy          0.0001 \
	wolfeGradient        0.9 \
	fdTest               no
lcao-params -1 1e-06 1e-05
pcm-variant GLSSA13
spintype z-spin
subspace-rotation-factor 1 yes
symmetries automatic
symmetry-threshold 0.0001



---------- Setting up symmetries ----------

Found 24 point-group symmetries of the bravais lattice
Found 24 space-group symmetries with basis
Applied RMS atom displacement 0 bohrs to make symmetries exact.

---------- Initializing the Grid ----------
R = 
[      14.1825     -7.09123            0  ]
[            0      12.2824            0  ]
[            0            0           40  ]
unit cell volume = 6967.77
G =
[   0.443025   0.255781         -0  ]
[          0   0.511561         -0  ]
[         -0         -0    0.15708  ]
Minimum fftbox size, Smin = [  60  60  164  ]
Chosen fftbox size, S = [  60  60  168  ]

---------- Exchange Correlation functional ----------
Initalized PBE GGA exchange.
Initalized PBE GGA correlation.

---------- Setting up pseudopotentials ----------
Width of ionic core gaussian charges (only for fluid interactions / plotting) set to 0

Reading pseudopotential file '/home/gridsan/aligho/DFT/build-Nov24/pseudopotentials/SG15/K_ONCV_PBE.upf':
  'K' pseudopotential, 'PBE' functional
  Generated using ONCVPSP code by D. R. Hamann
  Author: Martin Schlipf and Francois Gygi  Date: 150915.
  9 valence electrons, 3 orbitals, 6 projectors, 2222 radial grid points, with lMax = 2
  Transforming local potential to a uniform radial grid of dG=0.02 with 1489 points.
  Transforming nonlocal projectors to a uniform radial grid of dG=0.02 with 432 points.
    3S    l: 0   occupation:  2.0   eigenvalue: -1.298836
    3P    l: 1   occupation:  6.0   eigenvalue: -0.691386
    4S    l: 0   occupation:  1.0   eigenvalue: -0.085223
  Transforming atomic orbitals to a uniform radial grid of dG=0.02 with 432 points.
  Core radius for overlap checks: 2.06 bohrs.
  Reading pulay file /home/gridsan/aligho/DFT/build-Nov24/pseudopotentials/SG15/K_ONCV_PBE.pulay ... using dE_dnG = -1.597219e-05 computed for Ecut = 20.

Initialized 1 species with 1 total atoms.

Folded 1 k-points by 12x12x1 to 144 k-points.

---------- Setting up k-points, bands, fillings ----------
Reduced to 19 k-points under symmetry. 
Computing the number of bands and number of electrons
Calculating initial fillings.
nElectrons:   9.000000   nBands: 6   nStates: 38

----- Setting up reduced wavefunction bases (one per k-point) -----
average nbasis = 29766.104 , ideal nbasis = 29766.845

---------- Setting up coulomb interaction ----------
Initialized slab truncation along lattice direction 001

---------- Setting up 2D ewald sum ----------
Optimum gaussian width for ewald sums = 7.873530 bohr.
Real space sums over 289 unit cells with max indices [  8  8  0  ]
Reciprocal space sums over 81 terms with max indices [  4  4  0  ]

---------- Allocating electronic variables ----------
Initializing wave functions:  linear combination of atomic orbitals
Note: number of bands (6) exceeds available atomic orbitals (5)
K pseudo-atom occupations:   s ( 2 1 )  p ( 6 )
	FillingsUpdate:  mu: -0.088566389  nElectrons: 9.000000  magneticMoment: [ Abs: 0.74000  Tot: -0.74000 ]
LCAOMinimize: Iter:   0  F: -28.3820368545789776  |grad|_K:  9.749e-06  alpha:  1.000e+00
	FillingsUpdate:  mu: -0.088565479  nElectrons: 9.000000  magneticMoment: [ Abs: 0.74000  Tot: -0.74000 ]
LCAOMinimize: Iter:   1  F: -28.3820369192532738  |grad|_K:  6.245e-08  alpha:  9.949e-01  linmin: -6.881e-03  cgtest:  1.591e-01  t[s]:      8.73
LCAOMinimize: Encountered beta<0, resetting CG.
	FillingsUpdate:  mu: -0.088565490  nElectrons: 9.000000  magneticMoment: [ Abs: 0.74000  Tot: -0.74000 ]
LCAOMinimize: Iter:   2  F: -28.3820369192559419  |grad|_K:  7.382e-10  alpha:  9.856e-01  linmin: -1.074e-01  cgtest:  8.431e-01  t[s]:     11.10
LCAOMinimize: Encountered beta<0, resetting CG.
LCAOMinimize: Converged (|Delta F|<1.000000e-06 for 2 iters).


---- Citations for features of the code used in this run ----

   Software package:
      R. Sundararaman, K. Letchworth-Weaver, K.A. Schwarz, D. Gunceler, Y. Ozhabes and T.A. Arias, 'JDFTx: software for joint density-functional theory', SoftwareX 6, 278 (2017)

   gga-PBE exchange-correlation functional:
      J.P. Perdew, K. Burke and M. Ernzerhof, Phys. Rev. Lett. 77, 3865 (1996)

   Pseudopotentials:
      M Schlipf and F Gygi, Comput. Phys. Commun. 196, 36 (2015)

   Truncated Coulomb potentials:
      R. Sundararaman and T.A. Arias, Phys. Rev. B 87, 165122 (2013)

This list may not be complete. Please suggest additional citations or
report any other bugs at https://github.com/shankar1729/jdftx/issues

Initialization completed successfully at t[s]:     11.25


-------- Electronic minimization -----------
Will mix electronic density at each iteration.
	FillingsUpdate:  mu: -0.088565490  nElectrons: 9.000000  magneticMoment: [ Abs: 0.74000  Tot: -0.74000 ]
	FillingsUpdate:  mu: -0.089190740  nElectrons: 9.000000  magneticMoment: [ Abs: 0.74000  Tot: -0.74000 ]
SCF: Cycle:  0   F: -28.383123347461087   dF: -1.086e-03   |Residual|: 3.247e-03   |deigs|: 1.739e-01  t[s]:     16.01
	FillingsUpdate:  mu: -0.089345211  nElectrons: 9.000000  magneticMoment: [ Abs: 0.74030  Tot: -0.74000 ]
SCF: Cycle:  1   F: -28.383155320940965   dF: -3.197e-05   |Residual|: 2.211e-03   |deigs|: 4.997e-03  t[s]:     19.78
	FillingsUpdate:  mu: -0.089447638  nElectrons: 9.000000  magneticMoment: [ Abs: 0.74141  Tot: -0.74000 ]
SCF: Cycle:  2   F: -28.383177485028103   dF: -2.216e-05   |Residual|: 1.704e-03   |deigs|: 2.618e-03  t[s]:     23.55
	FillingsUpdate:  mu: -0.089680418  nElectrons: 9.000000  magneticMoment: [ Abs: 0.74180  Tot: -0.74000 ]
SCF: Cycle:  3   F: -28.383196739673828   dF: -1.925e-05   |Residual|: 1.228e-03   |deigs|: 2.712e-03  t[s]:     27.32
	FillingsUpdate:  mu: -0.089794321  nElectrons: 9.000000  magneticMoment: [ Abs: 0.74127  Tot: -0.74000 ]
SCF: Cycle:  4   F: -28.383211066286083   dF: -1.433e-05   |Residual|: 7.420e-04   |deigs|: 1.323e-03  t[s]:     31.10
	FillingsUpdate:  mu: -0.089886666  nElectrons: 9.000000  magneticMoment: [ Abs: 0.74156  Tot: -0.74000 ]
SCF: Cycle:  5   F: -28.383218913676064   dF: -7.847e-06   |Residual|: 4.028e-04   |deigs|: 1.909e-03  t[s]:     35.05
	FillingsUpdate:  mu: -0.089861115  nElectrons: 9.000000  magneticMoment: [ Abs: 0.74122  Tot: -0.74000 ]
SCF: Cycle:  6   F: -28.383222267850329   dF: -3.354e-06   |Residual|: 2.864e-04   |deigs|: 1.660e-03  t[s]:     38.97
	FillingsUpdate:  mu: -0.089743410  nElectrons: 9.000000  magneticMoment: [ Abs: 0.74157  Tot: -0.74000 ]
SCF: Cycle:  7   F: -28.383224471243597   dF: -2.203e-06   |Residual|: 2.217e-04   |deigs|: 6.666e-04  t[s]:     42.98
	FillingsUpdate:  mu: -0.089613168  nElectrons: 9.000000  magneticMoment: [ Abs: 0.74175  Tot: -0.74000 ]
SCF: Cycle:  8   F: -28.383225130460524   dF: -6.592e-07   |Residual|: 1.785e-04   |deigs|: 4.113e-04  t[s]:     47.06
	FillingsUpdate:  mu: -0.089362603  nElectrons: 9.000000  magneticMoment: [ Abs: 0.74216  Tot: -0.74000 ]
SCF: Cycle:  9   F: -28.383225236900444   dF: -1.064e-07   |Residual|: 1.553e-04   |deigs|: 3.313e-04  t[s]:     51.24
	FillingsUpdate:  mu: -0.089190520  nElectrons: 9.000000  magneticMoment: [ Abs: 0.74196  Tot: -0.74000 ]
SCF: Cycle: 10   F: -28.383225514008465   dF: -2.771e-07   |Residual|: 1.488e-04   |deigs|: 2.283e-04  t[s]:     55.47
	FillingsUpdate:  mu: -0.088990907  nElectrons: 9.000000  magneticMoment: [ Abs: 0.74253  Tot: -0.74000 ]
SCF: Cycle: 11   F: -28.383226369371833   dF: -8.554e-07   |Residual|: 1.146e-04   |deigs|: 2.864e-04  t[s]:     59.66
	FillingsUpdate:  mu: -0.088948531  nElectrons: 9.000000  magneticMoment: [ Abs: 0.74225  Tot: -0.74000 ]
SCF: Cycle: 12   F: -28.383226889829135   dF: -5.205e-07   |Residual|: 9.403e-05   |deigs|: 7.837e-05  t[s]:     63.84
	FillingsUpdate:  mu: -0.088723838  nElectrons: 9.000000  magneticMoment: [ Abs: 0.74185  Tot: -0.74000 ]
SCF: Cycle: 13   F: -28.383227030800708   dF: -1.410e-07   |Residual|: 9.275e-05   |deigs|: 2.473e-04  t[s]:     68.01
	FillingsUpdate:  mu: -0.088513442  nElectrons: 9.000000  magneticMoment: [ Abs: 0.74200  Tot: -0.74000 ]
SCF: Cycle: 14   F: -28.383226867598321   dF: +1.632e-07   |Residual|: 9.306e-05   |deigs|: 2.278e-04  t[s]:     72.17
	FillingsUpdate:  mu: -0.088338905  nElectrons: 9.000000  magneticMoment: [ Abs: 0.74216  Tot: -0.74000 ]
SCF: Cycle: 15   F: -28.383227345074243   dF: -4.775e-07   |Residual|: 7.710e-05   |deigs|: 2.029e-04  t[s]:     76.40
	FillingsUpdate:  mu: -0.088285310  nElectrons: 9.000000  magneticMoment: [ Abs: 0.74173  Tot: -0.74000 ]
SCF: Cycle: 16   F: -28.383227688863837   dF: -3.438e-07   |Residual|: 6.543e-05   |deigs|: 3.018e-04  t[s]:     80.64
	FillingsUpdate:  mu: -0.088214969  nElectrons: 9.000000  magneticMoment: [ Abs: 0.74139  Tot: -0.74000 ]
SCF: Cycle: 17   F: -28.383227904224469   dF: -2.154e-07   |Residual|: 5.045e-05   |deigs|: 1.060e-04  t[s]:     84.81
	FillingsUpdate:  mu: -0.088158172  nElectrons: 9.000000  magneticMoment: [ Abs: 0.74146  Tot: -0.74000 ]
SCF: Cycle: 18   F: -28.383228129324646   dF: -2.251e-07   |Residual|: 3.021e-05   |deigs|: 9.391e-05  t[s]:     88.95
	FillingsUpdate:  mu: -0.088147790  nElectrons: 9.000000  magneticMoment: [ Abs: 0.74144  Tot: -0.74000 ]
SCF: Cycle: 19   F: -28.383228197015914   dF: -6.769e-08   |Residual|: 1.969e-05   |deigs|: 6.803e-05  t[s]:     93.02
	FillingsUpdate:  mu: -0.088155922  nElectrons: 9.000000  magneticMoment: [ Abs: 0.74139  Tot: -0.74000 ]
SCF: Cycle: 20   F: -28.383228235459118   dF: -3.844e-08   |Residual|: 1.095e-05   |deigs|: 6.075e-05  t[s]:     97.21
	FillingsUpdate:  mu: -0.088155052  nElectrons: 9.000000  magneticMoment: [ Abs: 0.74140  Tot: -0.74000 ]
SCF: Cycle: 21   F: -28.383228275092755   dF: -3.963e-08   |Residual|: 8.580e-06   |deigs|: 3.819e-05  t[s]:    101.31
	FillingsUpdate:  mu: -0.088154227  nElectrons: 9.000000  magneticMoment: [ Abs: 0.74138  Tot: -0.74000 ]
SCF: Cycle: 22   F: -28.383228290330443   dF: -1.524e-08   |Residual|: 5.598e-06   |deigs|: 2.628e-05  t[s]:    105.26
	FillingsUpdate:  mu: -0.088149951  nElectrons: 9.000000  magneticMoment: [ Abs: 0.74140  Tot: -0.74000 ]
SCF: Cycle: 23   F: -28.383228297683171   dF: -7.353e-09   |Residual|: 3.945e-06   |deigs|: 2.138e-05  t[s]:    109.40
	FillingsUpdate:  mu: -0.088148294  nElectrons: 9.000000  magneticMoment: [ Abs: 0.74141  Tot: -0.74000 ]
SCF: Cycle: 24   F: -28.383228303402834   dF: -5.720e-09   |Residual|: 3.219e-06   |deigs|: 1.962e-05  t[s]:    113.45
SCF: Converged (|Delta E|<1.000000e-08 for 2 iters).


# Ionic positions in lattice coordinates:
ion K   0.000000000000000   0.000000000000000   0.000000000000000 0

# Forces in Lattice coordinates:
force K  -0.000000000000000   0.000000000000000   0.000000000000000 0

# Energy components:
   Eewald =      -12.0320174002217755
       EH =       10.7449105273331131
     Eloc =      -29.9432434942259249
      Enl =       -2.7702094547643954
   Epulay =       -0.0000000016982517
      Exc =       -4.2416435995770030
       KE =        9.8589754143016890
-------------------------------------
     Etot =      -28.3832280088525550
       TS =        0.0000002945502791
-------------------------------------
        F =      -28.3832283034028343

IonicMinimize: Iter:   0  F: -28.383228303402834  |grad|_K:  0.000e+00  t[s]:    113.71
IonicMinimize: Converged (|grad|_K<1.000000e-04).

#--- Lowdin population analysis ---
# oxidation-state K +0.024
# magnetic-moments K -0.719

End date and time: Sat Feb  5 23:33:10 2022  (Duration: 0-0:01:53.75)
Done!
