
*************** JDFTx 1.6.0 (git hash 42ebbcc2) ***************

Start date and time: Sat Feb  5 23:49:53 2022
Executable jdftx with command-line: -i Alkali.in
Running on hosts (process indices):  d-16-1-2 (0-18)
Divided in process groups (process indices):  0 (0)  1 (1)  2 (2)  3 (3)  4 (4)  5 (5)  6 (6)  7 (7)  8 (8)  9 (9)  10 (10)  11 (11)  12 (12)  13 (13)  14 (14)  15 (15)  16 (16)  17 (17)  18 (18)
Resource initialization completed at t[s]:      0.00
Run totals: 19 processes, 48 threads, 0 GPUs


Input parsed successfully to the following command list (including defaults):

basis kpoint-dependent
coords-type Lattice
core-overlap-check vector
coulomb-interaction Slab 001
davidson-band-ratio 1.1
dump End None
dump-name $INPUT.$VAR
elec-cutoff 20
elec-eigen-algo Davidson
elec-ex-corr gga-PBE
elec-initial-magnetization 0.620000 yes
elec-smearing Fermi 1e-05
electronic-minimize  \
	dirUpdateScheme      FletcherReeves \
	linminMethod         DirUpdateRecommended \
	nIterations          100 \
	history              15 \
	knormThreshold       0 \
	energyDiffThreshold  1e-08 \
	nEnergyDiff          2 \
	alphaTstart          1 \
	alphaTmin            1e-10 \
	updateTestStepSize   yes \
	alphaTreduceFactor   0.1 \
	alphaTincreaseFactor 3 \
	nAlphaAdjustMax      3 \
	wolfeEnergy          0.0001 \
	wolfeGradient        0.9 \
	fdTest               no
electronic-scf  \
	nIterations	10000 \
	energyDiffThreshold	1e-08 \
	residualThreshold	1e-07 \
	mixFraction	0.5 \
	qMetric	0.8 \
	history	10 \
	nEigSteps	2 \
	eigDiffThreshold	1e-08 \
	mixedVariable	Density \
	qKerker	0.8 \
	qKappa	-1 \
	verbose	no \
	mixFractionMag	1.5
exchange-regularization WignerSeitzTruncated
fluid None
fluid-ex-corr (null) lda-PZ
fluid-gummel-loop 10 1.000000e-05
fluid-minimize  \
	dirUpdateScheme      PolakRibiere \
	linminMethod         DirUpdateRecommended \
	nIterations          100 \
	history              15 \
	knormThreshold       0 \
	energyDiffThreshold  0 \
	nEnergyDiff          2 \
	alphaTstart          1 \
	alphaTmin            1e-10 \
	updateTestStepSize   yes \
	alphaTreduceFactor   0.1 \
	alphaTincreaseFactor 3 \
	nAlphaAdjustMax      3 \
	wolfeEnergy          0.0001 \
	wolfeGradient        0.9 \
	fdTest               no
fluid-solvent H2O 55.338 ScalarEOS \
	epsBulk 78.4 \
	pMol 0.92466 \
	epsInf 1.77 \
	Pvap 1.06736e-10 \
	sigmaBulk 4.62e-05 \
	Rvdw 2.61727 \
	Res 1.42 \
	tauNuc 343133 \
	poleEl 15 7 1
forces-output-coords Positions
ion K   0.000000000000000   0.000000000000000   0.000000000000000 0
ion-species SG15/$ID_ONCV_PBE.upf
ion-width 0
ionic-minimize  \
	dirUpdateScheme      L-BFGS \
	linminMethod         DirUpdateRecommended \
	nIterations          0 \
	history              15 \
	knormThreshold       0.0001 \
	energyDiffThreshold  1e-06 \
	nEnergyDiff          2 \
	alphaTstart          1 \
	alphaTmin            1e-10 \
	updateTestStepSize   yes \
	alphaTreduceFactor   0.1 \
	alphaTincreaseFactor 3 \
	nAlphaAdjustMax      3 \
	wolfeEnergy          0.0001 \
	wolfeGradient        0.9 \
	fdTest               no
kpoint   0.000000000000   0.000000000000   0.000000000000  1.00000000000000
kpoint-folding 12 12 1 
latt-move-scale 1 1 1
latt-scale 3 3 1 
lattice  \
	   4.727486978767153   -2.363743489383575    0.000000000000000  \
	  -0.000000000000000    4.094123819672498    0.000000000000000  \
	   0.000000000000000    0.000000000000000   40.000000000000000 
lattice-minimize  \
	dirUpdateScheme      L-BFGS \
	linminMethod         DirUpdateRecommended \
	nIterations          0 \
	history              15 \
	knormThreshold       0 \
	energyDiffThreshold  1e-06 \
	nEnergyDiff          2 \
	alphaTstart          1 \
	alphaTmin            1e-10 \
	updateTestStepSize   yes \
	alphaTreduceFactor   0.1 \
	alphaTincreaseFactor 3 \
	nAlphaAdjustMax      3 \
	wolfeEnergy          0.0001 \
	wolfeGradient        0.9 \
	fdTest               no
lcao-params -1 1e-06 1e-05
pcm-variant GLSSA13
spintype z-spin
subspace-rotation-factor 1 yes
symmetries automatic
symmetry-threshold 0.0001



---------- Setting up symmetries ----------

Found 24 point-group symmetries of the bravais lattice
Found 24 space-group symmetries with basis
Applied RMS atom displacement 0 bohrs to make symmetries exact.

---------- Initializing the Grid ----------
R = 
[      14.1825     -7.09123            0  ]
[            0      12.2824            0  ]
[            0            0           40  ]
unit cell volume = 6967.77
G =
[   0.443025   0.255781         -0  ]
[          0   0.511561         -0  ]
[         -0         -0    0.15708  ]
Minimum fftbox size, Smin = [  60  60  164  ]
Chosen fftbox size, S = [  60  60  168  ]

---------- Exchange Correlation functional ----------
Initalized PBE GGA exchange.
Initalized PBE GGA correlation.

---------- Setting up pseudopotentials ----------
Width of ionic core gaussian charges (only for fluid interactions / plotting) set to 0

Reading pseudopotential file '/home/gridsan/aligho/DFT/build-Nov24/pseudopotentials/SG15/K_ONCV_PBE.upf':
  'K' pseudopotential, 'PBE' functional
  Generated using ONCVPSP code by D. R. Hamann
  Author: Martin Schlipf and Francois Gygi  Date: 150915.
  9 valence electrons, 3 orbitals, 6 projectors, 2222 radial grid points, with lMax = 2
  Transforming local potential to a uniform radial grid of dG=0.02 with 1489 points.
  Transforming nonlocal projectors to a uniform radial grid of dG=0.02 with 432 points.
    3S    l: 0   occupation:  2.0   eigenvalue: -1.298836
    3P    l: 1   occupation:  6.0   eigenvalue: -0.691386
    4S    l: 0   occupation:  1.0   eigenvalue: -0.085223
  Transforming atomic orbitals to a uniform radial grid of dG=0.02 with 432 points.
  Core radius for overlap checks: 2.06 bohrs.
  Reading pulay file /home/gridsan/aligho/DFT/build-Nov24/pseudopotentials/SG15/K_ONCV_PBE.pulay ... using dE_dnG = -1.597219e-05 computed for Ecut = 20.

Initialized 1 species with 1 total atoms.

Folded 1 k-points by 12x12x1 to 144 k-points.

---------- Setting up k-points, bands, fillings ----------
Reduced to 19 k-points under symmetry. 
Computing the number of bands and number of electrons
Calculating initial fillings.
nElectrons:   9.000000   nBands: 6   nStates: 38

----- Setting up reduced wavefunction bases (one per k-point) -----
average nbasis = 29766.104 , ideal nbasis = 29766.845

---------- Setting up coulomb interaction ----------
Initialized slab truncation along lattice direction 001

---------- Setting up 2D ewald sum ----------
Optimum gaussian width for ewald sums = 7.873530 bohr.
Real space sums over 289 unit cells with max indices [  8  8  0  ]
Reciprocal space sums over 81 terms with max indices [  4  4  0  ]

---------- Allocating electronic variables ----------
Initializing wave functions:  linear combination of atomic orbitals
Note: number of bands (6) exceeds available atomic orbitals (5)
K pseudo-atom occupations:   s ( 2 1 )  p ( 6 )
	FillingsUpdate:  mu: -0.088609166  nElectrons: 9.000000  magneticMoment: [ Abs: 0.62000  Tot: +0.62000 ]
LCAOMinimize: Iter:   0  F: -28.3822143633999247  |grad|_K:  1.161e-05  alpha:  1.000e+00
	FillingsUpdate:  mu: -0.088607082  nElectrons: 9.000000  magneticMoment: [ Abs: 0.62000  Tot: +0.62000 ]
LCAOMinimize: Iter:   1  F: -28.3822144548217068  |grad|_K:  7.790e-08  alpha:  9.913e-01  linmin: -9.881e-03  cgtest:  2.704e-01  t[s]:      8.67
LCAOMinimize: Encountered beta<0, resetting CG.
	FillingsUpdate:  mu: -0.088607086  nElectrons: 9.000000  magneticMoment: [ Abs: 0.62000  Tot: +0.62000 ]
LCAOMinimize: Iter:   2  F: -28.3822144548248545  |grad|_K:  9.334e-09  alpha:  8.792e-01  linmin: -8.732e-02  cgtest:  9.993e-01  t[s]:     11.06
LCAOMinimize: Encountered beta<0, resetting CG.
LCAOMinimize: Converged (|Delta F|<1.000000e-06 for 2 iters).


---- Citations for features of the code used in this run ----

   Software package:
      R. Sundararaman, K. Letchworth-Weaver, K.A. Schwarz, D. Gunceler, Y. Ozhabes and T.A. Arias, 'JDFTx: software for joint density-functional theory', SoftwareX 6, 278 (2017)

   gga-PBE exchange-correlation functional:
      J.P. Perdew, K. Burke and M. Ernzerhof, Phys. Rev. Lett. 77, 3865 (1996)

   Pseudopotentials:
      M Schlipf and F Gygi, Comput. Phys. Commun. 196, 36 (2015)

   Truncated Coulomb potentials:
      R. Sundararaman and T.A. Arias, Phys. Rev. B 87, 165122 (2013)

This list may not be complete. Please suggest additional citations or
report any other bugs at https://github.com/shankar1729/jdftx/issues

Initialization completed successfully at t[s]:     11.22


-------- Electronic minimization -----------
Will mix electronic density at each iteration.
	FillingsUpdate:  mu: -0.088607086  nElectrons: 9.000000  magneticMoment: [ Abs: 0.62000  Tot: +0.62000 ]
	FillingsUpdate:  mu: -0.089506883  nElectrons: 9.000000  magneticMoment: [ Abs: 0.62000  Tot: +0.62000 ]
SCF: Cycle:  0   F: -28.383410357616274   dF: -1.196e-03   |Residual|: 3.365e-03   |deigs|: 1.741e-01  t[s]:     15.92
	FillingsUpdate:  mu: -0.089655248  nElectrons: 9.000000  magneticMoment: [ Abs: 0.62008  Tot: +0.62000 ]
SCF: Cycle:  1   F: -28.383443998510923   dF: -3.364e-05   |Residual|: 2.461e-03   |deigs|: 4.775e-03  t[s]:     19.63
	FillingsUpdate:  mu: -0.089793826  nElectrons: 9.000000  magneticMoment: [ Abs: 0.62123  Tot: +0.62000 ]
SCF: Cycle:  2   F: -28.383468985911470   dF: -2.499e-05   |Residual|: 1.857e-03   |deigs|: 2.971e-03  t[s]:     23.37
	FillingsUpdate:  mu: -0.090050378  nElectrons: 9.000000  magneticMoment: [ Abs: 0.62152  Tot: +0.62000 ]
SCF: Cycle:  3   F: -28.383487937498902   dF: -1.895e-05   |Residual|: 1.264e-03   |deigs|: 1.821e-03  t[s]:     27.14
	FillingsUpdate:  mu: -0.090199169  nElectrons: 9.000000  magneticMoment: [ Abs: 0.62092  Tot: +0.62000 ]
SCF: Cycle:  4   F: -28.383499719958280   dF: -1.178e-05   |Residual|: 7.104e-04   |deigs|: 2.528e-03  t[s]:     31.03
	FillingsUpdate:  mu: -0.090318824  nElectrons: 9.000000  magneticMoment: [ Abs: 0.62123  Tot: +0.62000 ]
SCF: Cycle:  5   F: -28.383506138902682   dF: -6.419e-06   |Residual|: 4.135e-04   |deigs|: 1.874e-03  t[s]:     34.97
	FillingsUpdate:  mu: -0.090271651  nElectrons: 9.000000  magneticMoment: [ Abs: 0.62093  Tot: +0.62000 ]
SCF: Cycle:  6   F: -28.383509678769435   dF: -3.540e-06   |Residual|: 2.865e-04   |deigs|: 9.500e-04  t[s]:     38.96
	FillingsUpdate:  mu: -0.090172921  nElectrons: 9.000000  magneticMoment: [ Abs: 0.62121  Tot: +0.62000 ]
SCF: Cycle:  7   F: -28.383511283744703   dF: -1.605e-06   |Residual|: 2.284e-04   |deigs|: 7.289e-04  t[s]:     43.00
	FillingsUpdate:  mu: -0.090028200  nElectrons: 9.000000  magneticMoment: [ Abs: 0.62147  Tot: +0.62000 ]
SCF: Cycle:  8   F: -28.383512010771362   dF: -7.270e-07   |Residual|: 1.807e-04   |deigs|: 5.463e-04  t[s]:     47.24
	FillingsUpdate:  mu: -0.089772612  nElectrons: 9.000000  magneticMoment: [ Abs: 0.62201  Tot: +0.62000 ]
SCF: Cycle:  9   F: -28.383512207117644   dF: -1.963e-07   |Residual|: 1.607e-04   |deigs|: 3.288e-04  t[s]:     51.35
	FillingsUpdate:  mu: -0.089604597  nElectrons: 9.000000  magneticMoment: [ Abs: 0.62177  Tot: +0.62000 ]
SCF: Cycle: 10   F: -28.383512248295830   dF: -4.118e-08   |Residual|: 1.467e-04   |deigs|: 1.883e-04  t[s]:     55.62
	FillingsUpdate:  mu: -0.089379003  nElectrons: 9.000000  magneticMoment: [ Abs: 0.62208  Tot: +0.62000 ]
SCF: Cycle: 11   F: -28.383512917647195   dF: -6.694e-07   |Residual|: 1.226e-04   |deigs|: 2.523e-04  t[s]:     59.91
	FillingsUpdate:  mu: -0.089400038  nElectrons: 9.000000  magneticMoment: [ Abs: 0.62173  Tot: +0.62000 ]
SCF: Cycle: 12   F: -28.383513657817542   dF: -7.402e-07   |Residual|: 9.565e-05   |deigs|: 2.105e-04  t[s]:     64.18
	FillingsUpdate:  mu: -0.089157953  nElectrons: 9.000000  magneticMoment: [ Abs: 0.62142  Tot: +0.62000 ]
SCF: Cycle: 13   F: -28.383513861566513   dF: -2.037e-07   |Residual|: 9.308e-05   |deigs|: 2.704e-04  t[s]:     68.43
	FillingsUpdate:  mu: -0.088923092  nElectrons: 9.000000  magneticMoment: [ Abs: 0.62146  Tot: +0.62000 ]
SCF: Cycle: 14   F: -28.383513549368530   dF: +3.122e-07   |Residual|: 9.545e-05   |deigs|: 2.604e-04  t[s]:     72.72
	FillingsUpdate:  mu: -0.088773711  nElectrons: 9.000000  magneticMoment: [ Abs: 0.62173  Tot: +0.62000 ]
SCF: Cycle: 15   F: -28.383513786911220   dF: -2.375e-07   |Residual|: 8.316e-05   |deigs|: 1.573e-04  t[s]:     76.96
	FillingsUpdate:  mu: -0.088698260  nElectrons: 9.000000  magneticMoment: [ Abs: 0.62148  Tot: +0.62000 ]
SCF: Cycle: 16   F: -28.383514327420318   dF: -5.405e-07   |Residual|: 6.675e-05   |deigs|: 1.093e-04  t[s]:     81.22
	FillingsUpdate:  mu: -0.088570953  nElectrons: 9.000000  magneticMoment: [ Abs: 0.62116  Tot: +0.62000 ]
SCF: Cycle: 17   F: -28.383514481386811   dF: -1.540e-07   |Residual|: 5.305e-05   |deigs|: 2.513e-04  t[s]:     85.45
	FillingsUpdate:  mu: -0.088519844  nElectrons: 9.000000  magneticMoment: [ Abs: 0.62112  Tot: +0.62000 ]
SCF: Cycle: 18   F: -28.383514722642470   dF: -2.413e-07   |Residual|: 3.209e-05   |deigs|: 3.159e-04  t[s]:     89.67
	FillingsUpdate:  mu: -0.088520326  nElectrons: 9.000000  magneticMoment: [ Abs: 0.62113  Tot: +0.62000 ]
SCF: Cycle: 19   F: -28.383514800413622   dF: -7.777e-08   |Residual|: 2.025e-05   |deigs|: 3.690e-05  t[s]:     93.79
	FillingsUpdate:  mu: -0.088521002  nElectrons: 9.000000  magneticMoment: [ Abs: 0.62110  Tot: +0.62000 ]
SCF: Cycle: 20   F: -28.383514834476792   dF: -3.406e-08   |Residual|: 1.155e-05   |deigs|: 2.225e-05  t[s]:     98.02
	FillingsUpdate:  mu: -0.088520986  nElectrons: 9.000000  magneticMoment: [ Abs: 0.62110  Tot: +0.62000 ]
SCF: Cycle: 21   F: -28.383514860660426   dF: -2.618e-08   |Residual|: 6.736e-06   |deigs|: 1.925e-05  t[s]:    102.16
	FillingsUpdate:  mu: -0.088521942  nElectrons: 9.000000  magneticMoment: [ Abs: 0.62110  Tot: +0.62000 ]
SCF: Cycle: 22   F: -28.383514873647655   dF: -1.299e-08   |Residual|: 3.724e-06   |deigs|: 2.098e-05  t[s]:    106.20
	FillingsUpdate:  mu: -0.088518465  nElectrons: 9.000000  magneticMoment: [ Abs: 0.62111  Tot: +0.62000 ]
SCF: Cycle: 23   F: -28.383514880815692   dF: -7.168e-09   |Residual|: 2.785e-06   |deigs|: 3.032e-05  t[s]:    110.24
	FillingsUpdate:  mu: -0.088519672  nElectrons: 9.000000  magneticMoment: [ Abs: 0.62112  Tot: +0.62000 ]
SCF: Cycle: 24   F: -28.383514885135156   dF: -4.319e-09   |Residual|: 1.968e-06   |deigs|: 3.844e-05  t[s]:    114.32
SCF: Converged (|Delta E|<1.000000e-08 for 2 iters).


# Ionic positions in lattice coordinates:
ion K   0.000000000000000   0.000000000000000   0.000000000000000 0

# Forces in Lattice coordinates:
force K   0.000000000000000   0.000000000000000   0.000000000000000 0

# Energy components:
   Eewald =      -12.0320174002217755
       EH =       10.7329330199643813
     Eloc =      -29.9299881172709661
      Enl =       -2.7708012282919685
   Epulay =       -0.0000000016982517
      Exc =       -4.2399443290810179
       KE =        9.8563042289429674
-------------------------------------
     Etot =      -28.3835138276566354
       TS =        0.0000010574785198
-------------------------------------
        F =      -28.3835148851351562

IonicMinimize: Iter:   0  F: -28.383514885135156  |grad|_K:  0.000e+00  t[s]:    114.57
IonicMinimize: Converged (|grad|_K<1.000000e-04).

#--- Lowdin population analysis ---
# oxidation-state K +0.026
# magnetic-moments K +0.598

End date and time: Sat Feb  5 23:51:48 2022  (Duration: 0-0:01:54.61)
Done!
