
*************** JDFTx 1.6.0 (git hash 42ebbcc2) ***************

Start date and time: Sat Feb  5 23:55:40 2022
Executable jdftx with command-line: -i Alkali.in
Running on hosts (process indices):  d-6-3-2 (0-18)
Divided in process groups (process indices):  0 (0)  1 (1)  2 (2)  3 (3)  4 (4)  5 (5)  6 (6)  7 (7)  8 (8)  9 (9)  10 (10)  11 (11)  12 (12)  13 (13)  14 (14)  15 (15)  16 (16)  17 (17)  18 (18)
Resource initialization completed at t[s]:      0.00
Run totals: 19 processes, 48 threads, 0 GPUs


Input parsed successfully to the following command list (including defaults):

basis kpoint-dependent
coords-type Lattice
core-overlap-check vector
coulomb-interaction Slab 001
davidson-band-ratio 1.1
dump End None
dump-name $INPUT.$VAR
elec-cutoff 20
elec-eigen-algo Davidson
elec-ex-corr gga-PBE
elec-initial-magnetization 0.960000 yes
elec-smearing Fermi 1e-05
electronic-minimize  \
	dirUpdateScheme      FletcherReeves \
	linminMethod         DirUpdateRecommended \
	nIterations          100 \
	history              15 \
	knormThreshold       0 \
	energyDiffThreshold  1e-08 \
	nEnergyDiff          2 \
	alphaTstart          1 \
	alphaTmin            1e-10 \
	updateTestStepSize   yes \
	alphaTreduceFactor   0.1 \
	alphaTincreaseFactor 3 \
	nAlphaAdjustMax      3 \
	wolfeEnergy          0.0001 \
	wolfeGradient        0.9 \
	fdTest               no
electronic-scf  \
	nIterations	10000 \
	energyDiffThreshold	1e-08 \
	residualThreshold	1e-07 \
	mixFraction	0.5 \
	qMetric	0.8 \
	history	10 \
	nEigSteps	2 \
	eigDiffThreshold	1e-08 \
	mixedVariable	Density \
	qKerker	0.8 \
	qKappa	-1 \
	verbose	no \
	mixFractionMag	1.5
exchange-regularization WignerSeitzTruncated
fluid None
fluid-ex-corr (null) lda-PZ
fluid-gummel-loop 10 1.000000e-05
fluid-minimize  \
	dirUpdateScheme      PolakRibiere \
	linminMethod         DirUpdateRecommended \
	nIterations          100 \
	history              15 \
	knormThreshold       0 \
	energyDiffThreshold  0 \
	nEnergyDiff          2 \
	alphaTstart          1 \
	alphaTmin            1e-10 \
	updateTestStepSize   yes \
	alphaTreduceFactor   0.1 \
	alphaTincreaseFactor 3 \
	nAlphaAdjustMax      3 \
	wolfeEnergy          0.0001 \
	wolfeGradient        0.9 \
	fdTest               no
fluid-solvent H2O 55.338 ScalarEOS \
	epsBulk 78.4 \
	pMol 0.92466 \
	epsInf 1.77 \
	Pvap 1.06736e-10 \
	sigmaBulk 4.62e-05 \
	Rvdw 2.61727 \
	Res 1.42 \
	tauNuc 343133 \
	poleEl 15 7 1
forces-output-coords Positions
ion K   0.000000000000000   0.000000000000000   0.000000000000000 0
ion-species SG15/$ID_ONCV_PBE.upf
ion-width 0
ionic-minimize  \
	dirUpdateScheme      L-BFGS \
	linminMethod         DirUpdateRecommended \
	nIterations          0 \
	history              15 \
	knormThreshold       0.0001 \
	energyDiffThreshold  1e-06 \
	nEnergyDiff          2 \
	alphaTstart          1 \
	alphaTmin            1e-10 \
	updateTestStepSize   yes \
	alphaTreduceFactor   0.1 \
	alphaTincreaseFactor 3 \
	nAlphaAdjustMax      3 \
	wolfeEnergy          0.0001 \
	wolfeGradient        0.9 \
	fdTest               no
kpoint   0.000000000000   0.000000000000   0.000000000000  1.00000000000000
kpoint-folding 12 12 1 
latt-move-scale 1 1 1
latt-scale 3 3 1 
lattice  \
	   4.727486978767153   -2.363743489383575    0.000000000000000  \
	  -0.000000000000000    4.094123819672498    0.000000000000000  \
	   0.000000000000000    0.000000000000000   40.000000000000000 
lattice-minimize  \
	dirUpdateScheme      L-BFGS \
	linminMethod         DirUpdateRecommended \
	nIterations          0 \
	history              15 \
	knormThreshold       0 \
	energyDiffThreshold  1e-06 \
	nEnergyDiff          2 \
	alphaTstart          1 \
	alphaTmin            1e-10 \
	updateTestStepSize   yes \
	alphaTreduceFactor   0.1 \
	alphaTincreaseFactor 3 \
	nAlphaAdjustMax      3 \
	wolfeEnergy          0.0001 \
	wolfeGradient        0.9 \
	fdTest               no
lcao-params -1 1e-06 1e-05
pcm-variant GLSSA13
spintype z-spin
subspace-rotation-factor 1 yes
symmetries automatic
symmetry-threshold 0.0001



---------- Setting up symmetries ----------

Found 24 point-group symmetries of the bravais lattice
Found 24 space-group symmetries with basis
Applied RMS atom displacement 0 bohrs to make symmetries exact.

---------- Initializing the Grid ----------
R = 
[      14.1825     -7.09123            0  ]
[            0      12.2824            0  ]
[            0            0           40  ]
unit cell volume = 6967.77
G =
[   0.443025   0.255781         -0  ]
[          0   0.511561         -0  ]
[         -0         -0    0.15708  ]
Minimum fftbox size, Smin = [  60  60  164  ]
Chosen fftbox size, S = [  60  60  168  ]

---------- Exchange Correlation functional ----------
Initalized PBE GGA exchange.
Initalized PBE GGA correlation.

---------- Setting up pseudopotentials ----------
Width of ionic core gaussian charges (only for fluid interactions / plotting) set to 0

Reading pseudopotential file '/home/gridsan/aligho/DFT/build-Nov24/pseudopotentials/SG15/K_ONCV_PBE.upf':
  'K' pseudopotential, 'PBE' functional
  Generated using ONCVPSP code by D. R. Hamann
  Author: Martin Schlipf and Francois Gygi  Date: 150915.
  9 valence electrons, 3 orbitals, 6 projectors, 2222 radial grid points, with lMax = 2
  Transforming local potential to a uniform radial grid of dG=0.02 with 1489 points.
  Transforming nonlocal projectors to a uniform radial grid of dG=0.02 with 432 points.
    3S    l: 0   occupation:  2.0   eigenvalue: -1.298836
    3P    l: 1   occupation:  6.0   eigenvalue: -0.691386
    4S    l: 0   occupation:  1.0   eigenvalue: -0.085223
  Transforming atomic orbitals to a uniform radial grid of dG=0.02 with 432 points.
  Core radius for overlap checks: 2.06 bohrs.
  Reading pulay file /home/gridsan/aligho/DFT/build-Nov24/pseudopotentials/SG15/K_ONCV_PBE.pulay ... using dE_dnG = -1.597219e-05 computed for Ecut = 20.

Initialized 1 species with 1 total atoms.

Folded 1 k-points by 12x12x1 to 144 k-points.

---------- Setting up k-points, bands, fillings ----------
Reduced to 19 k-points under symmetry. 
Computing the number of bands and number of electrons
Calculating initial fillings.
nElectrons:   9.000000   nBands: 6   nStates: 38

----- Setting up reduced wavefunction bases (one per k-point) -----
average nbasis = 29766.104 , ideal nbasis = 29766.845

---------- Setting up coulomb interaction ----------
Initialized slab truncation along lattice direction 001

---------- Setting up 2D ewald sum ----------
Optimum gaussian width for ewald sums = 7.873530 bohr.
Real space sums over 289 unit cells with max indices [  8  8  0  ]
Reciprocal space sums over 81 terms with max indices [  4  4  0  ]

---------- Allocating electronic variables ----------
Initializing wave functions:  linear combination of atomic orbitals
Note: number of bands (6) exceeds available atomic orbitals (5)
K pseudo-atom occupations:   s ( 2 1 )  p ( 6 )
	FillingsUpdate:  mu: -0.085584151  nElectrons: 9.000000  magneticMoment: [ Abs: 0.96000  Tot: +0.96000 ]
LCAOMinimize: Iter:   0  F: -28.3816191116298491  |grad|_K:  2.316e-06  alpha:  1.000e+00
	FillingsUpdate:  mu: -0.085583844  nElectrons: 9.000000  magneticMoment: [ Abs: 0.96000  Tot: +0.96000 ]
LCAOMinimize: Iter:   1  F: -28.3816191152936170  |grad|_K:  1.002e-08  alpha:  9.981e-01  linmin:  6.366e-04  cgtest: -8.850e-03  t[s]:      8.78
	FillingsUpdate:  mu: -0.085583846  nElectrons: 9.000000  magneticMoment: [ Abs: 0.96000  Tot: +0.96000 ]
LCAOMinimize: Iter:   2  F: -28.3816191152936561  |grad|_K:  4.126e-09  alpha:  5.836e-01  linmin: -6.228e-02  cgtest:  9.999e-01  t[s]:     11.09
LCAOMinimize: Encountered beta<0, resetting CG.
LCAOMinimize: Converged (|Delta F|<1.000000e-06 for 2 iters).


---- Citations for features of the code used in this run ----

   Software package:
      R. Sundararaman, K. Letchworth-Weaver, K.A. Schwarz, D. Gunceler, Y. Ozhabes and T.A. Arias, 'JDFTx: software for joint density-functional theory', SoftwareX 6, 278 (2017)

   gga-PBE exchange-correlation functional:
      J.P. Perdew, K. Burke and M. Ernzerhof, Phys. Rev. Lett. 77, 3865 (1996)

   Pseudopotentials:
      M Schlipf and F Gygi, Comput. Phys. Commun. 196, 36 (2015)

   Truncated Coulomb potentials:
      R. Sundararaman and T.A. Arias, Phys. Rev. B 87, 165122 (2013)

This list may not be complete. Please suggest additional citations or
report any other bugs at https://github.com/shankar1729/jdftx/issues

Initialization completed successfully at t[s]:     11.25


-------- Electronic minimization -----------
Will mix electronic density at each iteration.
	FillingsUpdate:  mu: -0.085583846  nElectrons: 9.000000  magneticMoment: [ Abs: 0.96000  Tot: +0.96000 ]
	FillingsUpdate:  mu: -0.086177152  nElectrons: 9.000000  magneticMoment: [ Abs: 0.96000  Tot: +0.96000 ]
SCF: Cycle:  0   F: -28.382490935917438   dF: -8.718e-04   |Residual|: 2.894e-03   |deigs|: 1.724e-01  t[s]:     16.02
	FillingsUpdate:  mu: -0.085765239  nElectrons: 9.000000  magneticMoment: [ Abs: 0.96136  Tot: +0.96000 ]
SCF: Cycle:  1   F: -28.382509307596486   dF: -1.837e-05   |Residual|: 1.504e-03   |deigs|: 5.297e-03  t[s]:     19.75
	FillingsUpdate:  mu: -0.085307900  nElectrons: 9.000000  magneticMoment: [ Abs: 0.96203  Tot: +0.96000 ]
SCF: Cycle:  2   F: -28.382518452840539   dF: -9.145e-06   |Residual|: 1.195e-03   |deigs|: 3.215e-03  t[s]:     23.52
	FillingsUpdate:  mu: -0.085314411  nElectrons: 9.000000  magneticMoment: [ Abs: 0.96259  Tot: +0.96000 ]
SCF: Cycle:  3   F: -28.382530391226911   dF: -1.194e-05   |Residual|: 8.957e-04   |deigs|: 2.388e-03  t[s]:     27.36
	FillingsUpdate:  mu: -0.085682165  nElectrons: 9.000000  magneticMoment: [ Abs: 0.96220  Tot: +0.96000 ]
SCF: Cycle:  4   F: -28.382542425099615   dF: -1.203e-05   |Residual|: 6.386e-04   |deigs|: 1.524e-03  t[s]:     31.22
	FillingsUpdate:  mu: -0.086365981  nElectrons: 9.000000  magneticMoment: [ Abs: 0.96232  Tot: +0.96000 ]
SCF: Cycle:  5   F: -28.382553599056362   dF: -1.117e-05   |Residual|: 3.687e-04   |deigs|: 8.624e-04  t[s]:     35.18
	FillingsUpdate:  mu: -0.086714039  nElectrons: 9.000000  magneticMoment: [ Abs: 0.96206  Tot: +0.96000 ]
SCF: Cycle:  6   F: -28.382558587937975   dF: -4.989e-06   |Residual|: 2.596e-04   |deigs|: 1.581e-03  t[s]:     39.14
	FillingsUpdate:  mu: -0.086450536  nElectrons: 9.000000  magneticMoment: [ Abs: 0.96233  Tot: +0.96000 ]
SCF: Cycle:  7   F: -28.382560415153023   dF: -1.827e-06   |Residual|: 2.100e-04   |deigs|: 9.040e-04  t[s]:     43.37
	FillingsUpdate:  mu: -0.086169109  nElectrons: 9.000000  magneticMoment: [ Abs: 0.96248  Tot: +0.96000 ]
SCF: Cycle:  8   F: -28.382562473098183   dF: -2.058e-06   |Residual|: 1.518e-04   |deigs|: 3.842e-04  t[s]:     47.48
	FillingsUpdate:  mu: -0.086041818  nElectrons: 9.000000  magneticMoment: [ Abs: 0.96267  Tot: +0.96000 ]
SCF: Cycle:  9   F: -28.382562722958014   dF: -2.499e-07   |Residual|: 1.487e-04   |deigs|: 2.003e-04  t[s]:     51.61
	FillingsUpdate:  mu: -0.086033294  nElectrons: 9.000000  magneticMoment: [ Abs: 0.96245  Tot: +0.96000 ]
SCF: Cycle: 10   F: -28.382563397826829   dF: -6.749e-07   |Residual|: 1.239e-04   |deigs|: 2.339e-04  t[s]:     55.86
	FillingsUpdate:  mu: -0.086073785  nElectrons: 9.000000  magneticMoment: [ Abs: 0.96322  Tot: +0.96000 ]
SCF: Cycle: 11   F: -28.382562665600098   dF: +7.322e-07   |Residual|: 9.935e-05   |deigs|: 2.643e-04  t[s]:     60.11
	FillingsUpdate:  mu: -0.086134703  nElectrons: 9.000000  magneticMoment: [ Abs: 0.96282  Tot: +0.96000 ]
SCF: Cycle: 12   F: -28.382564292096408   dF: -1.626e-06   |Residual|: 7.744e-05   |deigs|: 3.244e-04  t[s]:     64.36
	FillingsUpdate:  mu: -0.086079959  nElectrons: 9.000000  magneticMoment: [ Abs: 0.96297  Tot: +0.96000 ]
SCF: Cycle: 13   F: -28.382565009683301   dF: -7.176e-07   |Residual|: 8.057e-05   |deigs|: 1.766e-04  t[s]:     68.55
	FillingsUpdate:  mu: -0.085931907  nElectrons: 9.000000  magneticMoment: [ Abs: 0.96301  Tot: +0.96000 ]
SCF: Cycle: 14   F: -28.382565086322042   dF: -7.664e-08   |Residual|: 8.412e-05   |deigs|: 1.526e-04  t[s]:     72.79
	FillingsUpdate:  mu: -0.085679416  nElectrons: 9.000000  magneticMoment: [ Abs: 0.96275  Tot: +0.96000 ]
SCF: Cycle: 15   F: -28.382565046227025   dF: +4.010e-08   |Residual|: 6.683e-05   |deigs|: 2.469e-04  t[s]:     77.09
	FillingsUpdate:  mu: -0.085554099  nElectrons: 9.000000  magneticMoment: [ Abs: 0.96262  Tot: +0.96000 ]
SCF: Cycle: 16   F: -28.382565190484765   dF: -1.443e-07   |Residual|: 5.713e-05   |deigs|: 2.639e-04  t[s]:     81.35
	FillingsUpdate:  mu: -0.085502859  nElectrons: 9.000000  magneticMoment: [ Abs: 0.96242  Tot: +0.96000 ]
SCF: Cycle: 17   F: -28.382565388057436   dF: -1.976e-07   |Residual|: 5.175e-05   |deigs|: 1.297e-04  t[s]:     85.57
	FillingsUpdate:  mu: -0.085486028  nElectrons: 9.000000  magneticMoment: [ Abs: 0.96229  Tot: +0.96000 ]
SCF: Cycle: 18   F: -28.382565711427979   dF: -3.234e-07   |Residual|: 4.192e-05   |deigs|: 3.703e-05  t[s]:     89.76
	FillingsUpdate:  mu: -0.085460940  nElectrons: 9.000000  magneticMoment: [ Abs: 0.96231  Tot: +0.96000 ]
SCF: Cycle: 19   F: -28.382565658909364   dF: +5.252e-08   |Residual|: 2.981e-05   |deigs|: 4.767e-05  t[s]:     93.96
	FillingsUpdate:  mu: -0.085480822  nElectrons: 9.000000  magneticMoment: [ Abs: 0.96229  Tot: +0.96000 ]
SCF: Cycle: 20   F: -28.382565884301446   dF: -2.254e-07   |Residual|: 1.759e-05   |deigs|: 5.899e-05  t[s]:     98.22
	FillingsUpdate:  mu: -0.085501113  nElectrons: 9.000000  magneticMoment: [ Abs: 0.96224  Tot: +0.96000 ]
SCF: Cycle: 21   F: -28.382565933394027   dF: -4.909e-08   |Residual|: 1.207e-05   |deigs|: 2.888e-05  t[s]:    102.38
	FillingsUpdate:  mu: -0.085509454  nElectrons: 9.000000  magneticMoment: [ Abs: 0.96220  Tot: +0.96000 ]
SCF: Cycle: 22   F: -28.382565938959182   dF: -5.565e-09   |Residual|: 9.367e-06   |deigs|: 1.762e-05  t[s]:    106.60
	FillingsUpdate:  mu: -0.085513539  nElectrons: 9.000000  magneticMoment: [ Abs: 0.96220  Tot: +0.96000 ]
SCF: Cycle: 23   F: -28.382565949530985   dF: -1.057e-08   |Residual|: 7.194e-06   |deigs|: 1.209e-05  t[s]:    110.89
	FillingsUpdate:  mu: -0.085514154  nElectrons: 9.000000  magneticMoment: [ Abs: 0.96221  Tot: +0.96000 ]
SCF: Cycle: 24   F: -28.382565962369068   dF: -1.284e-08   |Residual|: 4.645e-06   |deigs|: 1.734e-05  t[s]:    115.10
	FillingsUpdate:  mu: -0.085512075  nElectrons: 9.000000  magneticMoment: [ Abs: 0.96220  Tot: +0.96000 ]
SCF: Cycle: 25   F: -28.382565966105645   dF: -3.737e-09   |Residual|: 3.160e-06   |deigs|: 2.255e-05  t[s]:    119.34
	FillingsUpdate:  mu: -0.085512696  nElectrons: 9.000000  magneticMoment: [ Abs: 0.96220  Tot: +0.96000 ]
SCF: Cycle: 26   F: -28.382565975380778   dF: -9.275e-09   |Residual|: 2.473e-06   |deigs|: 2.417e-05  t[s]:    123.55
SCF: Converged (|Delta E|<1.000000e-08 for 2 iters).


# Ionic positions in lattice coordinates:
ion K   0.000000000000000   0.000000000000000   0.000000000000000 0

# Forces in Lattice coordinates:
force K  -0.000000000000000   0.000000000000000   0.000000000000000 0

# Energy components:
   Eewald =      -12.0320174002217755
       EH =       10.7763777774711507
     Eloc =      -29.9781853329784767
      Enl =       -2.7685494229358767
   Epulay =       -0.0000000016982517
      Exc =       -4.2463497300950177
       KE =        9.8661586126175056
-------------------------------------
     Etot =      -28.3825654978407513
       TS =        0.0000004775400274
-------------------------------------
        F =      -28.3825659753807784

IonicMinimize: Iter:   0  F: -28.382565975380778  |grad|_K:  0.000e+00  t[s]:    123.81
IonicMinimize: Converged (|grad|_K<1.000000e-04).

#--- Lowdin population analysis ---
# oxidation-state K +0.017
# magnetic-moments K +0.943

End date and time: Sat Feb  5 23:57:44 2022  (Duration: 0-0:02:03.85)
Done!
