
*************** JDFTx 1.6.0 (git hash 42ebbcc2) ***************

Start date and time: Sat Feb  5 23:50:29 2022
Executable jdftx with command-line: -i Alkali.in
Running on hosts (process indices):  d-6-7-4 (0-18)
Divided in process groups (process indices):  0 (0)  1 (1)  2 (2)  3 (3)  4 (4)  5 (5)  6 (6)  7 (7)  8 (8)  9 (9)  10 (10)  11 (11)  12 (12)  13 (13)  14 (14)  15 (15)  16 (16)  17 (17)  18 (18)
Resource initialization completed at t[s]:      0.00
Run totals: 19 processes, 48 threads, 0 GPUs


Input parsed successfully to the following command list (including defaults):

basis kpoint-dependent
coords-type Lattice
core-overlap-check vector
coulomb-interaction Slab 001
davidson-band-ratio 1.1
dump End None
dump-name $INPUT.$VAR
elec-cutoff 20
elec-eigen-algo Davidson
elec-ex-corr gga-PBE
elec-initial-magnetization 0.680000 yes
elec-smearing Fermi 1e-05
electronic-minimize  \
	dirUpdateScheme      FletcherReeves \
	linminMethod         DirUpdateRecommended \
	nIterations          100 \
	history              15 \
	knormThreshold       0 \
	energyDiffThreshold  1e-08 \
	nEnergyDiff          2 \
	alphaTstart          1 \
	alphaTmin            1e-10 \
	updateTestStepSize   yes \
	alphaTreduceFactor   0.1 \
	alphaTincreaseFactor 3 \
	nAlphaAdjustMax      3 \
	wolfeEnergy          0.0001 \
	wolfeGradient        0.9 \
	fdTest               no
electronic-scf  \
	nIterations	10000 \
	energyDiffThreshold	1e-08 \
	residualThreshold	1e-07 \
	mixFraction	0.5 \
	qMetric	0.8 \
	history	10 \
	nEigSteps	2 \
	eigDiffThreshold	1e-08 \
	mixedVariable	Density \
	qKerker	0.8 \
	qKappa	-1 \
	verbose	no \
	mixFractionMag	1.5
exchange-regularization WignerSeitzTruncated
fluid None
fluid-ex-corr (null) lda-PZ
fluid-gummel-loop 10 1.000000e-05
fluid-minimize  \
	dirUpdateScheme      PolakRibiere \
	linminMethod         DirUpdateRecommended \
	nIterations          100 \
	history              15 \
	knormThreshold       0 \
	energyDiffThreshold  0 \
	nEnergyDiff          2 \
	alphaTstart          1 \
	alphaTmin            1e-10 \
	updateTestStepSize   yes \
	alphaTreduceFactor   0.1 \
	alphaTincreaseFactor 3 \
	nAlphaAdjustMax      3 \
	wolfeEnergy          0.0001 \
	wolfeGradient        0.9 \
	fdTest               no
fluid-solvent H2O 55.338 ScalarEOS \
	epsBulk 78.4 \
	pMol 0.92466 \
	epsInf 1.77 \
	Pvap 1.06736e-10 \
	sigmaBulk 4.62e-05 \
	Rvdw 2.61727 \
	Res 1.42 \
	tauNuc 343133 \
	poleEl 15 7 1
forces-output-coords Positions
ion K   0.000000000000000   0.000000000000000   0.000000000000000 0
ion-species SG15/$ID_ONCV_PBE.upf
ion-width 0
ionic-minimize  \
	dirUpdateScheme      L-BFGS \
	linminMethod         DirUpdateRecommended \
	nIterations          0 \
	history              15 \
	knormThreshold       0.0001 \
	energyDiffThreshold  1e-06 \
	nEnergyDiff          2 \
	alphaTstart          1 \
	alphaTmin            1e-10 \
	updateTestStepSize   yes \
	alphaTreduceFactor   0.1 \
	alphaTincreaseFactor 3 \
	nAlphaAdjustMax      3 \
	wolfeEnergy          0.0001 \
	wolfeGradient        0.9 \
	fdTest               no
kpoint   0.000000000000   0.000000000000   0.000000000000  1.00000000000000
kpoint-folding 12 12 1 
latt-move-scale 1 1 1
latt-scale 3 3 1 
lattice  \
	   4.727486978767153   -2.363743489383575    0.000000000000000  \
	  -0.000000000000000    4.094123819672498    0.000000000000000  \
	   0.000000000000000    0.000000000000000   40.000000000000000 
lattice-minimize  \
	dirUpdateScheme      L-BFGS \
	linminMethod         DirUpdateRecommended \
	nIterations          0 \
	history              15 \
	knormThreshold       0 \
	energyDiffThreshold  1e-06 \
	nEnergyDiff          2 \
	alphaTstart          1 \
	alphaTmin            1e-10 \
	updateTestStepSize   yes \
	alphaTreduceFactor   0.1 \
	alphaTincreaseFactor 3 \
	nAlphaAdjustMax      3 \
	wolfeEnergy          0.0001 \
	wolfeGradient        0.9 \
	fdTest               no
lcao-params -1 1e-06 1e-05
pcm-variant GLSSA13
spintype z-spin
subspace-rotation-factor 1 yes
symmetries automatic
symmetry-threshold 0.0001



---------- Setting up symmetries ----------

Found 24 point-group symmetries of the bravais lattice
Found 24 space-group symmetries with basis
Applied RMS atom displacement 0 bohrs to make symmetries exact.

---------- Initializing the Grid ----------
R = 
[      14.1825     -7.09123            0  ]
[            0      12.2824            0  ]
[            0            0           40  ]
unit cell volume = 6967.77
G =
[   0.443025   0.255781         -0  ]
[          0   0.511561         -0  ]
[         -0         -0    0.15708  ]
Minimum fftbox size, Smin = [  60  60  164  ]
Chosen fftbox size, S = [  60  60  168  ]

---------- Exchange Correlation functional ----------
Initalized PBE GGA exchange.
Initalized PBE GGA correlation.

---------- Setting up pseudopotentials ----------
Width of ionic core gaussian charges (only for fluid interactions / plotting) set to 0

Reading pseudopotential file '/home/gridsan/aligho/DFT/build-Nov24/pseudopotentials/SG15/K_ONCV_PBE.upf':
  'K' pseudopotential, 'PBE' functional
  Generated using ONCVPSP code by D. R. Hamann
  Author: Martin Schlipf and Francois Gygi  Date: 150915.
  9 valence electrons, 3 orbitals, 6 projectors, 2222 radial grid points, with lMax = 2
  Transforming local potential to a uniform radial grid of dG=0.02 with 1489 points.
  Transforming nonlocal projectors to a uniform radial grid of dG=0.02 with 432 points.
    3S    l: 0   occupation:  2.0   eigenvalue: -1.298836
    3P    l: 1   occupation:  6.0   eigenvalue: -0.691386
    4S    l: 0   occupation:  1.0   eigenvalue: -0.085223
  Transforming atomic orbitals to a uniform radial grid of dG=0.02 with 432 points.
  Core radius for overlap checks: 2.06 bohrs.
  Reading pulay file /home/gridsan/aligho/DFT/build-Nov24/pseudopotentials/SG15/K_ONCV_PBE.pulay ... using dE_dnG = -1.597219e-05 computed for Ecut = 20.

Initialized 1 species with 1 total atoms.

Folded 1 k-points by 12x12x1 to 144 k-points.

---------- Setting up k-points, bands, fillings ----------
Reduced to 19 k-points under symmetry. 
Computing the number of bands and number of electrons
Calculating initial fillings.
nElectrons:   9.000000   nBands: 6   nStates: 38

----- Setting up reduced wavefunction bases (one per k-point) -----
average nbasis = 29766.104 , ideal nbasis = 29766.845

---------- Setting up coulomb interaction ----------
Initialized slab truncation along lattice direction 001

---------- Setting up 2D ewald sum ----------
Optimum gaussian width for ewald sums = 7.873530 bohr.
Real space sums over 289 unit cells with max indices [  8  8  0  ]
Reciprocal space sums over 81 terms with max indices [  4  4  0  ]

---------- Allocating electronic variables ----------
Initializing wave functions:  linear combination of atomic orbitals
Note: number of bands (6) exceeds available atomic orbitals (5)
K pseudo-atom occupations:   s ( 2 1 )  p ( 6 )
	FillingsUpdate:  mu: -0.088376481  nElectrons: 9.000000  magneticMoment: [ Abs: 0.68000  Tot: +0.68000 ]
LCAOMinimize: Iter:   0  F: -28.3821179765839169  |grad|_K:  1.025e-05  alpha:  1.000e+00
	FillingsUpdate:  mu: -0.088374630  nElectrons: 9.000000  magneticMoment: [ Abs: 0.68000  Tot: +0.68000 ]
LCAOMinimize: Iter:   1  F: -28.3821180479327424  |grad|_K:  6.742e-08  alpha:  9.920e-01  linmin: -6.378e-03  cgtest:  2.366e-01  t[s]:      8.60
LCAOMinimize: Encountered beta<0, resetting CG.
	FillingsUpdate:  mu: -0.088374635  nElectrons: 9.000000  magneticMoment: [ Abs: 0.68000  Tot: +0.68000 ]
LCAOMinimize: Iter:   2  F: -28.3821180479361210  |grad|_K:  5.207e-09  alpha:  1.075e+00  linmin:  7.592e-02  cgtest: -9.972e-01  t[s]:     10.90
LCAOMinimize: Converged (|Delta F|<1.000000e-06 for 2 iters).


---- Citations for features of the code used in this run ----

   Software package:
      R. Sundararaman, K. Letchworth-Weaver, K.A. Schwarz, D. Gunceler, Y. Ozhabes and T.A. Arias, 'JDFTx: software for joint density-functional theory', SoftwareX 6, 278 (2017)

   gga-PBE exchange-correlation functional:
      J.P. Perdew, K. Burke and M. Ernzerhof, Phys. Rev. Lett. 77, 3865 (1996)

   Pseudopotentials:
      M Schlipf and F Gygi, Comput. Phys. Commun. 196, 36 (2015)

   Truncated Coulomb potentials:
      R. Sundararaman and T.A. Arias, Phys. Rev. B 87, 165122 (2013)

This list may not be complete. Please suggest additional citations or
report any other bugs at https://github.com/shankar1729/jdftx/issues

Initialization completed successfully at t[s]:     11.06


-------- Electronic minimization -----------
Will mix electronic density at each iteration.
	FillingsUpdate:  mu: -0.088374635  nElectrons: 9.000000  magneticMoment: [ Abs: 0.68000  Tot: +0.68000 ]
	FillingsUpdate:  mu: -0.089246777  nElectrons: 9.000000  magneticMoment: [ Abs: 0.68000  Tot: +0.68000 ]
SCF: Cycle:  0   F: -28.383263939826794   dF: -1.146e-03   |Residual|: 3.322e-03   |deigs|: 1.740e-01  t[s]:     15.80
	FillingsUpdate:  mu: -0.089408037  nElectrons: 9.000000  magneticMoment: [ Abs: 0.68017  Tot: +0.68000 ]
SCF: Cycle:  1   F: -28.383297326401635   dF: -3.339e-05   |Residual|: 2.353e-03   |deigs|: 5.037e-03  t[s]:     19.49
	FillingsUpdate:  mu: -0.089534802  nElectrons: 9.000000  magneticMoment: [ Abs: 0.68131  Tot: +0.68000 ]
SCF: Cycle:  2   F: -28.383321448048420   dF: -2.412e-05   |Residual|: 1.798e-03   |deigs|: 2.955e-03  t[s]:     23.23
	FillingsUpdate:  mu: -0.089791735  nElectrons: 9.000000  magneticMoment: [ Abs: 0.68165  Tot: +0.68000 ]
SCF: Cycle:  3   F: -28.383340880249978   dF: -1.943e-05   |Residual|: 1.261e-03   |deigs|: 1.802e-03  t[s]:     27.01
	FillingsUpdate:  mu: -0.089941440  nElectrons: 9.000000  magneticMoment: [ Abs: 0.68109  Tot: +0.68000 ]
SCF: Cycle:  4   F: -28.383354020659123   dF: -1.314e-05   |Residual|: 7.312e-04   |deigs|: 2.241e-03  t[s]:     30.87
	FillingsUpdate:  mu: -0.090064237  nElectrons: 9.000000  magneticMoment: [ Abs: 0.68139  Tot: +0.68000 ]
SCF: Cycle:  5   F: -28.383360882008855   dF: -6.861e-06   |Residual|: 4.105e-04   |deigs|: 1.643e-03  t[s]:     34.70
	FillingsUpdate:  mu: -0.090025305  nElectrons: 9.000000  magneticMoment: [ Abs: 0.68107  Tot: +0.68000 ]
SCF: Cycle:  6   F: -28.383364371152943   dF: -3.489e-06   |Residual|: 2.876e-04   |deigs|: 1.020e-03  t[s]:     38.65
	FillingsUpdate:  mu: -0.089915691  nElectrons: 9.000000  magneticMoment: [ Abs: 0.68138  Tot: +0.68000 ]
SCF: Cycle:  7   F: -28.383366333425638   dF: -1.962e-06   |Residual|: 2.258e-04   |deigs|: 8.418e-04  t[s]:     42.65
	FillingsUpdate:  mu: -0.089779891  nElectrons: 9.000000  magneticMoment: [ Abs: 0.68160  Tot: +0.68000 ]
SCF: Cycle:  8   F: -28.383367005853792   dF: -6.724e-07   |Residual|: 1.804e-04   |deigs|: 5.539e-04  t[s]:     46.77
	FillingsUpdate:  mu: -0.089527935  nElectrons: 9.000000  magneticMoment: [ Abs: 0.68208  Tot: +0.68000 ]
SCF: Cycle:  9   F: -28.383367179597006   dF: -1.737e-07   |Residual|: 1.582e-04   |deigs|: 3.578e-04  t[s]:     50.96
	FillingsUpdate:  mu: -0.089361995  nElectrons: 9.000000  magneticMoment: [ Abs: 0.68188  Tot: +0.68000 ]
SCF: Cycle: 10   F: -28.383367283291086   dF: -1.037e-07   |Residual|: 1.484e-04   |deigs|: 2.056e-04  t[s]:     55.13
	FillingsUpdate:  mu: -0.089133114  nElectrons: 9.000000  magneticMoment: [ Abs: 0.68232  Tot: +0.68000 ]
SCF: Cycle: 11   F: -28.383368013774909   dF: -7.305e-07   |Residual|: 1.202e-04   |deigs|: 2.557e-04  t[s]:     59.35
	FillingsUpdate:  mu: -0.089148157  nElectrons: 9.000000  magneticMoment: [ Abs: 0.68192  Tot: +0.68000 ]
SCF: Cycle: 12   F: -28.383368794657034   dF: -7.809e-07   |Residual|: 9.374e-05   |deigs|: 1.180e-04  t[s]:     63.56
	FillingsUpdate:  mu: -0.088908066  nElectrons: 9.000000  magneticMoment: [ Abs: 0.68159  Tot: +0.68000 ]
SCF: Cycle: 13   F: -28.383368943784664   dF: -1.491e-07   |Residual|: 9.494e-05   |deigs|: 2.623e-04  t[s]:     67.77
	FillingsUpdate:  mu: -0.088695631  nElectrons: 9.000000  magneticMoment: [ Abs: 0.68176  Tot: +0.68000 ]
SCF: Cycle: 14   F: -28.383368708658534   dF: +2.351e-07   |Residual|: 9.441e-05   |deigs|: 2.336e-04  t[s]:     72.00
	FillingsUpdate:  mu: -0.088505733  nElectrons: 9.000000  magneticMoment: [ Abs: 0.68198  Tot: +0.68000 ]
SCF: Cycle: 15   F: -28.383368981154174   dF: -2.725e-07   |Residual|: 8.212e-05   |deigs|: 1.963e-04  t[s]:     76.23
	FillingsUpdate:  mu: -0.088474844  nElectrons: 9.000000  magneticMoment: [ Abs: 0.68155  Tot: +0.68000 ]
SCF: Cycle: 16   F: -28.383369482840727   dF: -5.017e-07   |Residual|: 6.557e-05   |deigs|: 8.718e-05  t[s]:     80.41
	FillingsUpdate:  mu: -0.088365103  nElectrons: 9.000000  magneticMoment: [ Abs: 0.68127  Tot: +0.68000 ]
SCF: Cycle: 17   F: -28.383369706871555   dF: -2.240e-07   |Residual|: 5.104e-05   |deigs|: 1.982e-04  t[s]:     84.57
	FillingsUpdate:  mu: -0.088299777  nElectrons: 9.000000  magneticMoment: [ Abs: 0.68125  Tot: +0.68000 ]
SCF: Cycle: 18   F: -28.383369905377780   dF: -1.985e-07   |Residual|: 3.220e-05   |deigs|: 3.375e-04  t[s]:     88.74
	FillingsUpdate:  mu: -0.088289634  nElectrons: 9.000000  magneticMoment: [ Abs: 0.68125  Tot: +0.68000 ]
SCF: Cycle: 19   F: -28.383369991007726   dF: -8.563e-08   |Residual|: 2.066e-05   |deigs|: 3.800e-05  t[s]:     92.99
	FillingsUpdate:  mu: -0.088290307  nElectrons: 9.000000  magneticMoment: [ Abs: 0.68123  Tot: +0.68000 ]
SCF: Cycle: 20   F: -28.383370041001118   dF: -4.999e-08   |Residual|: 1.239e-05   |deigs|: 2.814e-05  t[s]:     97.07
	FillingsUpdate:  mu: -0.088293631  nElectrons: 9.000000  magneticMoment: [ Abs: 0.68123  Tot: +0.68000 ]
SCF: Cycle: 21   F: -28.383370064352196   dF: -2.335e-08   |Residual|: 6.991e-06   |deigs|: 2.577e-05  t[s]:    101.26
	FillingsUpdate:  mu: -0.088290130  nElectrons: 9.000000  magneticMoment: [ Abs: 0.68124  Tot: +0.68000 ]
SCF: Cycle: 22   F: -28.383370077879849   dF: -1.353e-08   |Residual|: 4.396e-06   |deigs|: 2.889e-05  t[s]:    105.25
	FillingsUpdate:  mu: -0.088289632  nElectrons: 9.000000  magneticMoment: [ Abs: 0.68126  Tot: +0.68000 ]
SCF: Cycle: 23   F: -28.383370084664911   dF: -6.785e-09   |Residual|: 3.159e-06   |deigs|: 3.477e-05  t[s]:    109.26
	FillingsUpdate:  mu: -0.088291631  nElectrons: 9.000000  magneticMoment: [ Abs: 0.68126  Tot: +0.68000 ]
SCF: Cycle: 24   F: -28.383370089331621   dF: -4.667e-09   |Residual|: 2.421e-06   |deigs|: 4.207e-05  t[s]:    113.43
SCF: Converged (|Delta E|<1.000000e-08 for 2 iters).


# Ionic positions in lattice coordinates:
ion K   0.000000000000000   0.000000000000000   0.000000000000000 0

# Forces in Lattice coordinates:
force K   0.000000000000000  -0.000000000000000   0.000000000000000 0

# Energy components:
   Eewald =      -12.0320174002217755
       EH =       10.7384896878781024
     Eloc =      -29.9361341394705320
      Enl =       -2.7705359961232130
   Epulay =       -0.0000000016982517
      Exc =       -4.2407341663107463
       KE =        9.8575624775648656
-------------------------------------
     Etot =      -28.3833695383815545
       TS =        0.0000005509500668
-------------------------------------
        F =      -28.3833700893316205

IonicMinimize: Iter:   0  F: -28.383370089331621  |grad|_K:  0.000e+00  t[s]:    113.72
IonicMinimize: Converged (|grad|_K<1.000000e-04).

#--- Lowdin population analysis ---
# oxidation-state K +0.025
# magnetic-moments K +0.658

End date and time: Sat Feb  5 23:52:23 2022  (Duration: 0-0:01:53.76)
Done!
