
*************** JDFTx 1.6.0 (git hash 42ebbcc2) ***************

Start date and time: Sat Feb  5 23:31:10 2022
Executable jdftx with command-line: -i Alkali.in
Running on hosts (process indices):  d-16-13-1 (0-18)
Divided in process groups (process indices):  0 (0)  1 (1)  2 (2)  3 (3)  4 (4)  5 (5)  6 (6)  7 (7)  8 (8)  9 (9)  10 (10)  11 (11)  12 (12)  13 (13)  14 (14)  15 (15)  16 (16)  17 (17)  18 (18)
Resource initialization completed at t[s]:      0.00
Run totals: 19 processes, 48 threads, 0 GPUs


Input parsed successfully to the following command list (including defaults):

basis kpoint-dependent
coords-type Lattice
core-overlap-check vector
coulomb-interaction Slab 001
davidson-band-ratio 1.1
dump End None
dump-name $INPUT.$VAR
elec-cutoff 20
elec-eigen-algo Davidson
elec-ex-corr gga-PBE
elec-initial-magnetization -0.560000 yes
elec-smearing Fermi 1e-05
electronic-minimize  \
	dirUpdateScheme      FletcherReeves \
	linminMethod         DirUpdateRecommended \
	nIterations          100 \
	history              15 \
	knormThreshold       0 \
	energyDiffThreshold  1e-08 \
	nEnergyDiff          2 \
	alphaTstart          1 \
	alphaTmin            1e-10 \
	updateTestStepSize   yes \
	alphaTreduceFactor   0.1 \
	alphaTincreaseFactor 3 \
	nAlphaAdjustMax      3 \
	wolfeEnergy          0.0001 \
	wolfeGradient        0.9 \
	fdTest               no
electronic-scf  \
	nIterations	10000 \
	energyDiffThreshold	1e-08 \
	residualThreshold	1e-07 \
	mixFraction	0.5 \
	qMetric	0.8 \
	history	10 \
	nEigSteps	2 \
	eigDiffThreshold	1e-08 \
	mixedVariable	Density \
	qKerker	0.8 \
	qKappa	-1 \
	verbose	no \
	mixFractionMag	1.5
exchange-regularization WignerSeitzTruncated
fluid None
fluid-ex-corr (null) lda-PZ
fluid-gummel-loop 10 1.000000e-05
fluid-minimize  \
	dirUpdateScheme      PolakRibiere \
	linminMethod         DirUpdateRecommended \
	nIterations          100 \
	history              15 \
	knormThreshold       0 \
	energyDiffThreshold  0 \
	nEnergyDiff          2 \
	alphaTstart          1 \
	alphaTmin            1e-10 \
	updateTestStepSize   yes \
	alphaTreduceFactor   0.1 \
	alphaTincreaseFactor 3 \
	nAlphaAdjustMax      3 \
	wolfeEnergy          0.0001 \
	wolfeGradient        0.9 \
	fdTest               no
fluid-solvent H2O 55.338 ScalarEOS \
	epsBulk 78.4 \
	pMol 0.92466 \
	epsInf 1.77 \
	Pvap 1.06736e-10 \
	sigmaBulk 4.62e-05 \
	Rvdw 2.61727 \
	Res 1.42 \
	tauNuc 343133 \
	poleEl 15 7 1
forces-output-coords Positions
ion K   0.000000000000000   0.000000000000000   0.000000000000000 0
ion-species SG15/$ID_ONCV_PBE.upf
ion-width 0
ionic-minimize  \
	dirUpdateScheme      L-BFGS \
	linminMethod         DirUpdateRecommended \
	nIterations          0 \
	history              15 \
	knormThreshold       0.0001 \
	energyDiffThreshold  1e-06 \
	nEnergyDiff          2 \
	alphaTstart          1 \
	alphaTmin            1e-10 \
	updateTestStepSize   yes \
	alphaTreduceFactor   0.1 \
	alphaTincreaseFactor 3 \
	nAlphaAdjustMax      3 \
	wolfeEnergy          0.0001 \
	wolfeGradient        0.9 \
	fdTest               no
kpoint   0.000000000000   0.000000000000   0.000000000000  1.00000000000000
kpoint-folding 12 12 1 
latt-move-scale 1 1 1
latt-scale 3 3 1 
lattice  \
	   4.727486978767153   -2.363743489383575    0.000000000000000  \
	  -0.000000000000000    4.094123819672498    0.000000000000000  \
	   0.000000000000000    0.000000000000000   40.000000000000000 
lattice-minimize  \
	dirUpdateScheme      L-BFGS \
	linminMethod         DirUpdateRecommended \
	nIterations          0 \
	history              15 \
	knormThreshold       0 \
	energyDiffThreshold  1e-06 \
	nEnergyDiff          2 \
	alphaTstart          1 \
	alphaTmin            1e-10 \
	updateTestStepSize   yes \
	alphaTreduceFactor   0.1 \
	alphaTincreaseFactor 3 \
	nAlphaAdjustMax      3 \
	wolfeEnergy          0.0001 \
	wolfeGradient        0.9 \
	fdTest               no
lcao-params -1 1e-06 1e-05
pcm-variant GLSSA13
spintype z-spin
subspace-rotation-factor 1 yes
symmetries automatic
symmetry-threshold 0.0001



---------- Setting up symmetries ----------

Found 24 point-group symmetries of the bravais lattice
Found 24 space-group symmetries with basis
Applied RMS atom displacement 0 bohrs to make symmetries exact.

---------- Initializing the Grid ----------
R = 
[      14.1825     -7.09123            0  ]
[            0      12.2824            0  ]
[            0            0           40  ]
unit cell volume = 6967.77
G =
[   0.443025   0.255781         -0  ]
[          0   0.511561         -0  ]
[         -0         -0    0.15708  ]
Minimum fftbox size, Smin = [  60  60  164  ]
Chosen fftbox size, S = [  60  60  168  ]

---------- Exchange Correlation functional ----------
Initalized PBE GGA exchange.
Initalized PBE GGA correlation.

---------- Setting up pseudopotentials ----------
Width of ionic core gaussian charges (only for fluid interactions / plotting) set to 0

Reading pseudopotential file '/home/gridsan/aligho/DFT/build-Nov24/pseudopotentials/SG15/K_ONCV_PBE.upf':
  'K' pseudopotential, 'PBE' functional
  Generated using ONCVPSP code by D. R. Hamann
  Author: Martin Schlipf and Francois Gygi  Date: 150915.
  9 valence electrons, 3 orbitals, 6 projectors, 2222 radial grid points, with lMax = 2
  Transforming local potential to a uniform radial grid of dG=0.02 with 1489 points.
  Transforming nonlocal projectors to a uniform radial grid of dG=0.02 with 432 points.
    3S    l: 0   occupation:  2.0   eigenvalue: -1.298836
    3P    l: 1   occupation:  6.0   eigenvalue: -0.691386
    4S    l: 0   occupation:  1.0   eigenvalue: -0.085223
  Transforming atomic orbitals to a uniform radial grid of dG=0.02 with 432 points.
  Core radius for overlap checks: 2.06 bohrs.
  Reading pulay file /home/gridsan/aligho/DFT/build-Nov24/pseudopotentials/SG15/K_ONCV_PBE.pulay ... using dE_dnG = -1.597219e-05 computed for Ecut = 20.

Initialized 1 species with 1 total atoms.

Folded 1 k-points by 12x12x1 to 144 k-points.

---------- Setting up k-points, bands, fillings ----------
Reduced to 19 k-points under symmetry. 
Computing the number of bands and number of electrons
Calculating initial fillings.
nElectrons:   9.000000   nBands: 6   nStates: 38

----- Setting up reduced wavefunction bases (one per k-point) -----
average nbasis = 29766.104 , ideal nbasis = 29766.845

---------- Setting up coulomb interaction ----------
Initialized slab truncation along lattice direction 001

---------- Setting up 2D ewald sum ----------
Optimum gaussian width for ewald sums = 7.873530 bohr.
Real space sums over 289 unit cells with max indices [  8  8  0  ]
Reciprocal space sums over 81 terms with max indices [  4  4  0  ]

---------- Allocating electronic variables ----------
Initializing wave functions:  linear combination of atomic orbitals
Note: number of bands (6) exceeds available atomic orbitals (5)
K pseudo-atom occupations:   s ( 2 1 )  p ( 6 )
	FillingsUpdate:  mu: -0.087914242  nElectrons: 9.000000  magneticMoment: [ Abs: 0.56000  Tot: -0.56000 ]
LCAOMinimize: Iter:   0  F: -28.3823384665641036  |grad|_K:  1.338e-05  alpha:  1.000e+00
	FillingsUpdate:  mu: -0.087912342  nElectrons: 9.000000  magneticMoment: [ Abs: 0.56000  Tot: -0.56000 ]
LCAOMinimize: Iter:   1  F: -28.3823385879300147  |grad|_K:  9.208e-08  alpha:  9.918e-01  linmin: -1.092e-02  cgtest:  2.846e-01  t[s]:      8.83
LCAOMinimize: Encountered beta<0, resetting CG.
	FillingsUpdate:  mu: -0.087912351  nElectrons: 9.000000  magneticMoment: [ Abs: 0.56000  Tot: -0.56000 ]
LCAOMinimize: Iter:   2  F: -28.3823385879353900  |grad|_K:  6.206e-09  alpha:  9.313e-01  linmin: -1.027e-01  cgtest:  9.973e-01  t[s]:     11.22
LCAOMinimize: Encountered beta<0, resetting CG.
LCAOMinimize: Converged (|Delta F|<1.000000e-06 for 2 iters).


---- Citations for features of the code used in this run ----

   Software package:
      R. Sundararaman, K. Letchworth-Weaver, K.A. Schwarz, D. Gunceler, Y. Ozhabes and T.A. Arias, 'JDFTx: software for joint density-functional theory', SoftwareX 6, 278 (2017)

   gga-PBE exchange-correlation functional:
      J.P. Perdew, K. Burke and M. Ernzerhof, Phys. Rev. Lett. 77, 3865 (1996)

   Pseudopotentials:
      M Schlipf and F Gygi, Comput. Phys. Commun. 196, 36 (2015)

   Truncated Coulomb potentials:
      R. Sundararaman and T.A. Arias, Phys. Rev. B 87, 165122 (2013)

This list may not be complete. Please suggest additional citations or
report any other bugs at https://github.com/shankar1729/jdftx/issues

Initialization completed successfully at t[s]:     11.38


-------- Electronic minimization -----------
Will mix electronic density at each iteration.
	FillingsUpdate:  mu: -0.087912351  nElectrons: 9.000000  magneticMoment: [ Abs: 0.56000  Tot: -0.56000 ]
	FillingsUpdate:  mu: -0.088928409  nElectrons: 9.000000  magneticMoment: [ Abs: 0.56000  Tot: -0.56000 ]
SCF: Cycle:  0   F: -28.383583527208916   dF: -1.245e-03   |Residual|: 3.401e-03   |deigs|: 1.742e-01  t[s]:     16.22
	FillingsUpdate:  mu: -0.089074359  nElectrons: 9.000000  magneticMoment: [ Abs: 0.56003  Tot: -0.56000 ]
SCF: Cycle:  1   F: -28.383617357070353   dF: -3.383e-05   |Residual|: 2.557e-03   |deigs|: 4.823e-03  t[s]:     19.96
	FillingsUpdate:  mu: -0.089232991  nElectrons: 9.000000  magneticMoment: [ Abs: 0.56116  Tot: -0.56000 ]
SCF: Cycle:  2   F: -28.383642839267178   dF: -2.548e-05   |Residual|: 1.903e-03   |deigs|: 1.956e-03  t[s]:     23.77
	FillingsUpdate:  mu: -0.089493975  nElectrons: 9.000000  magneticMoment: [ Abs: 0.56140  Tot: -0.56000 ]
SCF: Cycle:  3   F: -28.383661072243203   dF: -1.823e-05   |Residual|: 1.251e-03   |deigs|: 3.570e-03  t[s]:     27.76
	FillingsUpdate:  mu: -0.089631981  nElectrons: 9.000000  magneticMoment: [ Abs: 0.56077  Tot: -0.56000 ]
SCF: Cycle:  4   F: -28.383671879406410   dF: -1.081e-05   |Residual|: 6.892e-04   |deigs|: 1.843e-03  t[s]:     31.68
	FillingsUpdate:  mu: -0.089731905  nElectrons: 9.000000  magneticMoment: [ Abs: 0.56107  Tot: -0.56000 ]
SCF: Cycle:  5   F: -28.383677894742863   dF: -6.015e-06   |Residual|: 4.143e-04   |deigs|: 1.029e-03  t[s]:     35.65
	FillingsUpdate:  mu: -0.089668901  nElectrons: 9.000000  magneticMoment: [ Abs: 0.56081  Tot: -0.56000 ]
SCF: Cycle:  6   F: -28.383681463292046   dF: -3.569e-06   |Residual|: 2.858e-04   |deigs|: 1.409e-03  t[s]:     39.71
	FillingsUpdate:  mu: -0.089566952  nElectrons: 9.000000  magneticMoment: [ Abs: 0.56106  Tot: -0.56000 ]
SCF: Cycle:  7   F: -28.383682841136533   dF: -1.378e-06   |Residual|: 2.311e-04   |deigs|: 5.704e-04  t[s]:     43.82
	FillingsUpdate:  mu: -0.089418346  nElectrons: 9.000000  magneticMoment: [ Abs: 0.56136  Tot: -0.56000 ]
SCF: Cycle:  8   F: -28.383683488161434   dF: -6.470e-07   |Residual|: 1.823e-04   |deigs|: 4.159e-04  t[s]:     48.03
	FillingsUpdate:  mu: -0.089178215  nElectrons: 9.000000  magneticMoment: [ Abs: 0.56185  Tot: -0.56000 ]
SCF: Cycle:  9   F: -28.383683685720531   dF: -1.976e-07   |Residual|: 1.616e-04   |deigs|: 3.408e-04  t[s]:     52.37
	FillingsUpdate:  mu: -0.088988261  nElectrons: 9.000000  magneticMoment: [ Abs: 0.56159  Tot: -0.56000 ]
SCF: Cycle: 10   F: -28.383683683058727   dF: +2.662e-09   |Residual|: 1.440e-04   |deigs|: 2.143e-04  t[s]:     56.70
	FillingsUpdate:  mu: -0.088752029  nElectrons: 9.000000  magneticMoment: [ Abs: 0.56194  Tot: -0.56000 ]
SCF: Cycle: 11   F: -28.383684192673890   dF: -5.096e-07   |Residual|: 1.253e-04   |deigs|: 2.548e-04  t[s]:     61.05
	FillingsUpdate:  mu: -0.088775822  nElectrons: 9.000000  magneticMoment: [ Abs: 0.56161  Tot: -0.56000 ]
SCF: Cycle: 12   F: -28.383684929002342   dF: -7.363e-07   |Residual|: 9.906e-05   |deigs|: 1.777e-04  t[s]:     65.41
	FillingsUpdate:  mu: -0.088541754  nElectrons: 9.000000  magneticMoment: [ Abs: 0.56129  Tot: -0.56000 ]
SCF: Cycle: 13   F: -28.383685145349705   dF: -2.163e-07   |Residual|: 9.297e-05   |deigs|: 2.604e-04  t[s]:     69.67
	FillingsUpdate:  mu: -0.088318420  nElectrons: 9.000000  magneticMoment: [ Abs: 0.56122  Tot: -0.56000 ]
SCF: Cycle: 14   F: -28.383684830481762   dF: +3.149e-07   |Residual|: 9.562e-05   |deigs|: 2.514e-04  t[s]:     73.99
	FillingsUpdate:  mu: -0.088155897  nElectrons: 9.000000  magneticMoment: [ Abs: 0.56150  Tot: -0.56000 ]
SCF: Cycle: 15   F: -28.383685035063987   dF: -2.046e-07   |Residual|: 8.443e-05   |deigs|: 2.806e-04  t[s]:     78.31
	FillingsUpdate:  mu: -0.088072009  nElectrons: 9.000000  magneticMoment: [ Abs: 0.56135  Tot: -0.56000 ]
SCF: Cycle: 16   F: -28.383685575220110   dF: -5.402e-07   |Residual|: 6.654e-05   |deigs|: 3.804e-04  t[s]:     82.60
	FillingsUpdate:  mu: -0.087960927  nElectrons: 9.000000  magneticMoment: [ Abs: 0.56103  Tot: -0.56000 ]
SCF: Cycle: 17   F: -28.383685741258791   dF: -1.660e-07   |Residual|: 5.236e-05   |deigs|: 1.341e-04  t[s]:     86.82
	FillingsUpdate:  mu: -0.087886010  nElectrons: 9.000000  magneticMoment: [ Abs: 0.56100  Tot: -0.56000 ]
SCF: Cycle: 18   F: -28.383685946215493   dF: -2.050e-07   |Residual|: 3.050e-05   |deigs|: 2.258e-04  t[s]:     91.16
	FillingsUpdate:  mu: -0.087892360  nElectrons: 9.000000  magneticMoment: [ Abs: 0.56100  Tot: -0.56000 ]
SCF: Cycle: 19   F: -28.383686007137452   dF: -6.092e-08   |Residual|: 1.955e-05   |deigs|: 2.808e-05  t[s]:     95.35
	FillingsUpdate:  mu: -0.087894694  nElectrons: 9.000000  magneticMoment: [ Abs: 0.56097  Tot: -0.56000 ]
SCF: Cycle: 20   F: -28.383686035127468   dF: -2.799e-08   |Residual|: 1.078e-05   |deigs|: 1.755e-05  t[s]:     99.69
	FillingsUpdate:  mu: -0.087893824  nElectrons: 9.000000  magneticMoment: [ Abs: 0.56097  Tot: -0.56000 ]
SCF: Cycle: 21   F: -28.383686058830222   dF: -2.370e-08   |Residual|: 6.511e-06   |deigs|: 1.329e-05  t[s]:    103.86
	FillingsUpdate:  mu: -0.087894462  nElectrons: 9.000000  magneticMoment: [ Abs: 0.56097  Tot: -0.56000 ]
SCF: Cycle: 22   F: -28.383686069885563   dF: -1.106e-08   |Residual|: 3.551e-06   |deigs|: 7.879e-06  t[s]:    107.93
	FillingsUpdate:  mu: -0.087892044  nElectrons: 9.000000  magneticMoment: [ Abs: 0.56098  Tot: -0.56000 ]
SCF: Cycle: 23   F: -28.383686075743714   dF: -5.858e-09   |Residual|: 2.775e-06   |deigs|: 6.867e-06  t[s]:    111.97
	FillingsUpdate:  mu: -0.087892122  nElectrons: 9.000000  magneticMoment: [ Abs: 0.56098  Tot: -0.56000 ]
SCF: Cycle: 24   F: -28.383686079817011   dF: -4.073e-09   |Residual|: 1.762e-06   |deigs|: 4.196e-06  t[s]:    116.14
SCF: Converged (|Delta E|<1.000000e-08 for 2 iters).


# Ionic positions in lattice coordinates:
ion K   0.000000000000000   0.000000000000000   0.000000000000000 0

# Forces in Lattice coordinates:
force K   0.000000000000000   0.000000000000000   0.000000000000000 0

# Energy components:
   Eewald =      -12.0320174002217755
       EH =       10.7277055232208358
     Eloc =      -29.9242007808625665
      Enl =       -2.7710540802387675
   Epulay =       -0.0000000016982517
      Exc =       -4.2392218851832997
       KE =        9.8551031839098151
-------------------------------------
     Etot =      -28.3836854410740109
       TS =        0.0000006387429985
-------------------------------------
        F =      -28.3836860798170108

IonicMinimize: Iter:   0  F: -28.383686079817011  |grad|_K:  0.000e+00  t[s]:    116.40
IonicMinimize: Converged (|grad|_K<1.000000e-04).

#--- Lowdin population analysis ---
# oxidation-state K +0.026
# magnetic-moments K -0.539

End date and time: Sat Feb  5 23:33:07 2022  (Duration: 0-0:01:56.45)
Done!
