
*************** JDFTx 1.6.0 (git hash 42ebbcc2) ***************

Start date and time: Sat Feb  5 23:43:08 2022
Executable jdftx with command-line: -i Alkali.in
Running on hosts (process indices):  d-3-4-2 (0-18)
Divided in process groups (process indices):  0 (0)  1 (1)  2 (2)  3 (3)  4 (4)  5 (5)  6 (6)  7 (7)  8 (8)  9 (9)  10 (10)  11 (11)  12 (12)  13 (13)  14 (14)  15 (15)  16 (16)  17 (17)  18 (18)
Resource initialization completed at t[s]:      0.00
Run totals: 19 processes, 48 threads, 0 GPUs


Input parsed successfully to the following command list (including defaults):

basis kpoint-dependent
coords-type Lattice
core-overlap-check vector
coulomb-interaction Slab 001
davidson-band-ratio 1.1
dump End None
dump-name $INPUT.$VAR
elec-cutoff 20
elec-eigen-algo Davidson
elec-ex-corr gga-PBE
elec-initial-magnetization -0.080000 yes
elec-smearing Fermi 1e-05
electronic-minimize  \
	dirUpdateScheme      FletcherReeves \
	linminMethod         DirUpdateRecommended \
	nIterations          100 \
	history              15 \
	knormThreshold       0 \
	energyDiffThreshold  1e-08 \
	nEnergyDiff          2 \
	alphaTstart          1 \
	alphaTmin            1e-10 \
	updateTestStepSize   yes \
	alphaTreduceFactor   0.1 \
	alphaTincreaseFactor 3 \
	nAlphaAdjustMax      3 \
	wolfeEnergy          0.0001 \
	wolfeGradient        0.9 \
	fdTest               no
electronic-scf  \
	nIterations	10000 \
	energyDiffThreshold	1e-08 \
	residualThreshold	1e-07 \
	mixFraction	0.5 \
	qMetric	0.8 \
	history	10 \
	nEigSteps	2 \
	eigDiffThreshold	1e-08 \
	mixedVariable	Density \
	qKerker	0.8 \
	qKappa	-1 \
	verbose	no \
	mixFractionMag	1.5
exchange-regularization WignerSeitzTruncated
fluid None
fluid-ex-corr (null) lda-PZ
fluid-gummel-loop 10 1.000000e-05
fluid-minimize  \
	dirUpdateScheme      PolakRibiere \
	linminMethod         DirUpdateRecommended \
	nIterations          100 \
	history              15 \
	knormThreshold       0 \
	energyDiffThreshold  0 \
	nEnergyDiff          2 \
	alphaTstart          1 \
	alphaTmin            1e-10 \
	updateTestStepSize   yes \
	alphaTreduceFactor   0.1 \
	alphaTincreaseFactor 3 \
	nAlphaAdjustMax      3 \
	wolfeEnergy          0.0001 \
	wolfeGradient        0.9 \
	fdTest               no
fluid-solvent H2O 55.338 ScalarEOS \
	epsBulk 78.4 \
	pMol 0.92466 \
	epsInf 1.77 \
	Pvap 1.06736e-10 \
	sigmaBulk 4.62e-05 \
	Rvdw 2.61727 \
	Res 1.42 \
	tauNuc 343133 \
	poleEl 15 7 1
forces-output-coords Positions
ion K   0.000000000000000   0.000000000000000   0.000000000000000 0
ion-species SG15/$ID_ONCV_PBE.upf
ion-width 0
ionic-minimize  \
	dirUpdateScheme      L-BFGS \
	linminMethod         DirUpdateRecommended \
	nIterations          0 \
	history              15 \
	knormThreshold       0.0001 \
	energyDiffThreshold  1e-06 \
	nEnergyDiff          2 \
	alphaTstart          1 \
	alphaTmin            1e-10 \
	updateTestStepSize   yes \
	alphaTreduceFactor   0.1 \
	alphaTincreaseFactor 3 \
	nAlphaAdjustMax      3 \
	wolfeEnergy          0.0001 \
	wolfeGradient        0.9 \
	fdTest               no
kpoint   0.000000000000   0.000000000000   0.000000000000  1.00000000000000
kpoint-folding 12 12 1 
latt-move-scale 1 1 1
latt-scale 3 3 1 
lattice  \
	   4.727486978767153   -2.363743489383575    0.000000000000000  \
	  -0.000000000000000    4.094123819672498    0.000000000000000  \
	   0.000000000000000    0.000000000000000   40.000000000000000 
lattice-minimize  \
	dirUpdateScheme      L-BFGS \
	linminMethod         DirUpdateRecommended \
	nIterations          0 \
	history              15 \
	knormThreshold       0 \
	energyDiffThreshold  1e-06 \
	nEnergyDiff          2 \
	alphaTstart          1 \
	alphaTmin            1e-10 \
	updateTestStepSize   yes \
	alphaTreduceFactor   0.1 \
	alphaTincreaseFactor 3 \
	nAlphaAdjustMax      3 \
	wolfeEnergy          0.0001 \
	wolfeGradient        0.9 \
	fdTest               no
lcao-params -1 1e-06 1e-05
pcm-variant GLSSA13
spintype z-spin
subspace-rotation-factor 1 yes
symmetries automatic
symmetry-threshold 0.0001



---------- Setting up symmetries ----------

Found 24 point-group symmetries of the bravais lattice
Found 24 space-group symmetries with basis
Applied RMS atom displacement 0 bohrs to make symmetries exact.

---------- Initializing the Grid ----------
R = 
[      14.1825     -7.09123            0  ]
[            0      12.2824            0  ]
[            0            0           40  ]
unit cell volume = 6967.77
G =
[   0.443025   0.255781         -0  ]
[          0   0.511561         -0  ]
[         -0         -0    0.15708  ]
Minimum fftbox size, Smin = [  60  60  164  ]
Chosen fftbox size, S = [  60  60  168  ]

---------- Exchange Correlation functional ----------
Initalized PBE GGA exchange.
Initalized PBE GGA correlation.

---------- Setting up pseudopotentials ----------
Width of ionic core gaussian charges (only for fluid interactions / plotting) set to 0

Reading pseudopotential file '/home/gridsan/aligho/DFT/build-Nov24/pseudopotentials/SG15/K_ONCV_PBE.upf':
  'K' pseudopotential, 'PBE' functional
  Generated using ONCVPSP code by D. R. Hamann
  Author: Martin Schlipf and Francois Gygi  Date: 150915.
  9 valence electrons, 3 orbitals, 6 projectors, 2222 radial grid points, with lMax = 2
  Transforming local potential to a uniform radial grid of dG=0.02 with 1489 points.
  Transforming nonlocal projectors to a uniform radial grid of dG=0.02 with 432 points.
    3S    l: 0   occupation:  2.0   eigenvalue: -1.298836
    3P    l: 1   occupation:  6.0   eigenvalue: -0.691386
    4S    l: 0   occupation:  1.0   eigenvalue: -0.085223
  Transforming atomic orbitals to a uniform radial grid of dG=0.02 with 432 points.
  Core radius for overlap checks: 2.06 bohrs.
  Reading pulay file /home/gridsan/aligho/DFT/build-Nov24/pseudopotentials/SG15/K_ONCV_PBE.pulay ... using dE_dnG = -1.597219e-05 computed for Ecut = 20.

Initialized 1 species with 1 total atoms.

Folded 1 k-points by 12x12x1 to 144 k-points.

---------- Setting up k-points, bands, fillings ----------
Reduced to 19 k-points under symmetry. 
Computing the number of bands and number of electrons
Calculating initial fillings.
nElectrons:   9.000000   nBands: 6   nStates: 38

----- Setting up reduced wavefunction bases (one per k-point) -----
average nbasis = 29766.104 , ideal nbasis = 29766.845

---------- Setting up coulomb interaction ----------
Initialized slab truncation along lattice direction 001

---------- Setting up 2D ewald sum ----------
Optimum gaussian width for ewald sums = 7.873530 bohr.
Real space sums over 289 unit cells with max indices [  8  8  0  ]
Reciprocal space sums over 81 terms with max indices [  4  4  0  ]

---------- Allocating electronic variables ----------
Initializing wave functions:  linear combination of atomic orbitals
Note: number of bands (6) exceeds available atomic orbitals (5)
K pseudo-atom occupations:   s ( 2 1 )  p ( 6 )
	FillingsUpdate:  mu: -0.086365919  nElectrons: 9.000000  magneticMoment: [ Abs: 0.08000  Tot: -0.08000 ]
LCAOMinimize: Iter:   0  F: -28.3829193312368879  |grad|_K:  1.875e-05  alpha:  1.000e+00
	FillingsUpdate:  mu: -0.086362277  nElectrons: 9.000000  magneticMoment: [ Abs: 0.08000  Tot: -0.08000 ]
LCAOMinimize: Iter:   1  F: -28.3829195687037839  |grad|_K:  1.394e-07  alpha:  9.878e-01  linmin: -1.533e-02  cgtest:  4.822e-01  t[s]:      8.67
LCAOMinimize: Encountered beta<0, resetting CG.
	FillingsUpdate:  mu: -0.086362276  nElectrons: 9.000000  magneticMoment: [ Abs: 0.08000  Tot: -0.08000 ]
LCAOMinimize: Iter:   2  F: -28.3829195687172415  |grad|_K:  6.668e-10  alpha:  9.962e-01  linmin: -3.900e-02  cgtest:  9.403e-01  t[s]:     11.07
LCAOMinimize: Encountered beta<0, resetting CG.
LCAOMinimize: Converged (|Delta F|<1.000000e-06 for 2 iters).


---- Citations for features of the code used in this run ----

   Software package:
      R. Sundararaman, K. Letchworth-Weaver, K.A. Schwarz, D. Gunceler, Y. Ozhabes and T.A. Arias, 'JDFTx: software for joint density-functional theory', SoftwareX 6, 278 (2017)

   gga-PBE exchange-correlation functional:
      J.P. Perdew, K. Burke and M. Ernzerhof, Phys. Rev. Lett. 77, 3865 (1996)

   Pseudopotentials:
      M Schlipf and F Gygi, Comput. Phys. Commun. 196, 36 (2015)

   Truncated Coulomb potentials:
      R. Sundararaman and T.A. Arias, Phys. Rev. B 87, 165122 (2013)

This list may not be complete. Please suggest additional citations or
report any other bugs at https://github.com/shankar1729/jdftx/issues

Initialization completed successfully at t[s]:     11.23


-------- Electronic minimization -----------
Will mix electronic density at each iteration.
	FillingsUpdate:  mu: -0.086362276  nElectrons: 9.000000  magneticMoment: [ Abs: 0.08000  Tot: -0.08000 ]
	FillingsUpdate:  mu: -0.088298452  nElectrons: 9.000000  magneticMoment: [ Abs: 0.08000  Tot: -0.08000 ]
SCF: Cycle:  0   F: -28.384420693840667   dF: -1.501e-03   |Residual|: 3.316e-03   |deigs|: 1.746e-01  t[s]:     15.95
	FillingsUpdate:  mu: -0.088521895  nElectrons: 9.000000  magneticMoment: [ Abs: 0.08000  Tot: -0.08000 ]
SCF: Cycle:  1   F: -28.384442063805334   dF: -2.137e-05   |Residual|: 2.873e-03   |deigs|: 4.616e-03  t[s]:     19.64
	FillingsUpdate:  mu: -0.089302002  nElectrons: 9.000000  magneticMoment: [ Abs: 0.08159  Tot: -0.08000 ]
SCF: Cycle:  2   F: -28.384474969927894   dF: -3.291e-05   |Residual|: 1.194e-03   |deigs|: 3.535e-03  t[s]:     23.48
	FillingsUpdate:  mu: -0.089359925  nElectrons: 9.000000  magneticMoment: [ Abs: 0.08017  Tot: -0.08000 ]
SCF: Cycle:  3   F: -28.384482924033499   dF: -7.954e-06   |Residual|: 7.419e-04   |deigs|: 1.997e-03  t[s]:     27.31
	FillingsUpdate:  mu: -0.089312949  nElectrons: 9.000000  magneticMoment: [ Abs: 0.08011  Tot: -0.08000 ]
SCF: Cycle:  4   F: -28.384487976479747   dF: -5.052e-06   |Residual|: 4.986e-04   |deigs|: 2.145e-03  t[s]:     31.12
	FillingsUpdate:  mu: -0.089257904  nElectrons: 9.000000  magneticMoment: [ Abs: 0.08010  Tot: -0.08000 ]
SCF: Cycle:  5   F: -28.384490943165993   dF: -2.967e-06   |Residual|: 3.559e-04   |deigs|: 1.928e-03  t[s]:     35.04
	FillingsUpdate:  mu: -0.089084621  nElectrons: 9.000000  magneticMoment: [ Abs: 0.08007  Tot: -0.08000 ]
SCF: Cycle:  6   F: -28.384492406870930   dF: -1.464e-06   |Residual|: 2.807e-04   |deigs|: 1.701e-03  t[s]:     39.01
	FillingsUpdate:  mu: -0.088872159  nElectrons: 9.000000  magneticMoment: [ Abs: 0.08028  Tot: -0.08000 ]
SCF: Cycle:  7   F: -28.384493018100567   dF: -6.112e-07   |Residual|: 2.172e-04   |deigs|: 4.803e-04  t[s]:     43.03
	FillingsUpdate:  mu: -0.088711938  nElectrons: 9.000000  magneticMoment: [ Abs: 0.08041  Tot: -0.08000 ]
SCF: Cycle:  8   F: -28.384493105126843   dF: -8.703e-08   |Residual|: 1.827e-04   |deigs|: 7.035e-04  t[s]:     47.14
	FillingsUpdate:  mu: -0.088530871  nElectrons: 9.000000  magneticMoment: [ Abs: 0.08037  Tot: -0.08000 ]
SCF: Cycle:  9   F: -28.384493308516937   dF: -2.034e-07   |Residual|: 1.609e-04   |deigs|: 3.916e-04  t[s]:     51.31
	FillingsUpdate:  mu: -0.088314379  nElectrons: 9.000000  magneticMoment: [ Abs: 0.08034  Tot: -0.08000 ]
SCF: Cycle: 10   F: -28.384493472851187   dF: -1.643e-07   |Residual|: 1.345e-04   |deigs|: 2.727e-04  t[s]:     55.57
	FillingsUpdate:  mu: -0.088123525  nElectrons: 9.000000  magneticMoment: [ Abs: 0.08044  Tot: -0.08000 ]
SCF: Cycle: 11   F: -28.384493529998558   dF: -5.715e-08   |Residual|: 1.177e-04   |deigs|: 1.816e-04  t[s]:     59.85
	FillingsUpdate:  mu: -0.087953778  nElectrons: 9.000000  magneticMoment: [ Abs: 0.08032  Tot: -0.08000 ]
SCF: Cycle: 12   F: -28.384493550292909   dF: -2.029e-08   |Residual|: 1.022e-04   |deigs|: 3.138e-04  t[s]:     64.19
	FillingsUpdate:  mu: -0.087782644  nElectrons: 9.000000  magneticMoment: [ Abs: 0.08020  Tot: -0.08000 ]
SCF: Cycle: 13   F: -28.384493358608058   dF: +1.917e-07   |Residual|: 1.010e-04   |deigs|: 2.287e-04  t[s]:     68.47
	FillingsUpdate:  mu: -0.087598852  nElectrons: 9.000000  magneticMoment: [ Abs: 0.08037  Tot: -0.08000 ]
SCF: Cycle: 14   F: -28.384493624959703   dF: -2.664e-07   |Residual|: 9.260e-05   |deigs|: 2.166e-04  t[s]:     72.68
	FillingsUpdate:  mu: -0.087492502  nElectrons: 9.000000  magneticMoment: [ Abs: 0.08055  Tot: -0.08000 ]
SCF: Cycle: 15   F: -28.384494074539933   dF: -4.496e-07   |Residual|: 8.132e-05   |deigs|: 1.984e-04  t[s]:     76.98
	FillingsUpdate:  mu: -0.087426902  nElectrons: 9.000000  magneticMoment: [ Abs: 0.08028  Tot: -0.08000 ]
SCF: Cycle: 16   F: -28.384494372779059   dF: -2.982e-07   |Residual|: 6.057e-05   |deigs|: 1.416e-04  t[s]:     81.17
	FillingsUpdate:  mu: -0.087326952  nElectrons: 9.000000  magneticMoment: [ Abs: 0.08018  Tot: -0.08000 ]
SCF: Cycle: 17   F: -28.384494492768326   dF: -1.200e-07   |Residual|: 3.700e-05   |deigs|: 1.330e-04  t[s]:     85.41
	FillingsUpdate:  mu: -0.087307999  nElectrons: 9.000000  magneticMoment: [ Abs: 0.08018  Tot: -0.08000 ]
SCF: Cycle: 18   F: -28.384494544059407   dF: -5.129e-08   |Residual|: 2.296e-05   |deigs|: 6.383e-05  t[s]:     89.70
	FillingsUpdate:  mu: -0.087305372  nElectrons: 9.000000  magneticMoment: [ Abs: 0.08016  Tot: -0.08000 ]
SCF: Cycle: 19   F: -28.384494568009906   dF: -2.395e-08   |Residual|: 1.349e-05   |deigs|: 6.425e-05  t[s]:     93.85
	FillingsUpdate:  mu: -0.087305111  nElectrons: 9.000000  magneticMoment: [ Abs: 0.08015  Tot: -0.08000 ]
SCF: Cycle: 20   F: -28.384494582729978   dF: -1.472e-08   |Residual|: 7.231e-06   |deigs|: 5.904e-05  t[s]:     98.10
	FillingsUpdate:  mu: -0.087303346  nElectrons: 9.000000  magneticMoment: [ Abs: 0.08014  Tot: -0.08000 ]
SCF: Cycle: 21   F: -28.384494590396173   dF: -7.666e-09   |Residual|: 5.382e-06   |deigs|: 6.743e-05  t[s]:    102.08
	FillingsUpdate:  mu: -0.087303076  nElectrons: 9.000000  magneticMoment: [ Abs: 0.08014  Tot: -0.08000 ]
SCF: Cycle: 22   F: -28.384494594427274   dF: -4.031e-09   |Residual|: 2.819e-06   |deigs|: 6.076e-05  t[s]:    106.21
SCF: Converged (|Delta E|<1.000000e-08 for 2 iters).


# Ionic positions in lattice coordinates:
ion K   0.000000000000000   0.000000000000000   0.000000000000000 0

# Forces in Lattice coordinates:
force K  -0.000000000000000   0.000000000000000   0.000000000000000 0

# Energy components:
   Eewald =      -12.0320174002217755
       EH =       10.7059376503759065
     Eloc =      -29.9000860561981945
      Enl =       -2.7720729603467213
   Epulay =       -0.0000000016982517
      Exc =       -4.2362673098696657
       KE =        9.8500126141483619
-------------------------------------
     Etot =      -28.3844934638103439
       TS =        0.0000011306169286
-------------------------------------
        F =      -28.3844945944272737

IonicMinimize: Iter:   0  F: -28.384494594427274  |grad|_K:  0.000e+00  t[s]:    106.46
IonicMinimize: Converged (|grad|_K<1.000000e-04).

#--- Lowdin population analysis ---
# oxidation-state K +0.026
# magnetic-moments K -0.076

End date and time: Sat Feb  5 23:44:55 2022  (Duration: 0-0:01:46.50)
Done!
