
*************** JDFTx 1.6.0 (git hash 42ebbcc2) ***************

Start date and time: Sat Feb  5 23:44:09 2022
Executable jdftx with command-line: -i Alkali.in
Running on hosts (process indices):  d-16-5-2 (0-18)
Divided in process groups (process indices):  0 (0)  1 (1)  2 (2)  3 (3)  4 (4)  5 (5)  6 (6)  7 (7)  8 (8)  9 (9)  10 (10)  11 (11)  12 (12)  13 (13)  14 (14)  15 (15)  16 (16)  17 (17)  18 (18)
Resource initialization completed at t[s]:      0.00
Run totals: 19 processes, 48 threads, 0 GPUs


Input parsed successfully to the following command list (including defaults):

basis kpoint-dependent
coords-type Lattice
core-overlap-check vector
coulomb-interaction Slab 001
davidson-band-ratio 1.1
dump End None
dump-name $INPUT.$VAR
elec-cutoff 20
elec-eigen-algo Davidson
elec-ex-corr gga-PBE
elec-initial-magnetization 0.260000 yes
elec-smearing Fermi 1e-05
electronic-minimize  \
	dirUpdateScheme      FletcherReeves \
	linminMethod         DirUpdateRecommended \
	nIterations          100 \
	history              15 \
	knormThreshold       0 \
	energyDiffThreshold  1e-08 \
	nEnergyDiff          2 \
	alphaTstart          1 \
	alphaTmin            1e-10 \
	updateTestStepSize   yes \
	alphaTreduceFactor   0.1 \
	alphaTincreaseFactor 3 \
	nAlphaAdjustMax      3 \
	wolfeEnergy          0.0001 \
	wolfeGradient        0.9 \
	fdTest               no
electronic-scf  \
	nIterations	10000 \
	energyDiffThreshold	1e-08 \
	residualThreshold	1e-07 \
	mixFraction	0.5 \
	qMetric	0.8 \
	history	10 \
	nEigSteps	2 \
	eigDiffThreshold	1e-08 \
	mixedVariable	Density \
	qKerker	0.8 \
	qKappa	-1 \
	verbose	no \
	mixFractionMag	1.5
exchange-regularization WignerSeitzTruncated
fluid None
fluid-ex-corr (null) lda-PZ
fluid-gummel-loop 10 1.000000e-05
fluid-minimize  \
	dirUpdateScheme      PolakRibiere \
	linminMethod         DirUpdateRecommended \
	nIterations          100 \
	history              15 \
	knormThreshold       0 \
	energyDiffThreshold  0 \
	nEnergyDiff          2 \
	alphaTstart          1 \
	alphaTmin            1e-10 \
	updateTestStepSize   yes \
	alphaTreduceFactor   0.1 \
	alphaTincreaseFactor 3 \
	nAlphaAdjustMax      3 \
	wolfeEnergy          0.0001 \
	wolfeGradient        0.9 \
	fdTest               no
fluid-solvent H2O 55.338 ScalarEOS \
	epsBulk 78.4 \
	pMol 0.92466 \
	epsInf 1.77 \
	Pvap 1.06736e-10 \
	sigmaBulk 4.62e-05 \
	Rvdw 2.61727 \
	Res 1.42 \
	tauNuc 343133 \
	poleEl 15 7 1
forces-output-coords Positions
ion K   0.000000000000000   0.000000000000000   0.000000000000000 0
ion-species SG15/$ID_ONCV_PBE.upf
ion-width 0
ionic-minimize  \
	dirUpdateScheme      L-BFGS \
	linminMethod         DirUpdateRecommended \
	nIterations          0 \
	history              15 \
	knormThreshold       0.0001 \
	energyDiffThreshold  1e-06 \
	nEnergyDiff          2 \
	alphaTstart          1 \
	alphaTmin            1e-10 \
	updateTestStepSize   yes \
	alphaTreduceFactor   0.1 \
	alphaTincreaseFactor 3 \
	nAlphaAdjustMax      3 \
	wolfeEnergy          0.0001 \
	wolfeGradient        0.9 \
	fdTest               no
kpoint   0.000000000000   0.000000000000   0.000000000000  1.00000000000000
kpoint-folding 12 12 1 
latt-move-scale 1 1 1
latt-scale 3 3 1 
lattice  \
	   4.727486978767153   -2.363743489383575    0.000000000000000  \
	  -0.000000000000000    4.094123819672498    0.000000000000000  \
	   0.000000000000000    0.000000000000000   40.000000000000000 
lattice-minimize  \
	dirUpdateScheme      L-BFGS \
	linminMethod         DirUpdateRecommended \
	nIterations          0 \
	history              15 \
	knormThreshold       0 \
	energyDiffThreshold  1e-06 \
	nEnergyDiff          2 \
	alphaTstart          1 \
	alphaTmin            1e-10 \
	updateTestStepSize   yes \
	alphaTreduceFactor   0.1 \
	alphaTincreaseFactor 3 \
	nAlphaAdjustMax      3 \
	wolfeEnergy          0.0001 \
	wolfeGradient        0.9 \
	fdTest               no
lcao-params -1 1e-06 1e-05
pcm-variant GLSSA13
spintype z-spin
subspace-rotation-factor 1 yes
symmetries automatic
symmetry-threshold 0.0001



---------- Setting up symmetries ----------

Found 24 point-group symmetries of the bravais lattice
Found 24 space-group symmetries with basis
Applied RMS atom displacement 0 bohrs to make symmetries exact.

---------- Initializing the Grid ----------
R = 
[      14.1825     -7.09123            0  ]
[            0      12.2824            0  ]
[            0            0           40  ]
unit cell volume = 6967.77
G =
[   0.443025   0.255781         -0  ]
[          0   0.511561         -0  ]
[         -0         -0    0.15708  ]
Minimum fftbox size, Smin = [  60  60  164  ]
Chosen fftbox size, S = [  60  60  168  ]

---------- Exchange Correlation functional ----------
Initalized PBE GGA exchange.
Initalized PBE GGA correlation.

---------- Setting up pseudopotentials ----------
Width of ionic core gaussian charges (only for fluid interactions / plotting) set to 0

Reading pseudopotential file '/home/gridsan/aligho/DFT/build-Nov24/pseudopotentials/SG15/K_ONCV_PBE.upf':
  'K' pseudopotential, 'PBE' functional
  Generated using ONCVPSP code by D. R. Hamann
  Author: Martin Schlipf and Francois Gygi  Date: 150915.
  9 valence electrons, 3 orbitals, 6 projectors, 2222 radial grid points, with lMax = 2
  Transforming local potential to a uniform radial grid of dG=0.02 with 1489 points.
  Transforming nonlocal projectors to a uniform radial grid of dG=0.02 with 432 points.
    3S    l: 0   occupation:  2.0   eigenvalue: -1.298836
    3P    l: 1   occupation:  6.0   eigenvalue: -0.691386
    4S    l: 0   occupation:  1.0   eigenvalue: -0.085223
  Transforming atomic orbitals to a uniform radial grid of dG=0.02 with 432 points.
  Core radius for overlap checks: 2.06 bohrs.
  Reading pulay file /home/gridsan/aligho/DFT/build-Nov24/pseudopotentials/SG15/K_ONCV_PBE.pulay ... using dE_dnG = -1.597219e-05 computed for Ecut = 20.

Initialized 1 species with 1 total atoms.

Folded 1 k-points by 12x12x1 to 144 k-points.

---------- Setting up k-points, bands, fillings ----------
Reduced to 19 k-points under symmetry. 
Computing the number of bands and number of electrons
Calculating initial fillings.
nElectrons:   9.000000   nBands: 6   nStates: 38

----- Setting up reduced wavefunction bases (one per k-point) -----
average nbasis = 29766.104 , ideal nbasis = 29766.845

---------- Setting up coulomb interaction ----------
Initialized slab truncation along lattice direction 001

---------- Setting up 2D ewald sum ----------
Optimum gaussian width for ewald sums = 7.873530 bohr.
Real space sums over 289 unit cells with max indices [  8  8  0  ]
Reciprocal space sums over 81 terms with max indices [  4  4  0  ]

---------- Allocating electronic variables ----------
Initializing wave functions:  linear combination of atomic orbitals
Note: number of bands (6) exceeds available atomic orbitals (5)
K pseudo-atom occupations:   s ( 2 1 )  p ( 6 )
	FillingsUpdate:  mu: -0.087732457  nElectrons: 9.000000  magneticMoment: [ Abs: 0.26000  Tot: +0.26000 ]
LCAOMinimize: Iter:   0  F: -28.3828585448114765  |grad|_K:  1.783e-05  alpha:  1.000e+00
	FillingsUpdate:  mu: -0.087729064  nElectrons: 9.000000  magneticMoment: [ Abs: 0.26000  Tot: +0.26000 ]
LCAOMinimize: Iter:   1  F: -28.3828587597032325  |grad|_K:  1.304e-07  alpha:  9.883e-01  linmin: -1.469e-02  cgtest:  4.576e-01  t[s]:      8.85
LCAOMinimize: Encountered beta<0, resetting CG.
	FillingsUpdate:  mu: -0.087729064  nElectrons: 9.000000  magneticMoment: [ Abs: 0.26000  Tot: +0.26000 ]
LCAOMinimize: Iter:   2  F: -28.3828587597151341  |grad|_K:  8.625e-10  alpha:  1.007e+00  linmin:  4.621e-02  cgtest: -9.476e-01  t[s]:     11.24
LCAOMinimize: Converged (|Delta F|<1.000000e-06 for 2 iters).


---- Citations for features of the code used in this run ----

   Software package:
      R. Sundararaman, K. Letchworth-Weaver, K.A. Schwarz, D. Gunceler, Y. Ozhabes and T.A. Arias, 'JDFTx: software for joint density-functional theory', SoftwareX 6, 278 (2017)

   gga-PBE exchange-correlation functional:
      J.P. Perdew, K. Burke and M. Ernzerhof, Phys. Rev. Lett. 77, 3865 (1996)

   Pseudopotentials:
      M Schlipf and F Gygi, Comput. Phys. Commun. 196, 36 (2015)

   Truncated Coulomb potentials:
      R. Sundararaman and T.A. Arias, Phys. Rev. B 87, 165122 (2013)

This list may not be complete. Please suggest additional citations or
report any other bugs at https://github.com/shankar1729/jdftx/issues

Initialization completed successfully at t[s]:     11.40


-------- Electronic minimization -----------
Will mix electronic density at each iteration.
	FillingsUpdate:  mu: -0.087729064  nElectrons: 9.000000  magneticMoment: [ Abs: 0.26000  Tot: +0.26000 ]
	FillingsUpdate:  mu: -0.089288213  nElectrons: 9.000000  magneticMoment: [ Abs: 0.26000  Tot: +0.26000 ]
SCF: Cycle:  0   F: -28.384296144911254   dF: -1.437e-03   |Residual|: 3.363e-03   |deigs|: 1.745e-01  t[s]:     16.24
	FillingsUpdate:  mu: -0.089489224  nElectrons: 9.000000  magneticMoment: [ Abs: 0.26000  Tot: +0.26000 ]
SCF: Cycle:  1   F: -28.384323550579648   dF: -2.741e-05   |Residual|: 2.822e-03   |deigs|: 4.624e-03  t[s]:     19.95
	FillingsUpdate:  mu: -0.089911949  nElectrons: 9.000000  magneticMoment: [ Abs: 0.26132  Tot: +0.26000 ]
SCF: Cycle:  2   F: -28.384351125657506   dF: -2.758e-05   |Residual|: 1.725e-03   |deigs|: 2.681e-03  t[s]:     23.82
	FillingsUpdate:  mu: -0.090209026  nElectrons: 9.000000  magneticMoment: [ Abs: 0.26088  Tot: +0.26000 ]
SCF: Cycle:  3   F: -28.384363814336279   dF: -1.269e-05   |Residual|: 9.475e-04   |deigs|: 2.481e-03  t[s]:     27.74
	FillingsUpdate:  mu: -0.090225082  nElectrons: 9.000000  magneticMoment: [ Abs: 0.26025  Tot: +0.26000 ]
SCF: Cycle:  4   F: -28.384370712321168   dF: -6.898e-06   |Residual|: 5.438e-04   |deigs|: 2.391e-03  t[s]:     31.71
	FillingsUpdate:  mu: -0.090209881  nElectrons: 9.000000  magneticMoment: [ Abs: 0.26042  Tot: +0.26000 ]
SCF: Cycle:  5   F: -28.384374782210010   dF: -4.070e-06   |Residual|: 3.935e-04   |deigs|: 1.961e-03  t[s]:     35.68
	FillingsUpdate:  mu: -0.090089245  nElectrons: 9.000000  magneticMoment: [ Abs: 0.26038  Tot: +0.26000 ]
SCF: Cycle:  6   F: -28.384376854480493   dF: -2.072e-06   |Residual|: 2.806e-04   |deigs|: 1.592e-03  t[s]:     39.73
	FillingsUpdate:  mu: -0.089971833  nElectrons: 9.000000  magneticMoment: [ Abs: 0.26035  Tot: +0.26000 ]
SCF: Cycle:  7   F: -28.384377704264150   dF: -8.498e-07   |Residual|: 2.173e-04   |deigs|: 8.056e-04  t[s]:     43.89
	FillingsUpdate:  mu: -0.089755080  nElectrons: 9.000000  magneticMoment: [ Abs: 0.26100  Tot: +0.26000 ]
SCF: Cycle:  8   F: -28.384378076913343   dF: -3.726e-07   |Residual|: 1.752e-04   |deigs|: 6.589e-04  t[s]:     48.07
	FillingsUpdate:  mu: -0.089580870  nElectrons: 9.000000  magneticMoment: [ Abs: 0.26104  Tot: +0.26000 ]
SCF: Cycle:  9   F: -28.384378101866027   dF: -2.495e-08   |Residual|: 1.663e-04   |deigs|: 3.324e-04  t[s]:     52.37
	FillingsUpdate:  mu: -0.089318654  nElectrons: 9.000000  magneticMoment: [ Abs: 0.26096  Tot: +0.26000 ]
SCF: Cycle: 10   F: -28.384378055746897   dF: +4.612e-08   |Residual|: 1.419e-04   |deigs|: 3.312e-04  t[s]:     56.64
	FillingsUpdate:  mu: -0.089187421  nElectrons: 9.000000  magneticMoment: [ Abs: 0.26103  Tot: +0.26000 ]
SCF: Cycle: 11   F: -28.384378301986235   dF: -2.462e-07   |Residual|: 1.193e-04   |deigs|: 1.829e-04  t[s]:     60.98
	FillingsUpdate:  mu: -0.089053283  nElectrons: 9.000000  magneticMoment: [ Abs: 0.26093  Tot: +0.26000 ]
SCF: Cycle: 12   F: -28.384378646513699   dF: -3.445e-07   |Residual|: 9.884e-05   |deigs|: 1.634e-04  t[s]:     65.33
	FillingsUpdate:  mu: -0.088815776  nElectrons: 9.000000  magneticMoment: [ Abs: 0.26076  Tot: +0.26000 ]
SCF: Cycle: 13   F: -28.384378572461902   dF: +7.405e-08   |Residual|: 9.813e-05   |deigs|: 2.836e-04  t[s]:     69.66
	FillingsUpdate:  mu: -0.088661484  nElectrons: 9.000000  magneticMoment: [ Abs: 0.26041  Tot: +0.26000 ]
SCF: Cycle: 14   F: -28.384378432022885   dF: +1.404e-07   |Residual|: 9.550e-05   |deigs|: 3.996e-04  t[s]:     74.00
	FillingsUpdate:  mu: -0.088501386  nElectrons: 9.000000  magneticMoment: [ Abs: 0.26106  Tot: +0.26000 ]
SCF: Cycle: 15   F: -28.384378898321707   dF: -4.663e-07   |Residual|: 8.089e-05   |deigs|: 3.444e-04  t[s]:     78.31
	FillingsUpdate:  mu: -0.088420774  nElectrons: 9.000000  magneticMoment: [ Abs: 0.26085  Tot: +0.26000 ]
SCF: Cycle: 16   F: -28.384379295753256   dF: -3.974e-07   |Residual|: 6.538e-05   |deigs|: 7.973e-05  t[s]:     82.58
	FillingsUpdate:  mu: -0.088326806  nElectrons: 9.000000  magneticMoment: [ Abs: 0.26040  Tot: +0.26000 ]
SCF: Cycle: 17   F: -28.384379477000337   dF: -1.812e-07   |Residual|: 4.297e-05   |deigs|: 7.964e-05  t[s]:     86.86
	FillingsUpdate:  mu: -0.088274729  nElectrons: 9.000000  magneticMoment: [ Abs: 0.26044  Tot: +0.26000 ]
SCF: Cycle: 18   F: -28.384379573192522   dF: -9.619e-08   |Residual|: 2.828e-05   |deigs|: 4.753e-05  t[s]:     91.20
	FillingsUpdate:  mu: -0.088272324  nElectrons: 9.000000  magneticMoment: [ Abs: 0.26041  Tot: +0.26000 ]
SCF: Cycle: 19   F: -28.384379602155676   dF: -2.896e-08   |Residual|: 1.772e-05   |deigs|: 9.859e-06  t[s]:     95.30
	FillingsUpdate:  mu: -0.088275599  nElectrons: 9.000000  magneticMoment: [ Abs: 0.26042  Tot: +0.26000 ]
SCF: Cycle: 20   F: -28.384379630395433   dF: -2.824e-08   |Residual|: 9.030e-06   |deigs|: 7.963e-06  t[s]:     99.61
	FillingsUpdate:  mu: -0.088274667  nElectrons: 9.000000  magneticMoment: [ Abs: 0.26041  Tot: +0.26000 ]
SCF: Cycle: 21   F: -28.384379640922887   dF: -1.053e-08   |Residual|: 6.144e-06   |deigs|: 4.738e-06  t[s]:    103.76
	FillingsUpdate:  mu: -0.088275357  nElectrons: 9.000000  magneticMoment: [ Abs: 0.26041  Tot: +0.26000 ]
SCF: Cycle: 22   F: -28.384379647093677   dF: -6.171e-09   |Residual|: 3.241e-06   |deigs|: 4.287e-06  t[s]:    107.93
	FillingsUpdate:  mu: -0.088274523  nElectrons: 9.000000  magneticMoment: [ Abs: 0.26041  Tot: +0.26000 ]
SCF: Cycle: 23   F: -28.384379650853575   dF: -3.760e-09   |Residual|: 2.063e-06   |deigs|: 5.405e-06  t[s]:    112.00
SCF: Converged (|Delta E|<1.000000e-08 for 2 iters).


# Ionic positions in lattice coordinates:
ion K   0.000000000000000   0.000000000000000   0.000000000000000 0

# Forces in Lattice coordinates:
force K  -0.000000000000000   0.000000000000000   0.000000000000000 0

# Energy components:
   Eewald =      -12.0320174002217755
       EH =       10.7100004797384241
     Eloc =      -29.9045779562321670
      Enl =       -2.7718881427620481
   Epulay =       -0.0000000016982517
      Exc =       -4.2368191263387835
       KE =        9.8509229177102640
-------------------------------------
     Etot =      -28.3843792298043383
       TS =        0.0000004210492349
-------------------------------------
        F =      -28.3843796508535746

IonicMinimize: Iter:   0  F: -28.384379650853575  |grad|_K:  0.000e+00  t[s]:    112.26
IonicMinimize: Converged (|grad|_K<1.000000e-04).

#--- Lowdin population analysis ---
# oxidation-state K +0.026
# magnetic-moments K +0.248

End date and time: Sat Feb  5 23:46:01 2022  (Duration: 0-0:01:52.31)
Done!
