
*************** JDFTx 1.6.0 (git hash 42ebbcc2) ***************

Start date and time: Sat Feb  5 23:49:51 2022
Executable jdftx with command-line: -i Alkali.in
Running on hosts (process indices):  d-3-7-3 (0-18)
Divided in process groups (process indices):  0 (0)  1 (1)  2 (2)  3 (3)  4 (4)  5 (5)  6 (6)  7 (7)  8 (8)  9 (9)  10 (10)  11 (11)  12 (12)  13 (13)  14 (14)  15 (15)  16 (16)  17 (17)  18 (18)
Resource initialization completed at t[s]:      0.00
Run totals: 19 processes, 48 threads, 0 GPUs


Input parsed successfully to the following command list (including defaults):

basis kpoint-dependent
coords-type Lattice
core-overlap-check vector
coulomb-interaction Slab 001
davidson-band-ratio 1.1
dump End None
dump-name $INPUT.$VAR
elec-cutoff 20
elec-eigen-algo Davidson
elec-ex-corr gga-PBE
elec-initial-magnetization 0.560000 yes
elec-smearing Fermi 1e-05
electronic-minimize  \
	dirUpdateScheme      FletcherReeves \
	linminMethod         DirUpdateRecommended \
	nIterations          100 \
	history              15 \
	knormThreshold       0 \
	energyDiffThreshold  1e-08 \
	nEnergyDiff          2 \
	alphaTstart          1 \
	alphaTmin            1e-10 \
	updateTestStepSize   yes \
	alphaTreduceFactor   0.1 \
	alphaTincreaseFactor 3 \
	nAlphaAdjustMax      3 \
	wolfeEnergy          0.0001 \
	wolfeGradient        0.9 \
	fdTest               no
electronic-scf  \
	nIterations	10000 \
	energyDiffThreshold	1e-08 \
	residualThreshold	1e-07 \
	mixFraction	0.5 \
	qMetric	0.8 \
	history	10 \
	nEigSteps	2 \
	eigDiffThreshold	1e-08 \
	mixedVariable	Density \
	qKerker	0.8 \
	qKappa	-1 \
	verbose	no \
	mixFractionMag	1.5
exchange-regularization WignerSeitzTruncated
fluid None
fluid-ex-corr (null) lda-PZ
fluid-gummel-loop 10 1.000000e-05
fluid-minimize  \
	dirUpdateScheme      PolakRibiere \
	linminMethod         DirUpdateRecommended \
	nIterations          100 \
	history              15 \
	knormThreshold       0 \
	energyDiffThreshold  0 \
	nEnergyDiff          2 \
	alphaTstart          1 \
	alphaTmin            1e-10 \
	updateTestStepSize   yes \
	alphaTreduceFactor   0.1 \
	alphaTincreaseFactor 3 \
	nAlphaAdjustMax      3 \
	wolfeEnergy          0.0001 \
	wolfeGradient        0.9 \
	fdTest               no
fluid-solvent H2O 55.338 ScalarEOS \
	epsBulk 78.4 \
	pMol 0.92466 \
	epsInf 1.77 \
	Pvap 1.06736e-10 \
	sigmaBulk 4.62e-05 \
	Rvdw 2.61727 \
	Res 1.42 \
	tauNuc 343133 \
	poleEl 15 7 1
forces-output-coords Positions
ion K   0.000000000000000   0.000000000000000   0.000000000000000 0
ion-species SG15/$ID_ONCV_PBE.upf
ion-width 0
ionic-minimize  \
	dirUpdateScheme      L-BFGS \
	linminMethod         DirUpdateRecommended \
	nIterations          0 \
	history              15 \
	knormThreshold       0.0001 \
	energyDiffThreshold  1e-06 \
	nEnergyDiff          2 \
	alphaTstart          1 \
	alphaTmin            1e-10 \
	updateTestStepSize   yes \
	alphaTreduceFactor   0.1 \
	alphaTincreaseFactor 3 \
	nAlphaAdjustMax      3 \
	wolfeEnergy          0.0001 \
	wolfeGradient        0.9 \
	fdTest               no
kpoint   0.000000000000   0.000000000000   0.000000000000  1.00000000000000
kpoint-folding 12 12 1 
latt-move-scale 1 1 1
latt-scale 3 3 1 
lattice  \
	   4.727486978767153   -2.363743489383575    0.000000000000000  \
	  -0.000000000000000    4.094123819672498    0.000000000000000  \
	   0.000000000000000    0.000000000000000   40.000000000000000 
lattice-minimize  \
	dirUpdateScheme      L-BFGS \
	linminMethod         DirUpdateRecommended \
	nIterations          0 \
	history              15 \
	knormThreshold       0 \
	energyDiffThreshold  1e-06 \
	nEnergyDiff          2 \
	alphaTstart          1 \
	alphaTmin            1e-10 \
	updateTestStepSize   yes \
	alphaTreduceFactor   0.1 \
	alphaTincreaseFactor 3 \
	nAlphaAdjustMax      3 \
	wolfeEnergy          0.0001 \
	wolfeGradient        0.9 \
	fdTest               no
lcao-params -1 1e-06 1e-05
pcm-variant GLSSA13
spintype z-spin
subspace-rotation-factor 1 yes
symmetries automatic
symmetry-threshold 0.0001



---------- Setting up symmetries ----------

Found 24 point-group symmetries of the bravais lattice
Found 24 space-group symmetries with basis
Applied RMS atom displacement 0 bohrs to make symmetries exact.

---------- Initializing the Grid ----------
R = 
[      14.1825     -7.09123            0  ]
[            0      12.2824            0  ]
[            0            0           40  ]
unit cell volume = 6967.77
G =
[   0.443025   0.255781         -0  ]
[          0   0.511561         -0  ]
[         -0         -0    0.15708  ]
Minimum fftbox size, Smin = [  60  60  164  ]
Chosen fftbox size, S = [  60  60  168  ]

---------- Exchange Correlation functional ----------
Initalized PBE GGA exchange.
Initalized PBE GGA correlation.

---------- Setting up pseudopotentials ----------
Width of ionic core gaussian charges (only for fluid interactions / plotting) set to 0

Reading pseudopotential file '/home/gridsan/aligho/DFT/build-Nov24/pseudopotentials/SG15/K_ONCV_PBE.upf':
  'K' pseudopotential, 'PBE' functional
  Generated using ONCVPSP code by D. R. Hamann
  Author: Martin Schlipf and Francois Gygi  Date: 150915.
  9 valence electrons, 3 orbitals, 6 projectors, 2222 radial grid points, with lMax = 2
  Transforming local potential to a uniform radial grid of dG=0.02 with 1489 points.
  Transforming nonlocal projectors to a uniform radial grid of dG=0.02 with 432 points.
    3S    l: 0   occupation:  2.0   eigenvalue: -1.298836
    3P    l: 1   occupation:  6.0   eigenvalue: -0.691386
    4S    l: 0   occupation:  1.0   eigenvalue: -0.085223
  Transforming atomic orbitals to a uniform radial grid of dG=0.02 with 432 points.
  Core radius for overlap checks: 2.06 bohrs.
  Reading pulay file /home/gridsan/aligho/DFT/build-Nov24/pseudopotentials/SG15/K_ONCV_PBE.pulay ... using dE_dnG = -1.597219e-05 computed for Ecut = 20.

Initialized 1 species with 1 total atoms.

Folded 1 k-points by 12x12x1 to 144 k-points.

---------- Setting up k-points, bands, fillings ----------
Reduced to 19 k-points under symmetry. 
Computing the number of bands and number of electrons
Calculating initial fillings.
nElectrons:   9.000000   nBands: 6   nStates: 38

----- Setting up reduced wavefunction bases (one per k-point) -----
average nbasis = 29766.104 , ideal nbasis = 29766.845

---------- Setting up coulomb interaction ----------
Initialized slab truncation along lattice direction 001

---------- Setting up 2D ewald sum ----------
Optimum gaussian width for ewald sums = 7.873530 bohr.
Real space sums over 289 unit cells with max indices [  8  8  0  ]
Reciprocal space sums over 81 terms with max indices [  4  4  0  ]

---------- Allocating electronic variables ----------
Initializing wave functions:  linear combination of atomic orbitals
Note: number of bands (6) exceeds available atomic orbitals (5)
K pseudo-atom occupations:   s ( 2 1 )  p ( 6 )
	FillingsUpdate:  mu: -0.087912405  nElectrons: 9.000000  magneticMoment: [ Abs: 0.56000  Tot: +0.56000 ]
LCAOMinimize: Iter:   0  F: -28.3823384807228614  |grad|_K:  1.294e-05  alpha:  1.000e+00
	FillingsUpdate:  mu: -0.087910054  nElectrons: 9.000000  magneticMoment: [ Abs: 0.56000  Tot: +0.56000 ]
LCAOMinimize: Iter:   1  F: -28.3823385941421513  |grad|_K:  8.840e-08  alpha:  9.906e-01  linmin: -1.065e-02  cgtest:  3.099e-01  t[s]:      8.57
LCAOMinimize: Encountered beta<0, resetting CG.
	FillingsUpdate:  mu: -0.087910059  nElectrons: 9.000000  magneticMoment: [ Abs: 0.56000  Tot: +0.56000 ]
LCAOMinimize: Iter:   2  F: -28.3823385941475905  |grad|_K:  2.899e-09  alpha:  1.032e+00  linmin:  7.519e-02  cgtest: -9.902e-01  t[s]:     10.91
LCAOMinimize: Converged (|Delta F|<1.000000e-06 for 2 iters).


---- Citations for features of the code used in this run ----

   Software package:
      R. Sundararaman, K. Letchworth-Weaver, K.A. Schwarz, D. Gunceler, Y. Ozhabes and T.A. Arias, 'JDFTx: software for joint density-functional theory', SoftwareX 6, 278 (2017)

   gga-PBE exchange-correlation functional:
      J.P. Perdew, K. Burke and M. Ernzerhof, Phys. Rev. Lett. 77, 3865 (1996)

   Pseudopotentials:
      M Schlipf and F Gygi, Comput. Phys. Commun. 196, 36 (2015)

   Truncated Coulomb potentials:
      R. Sundararaman and T.A. Arias, Phys. Rev. B 87, 165122 (2013)

This list may not be complete. Please suggest additional citations or
report any other bugs at https://github.com/shankar1729/jdftx/issues

Initialization completed successfully at t[s]:     11.07


-------- Electronic minimization -----------
Will mix electronic density at each iteration.
	FillingsUpdate:  mu: -0.087910059  nElectrons: 9.000000  magneticMoment: [ Abs: 0.56000  Tot: +0.56000 ]
	FillingsUpdate:  mu: -0.088928618  nElectrons: 9.000000  magneticMoment: [ Abs: 0.56000  Tot: +0.56000 ]
SCF: Cycle:  0   F: -28.383584012738957   dF: -1.245e-03   |Residual|: 3.405e-03   |deigs|: 1.742e-01  t[s]:     15.79
	FillingsUpdate:  mu: -0.089073058  nElectrons: 9.000000  magneticMoment: [ Abs: 0.56003  Tot: +0.56000 ]
SCF: Cycle:  1   F: -28.383617514025904   dF: -3.350e-05   |Residual|: 2.558e-03   |deigs|: 4.601e-03  t[s]:     19.41
	FillingsUpdate:  mu: -0.089232339  nElectrons: 9.000000  magneticMoment: [ Abs: 0.56117  Tot: +0.56000 ]
SCF: Cycle:  2   F: -28.383643113186526   dF: -2.560e-05   |Residual|: 1.904e-03   |deigs|: 2.913e-03  t[s]:     23.20
	FillingsUpdate:  mu: -0.089491448  nElectrons: 9.000000  magneticMoment: [ Abs: 0.56141  Tot: +0.56000 ]
SCF: Cycle:  3   F: -28.383661241696782   dF: -1.813e-05   |Residual|: 1.252e-03   |deigs|: 2.024e-03  t[s]:     27.02
	FillingsUpdate:  mu: -0.089631062  nElectrons: 9.000000  magneticMoment: [ Abs: 0.56076  Tot: +0.56000 ]
SCF: Cycle:  4   F: -28.383671933093400   dF: -1.069e-05   |Residual|: 6.885e-04   |deigs|: 2.625e-03  t[s]:     30.84
	FillingsUpdate:  mu: -0.089729183  nElectrons: 9.000000  magneticMoment: [ Abs: 0.56108  Tot: +0.56000 ]
SCF: Cycle:  5   F: -28.383677979383076   dF: -6.046e-06   |Residual|: 4.156e-04   |deigs|: 1.814e-03  t[s]:     34.72
	FillingsUpdate:  mu: -0.089666940  nElectrons: 9.000000  magneticMoment: [ Abs: 0.56081  Tot: +0.56000 ]
SCF: Cycle:  6   F: -28.383681442598835   dF: -3.463e-06   |Residual|: 2.862e-04   |deigs|: 1.063e-03  t[s]:     38.79
	FillingsUpdate:  mu: -0.089568840  nElectrons: 9.000000  magneticMoment: [ Abs: 0.56105  Tot: +0.56000 ]
SCF: Cycle:  7   F: -28.383682786059342   dF: -1.343e-06   |Residual|: 2.298e-04   |deigs|: 6.532e-04  t[s]:     42.84
	FillingsUpdate:  mu: -0.089417310  nElectrons: 9.000000  magneticMoment: [ Abs: 0.56136  Tot: +0.56000 ]
SCF: Cycle:  8   F: -28.383683429977403   dF: -6.439e-07   |Residual|: 1.812e-04   |deigs|: 5.723e-04  t[s]:     46.93
	FillingsUpdate:  mu: -0.089169403  nElectrons: 9.000000  magneticMoment: [ Abs: 0.56190  Tot: +0.56000 ]
SCF: Cycle:  9   F: -28.383683567812547   dF: -1.378e-07   |Residual|: 1.620e-04   |deigs|: 3.253e-04  t[s]:     51.14
	FillingsUpdate:  mu: -0.088987107  nElectrons: 9.000000  magneticMoment: [ Abs: 0.56163  Tot: +0.56000 ]
SCF: Cycle: 10   F: -28.383683665280905   dF: -9.747e-08   |Residual|: 1.443e-04   |deigs|: 1.991e-04  t[s]:     55.43
	FillingsUpdate:  mu: -0.088764772  nElectrons: 9.000000  magneticMoment: [ Abs: 0.56189  Tot: +0.56000 ]
SCF: Cycle: 11   F: -28.383684250343869   dF: -5.851e-07   |Residual|: 1.237e-04   |deigs|: 2.473e-04  t[s]:     59.67
	FillingsUpdate:  mu: -0.088771700  nElectrons: 9.000000  magneticMoment: [ Abs: 0.56160  Tot: +0.56000 ]
SCF: Cycle: 12   F: -28.383684903792062   dF: -6.534e-07   |Residual|: 9.635e-05   |deigs|: 1.155e-04  t[s]:     63.96
	FillingsUpdate:  mu: -0.088532308  nElectrons: 9.000000  magneticMoment: [ Abs: 0.56132  Tot: +0.56000 ]
SCF: Cycle: 13   F: -28.383685115038308   dF: -2.112e-07   |Residual|: 9.191e-05   |deigs|: 2.693e-04  t[s]:     68.25
	FillingsUpdate:  mu: -0.088289329  nElectrons: 9.000000  magneticMoment: [ Abs: 0.56122  Tot: +0.56000 ]
SCF: Cycle: 14   F: -28.383684758908252   dF: +3.561e-07   |Residual|: 9.587e-05   |deigs|: 2.751e-04  t[s]:     72.55
	FillingsUpdate:  mu: -0.088141162  nElectrons: 9.000000  magneticMoment: [ Abs: 0.56155  Tot: +0.56000 ]
SCF: Cycle: 15   F: -28.383685052757496   dF: -2.938e-07   |Residual|: 8.209e-05   |deigs|: 2.025e-04  t[s]:     76.77
	FillingsUpdate:  mu: -0.088058129  nElectrons: 9.000000  magneticMoment: [ Abs: 0.56136  Tot: +0.56000 ]
SCF: Cycle: 16   F: -28.383685528590043   dF: -4.758e-07   |Residual|: 6.675e-05   |deigs|: 1.065e-04  t[s]:     81.06
	FillingsUpdate:  mu: -0.087941075  nElectrons: 9.000000  magneticMoment: [ Abs: 0.56104  Tot: +0.56000 ]
SCF: Cycle: 17   F: -28.383685705699417   dF: -1.771e-07   |Residual|: 5.276e-05   |deigs|: 1.426e-04  t[s]:     85.22
	FillingsUpdate:  mu: -0.087889086  nElectrons: 9.000000  magneticMoment: [ Abs: 0.56099  Tot: +0.56000 ]
SCF: Cycle: 18   F: -28.383685943917456   dF: -2.382e-07   |Residual|: 3.003e-05   |deigs|: 2.905e-04  t[s]:     89.44
	FillingsUpdate:  mu: -0.087894381  nElectrons: 9.000000  magneticMoment: [ Abs: 0.56100  Tot: +0.56000 ]
SCF: Cycle: 19   F: -28.383686003073638   dF: -5.916e-08   |Residual|: 1.988e-05   |deigs|: 8.425e-05  t[s]:     93.59
	FillingsUpdate:  mu: -0.087893248  nElectrons: 9.000000  magneticMoment: [ Abs: 0.56097  Tot: +0.56000 ]
SCF: Cycle: 20   F: -28.383686034478355   dF: -3.140e-08   |Residual|: 1.179e-05   |deigs|: 5.214e-05  t[s]:     97.76
	FillingsUpdate:  mu: -0.087895539  nElectrons: 9.000000  magneticMoment: [ Abs: 0.56097  Tot: +0.56000 ]
SCF: Cycle: 21   F: -28.383686060027166   dF: -2.555e-08   |Residual|: 6.430e-06   |deigs|: 4.135e-05  t[s]:    101.97
	FillingsUpdate:  mu: -0.087894667  nElectrons: 9.000000  magneticMoment: [ Abs: 0.56097  Tot: +0.56000 ]
SCF: Cycle: 22   F: -28.383686070360820   dF: -1.033e-08   |Residual|: 3.616e-06   |deigs|: 3.972e-05  t[s]:    105.82
	FillingsUpdate:  mu: -0.087891830  nElectrons: 9.000000  magneticMoment: [ Abs: 0.56098  Tot: +0.56000 ]
SCF: Cycle: 23   F: -28.383686076022617   dF: -5.662e-09   |Residual|: 2.499e-06   |deigs|: 4.006e-05  t[s]:    109.90
	FillingsUpdate:  mu: -0.087891944  nElectrons: 9.000000  magneticMoment: [ Abs: 0.56098  Tot: +0.56000 ]
SCF: Cycle: 24   F: -28.383686079822471   dF: -3.800e-09   |Residual|: 1.788e-06   |deigs|: 4.189e-05  t[s]:    113.94
SCF: Converged (|Delta E|<1.000000e-08 for 2 iters).


# Ionic positions in lattice coordinates:
ion K   0.000000000000000   0.000000000000000   0.000000000000000 0

# Forces in Lattice coordinates:
force K  -0.000000000000000   0.000000000000000   0.000000000000000 0

# Energy components:
   Eewald =      -12.0320174002217755
       EH =       10.7277089584367005
     Eloc =      -29.9242042209839418
      Enl =       -2.7710540467833469
   Epulay =       -0.0000000016982517
      Exc =       -4.2392219805823057
       KE =        9.8551032507534497
-------------------------------------
     Etot =      -28.3836854410794714
       TS =        0.0000006387429984
-------------------------------------
        F =      -28.3836860798224713

IonicMinimize: Iter:   0  F: -28.383686079822471  |grad|_K:  0.000e+00  t[s]:    114.19
IonicMinimize: Converged (|grad|_K<1.000000e-04).

#--- Lowdin population analysis ---
# oxidation-state K +0.026
# magnetic-moments K +0.539

End date and time: Sat Feb  5 23:51:46 2022  (Duration: 0-0:01:54.23)
Done!
