
*************** JDFTx 1.6.0 (git hash 42ebbcc2) ***************

Start date and time: Sat Feb  5 23:56:11 2022
Executable jdftx with command-line: -i Alkali.in
Running on hosts (process indices):  d-4-5-2 (0-18)
Divided in process groups (process indices):  0 (0)  1 (1)  2 (2)  3 (3)  4 (4)  5 (5)  6 (6)  7 (7)  8 (8)  9 (9)  10 (10)  11 (11)  12 (12)  13 (13)  14 (14)  15 (15)  16 (16)  17 (17)  18 (18)
Resource initialization completed at t[s]:      0.00
Run totals: 19 processes, 48 threads, 0 GPUs


Input parsed successfully to the following command list (including defaults):

basis kpoint-dependent
coords-type Lattice
core-overlap-check vector
coulomb-interaction Slab 001
davidson-band-ratio 1.1
dump End None
dump-name $INPUT.$VAR
elec-cutoff 20
elec-eigen-algo Davidson
elec-ex-corr gga-PBE
elec-initial-magnetization 0.880000 yes
elec-smearing Fermi 1e-05
electronic-minimize  \
	dirUpdateScheme      FletcherReeves \
	linminMethod         DirUpdateRecommended \
	nIterations          100 \
	history              15 \
	knormThreshold       0 \
	energyDiffThreshold  1e-08 \
	nEnergyDiff          2 \
	alphaTstart          1 \
	alphaTmin            1e-10 \
	updateTestStepSize   yes \
	alphaTreduceFactor   0.1 \
	alphaTincreaseFactor 3 \
	nAlphaAdjustMax      3 \
	wolfeEnergy          0.0001 \
	wolfeGradient        0.9 \
	fdTest               no
electronic-scf  \
	nIterations	10000 \
	energyDiffThreshold	1e-08 \
	residualThreshold	1e-07 \
	mixFraction	0.5 \
	qMetric	0.8 \
	history	10 \
	nEigSteps	2 \
	eigDiffThreshold	1e-08 \
	mixedVariable	Density \
	qKerker	0.8 \
	qKappa	-1 \
	verbose	no \
	mixFractionMag	1.5
exchange-regularization WignerSeitzTruncated
fluid None
fluid-ex-corr (null) lda-PZ
fluid-gummel-loop 10 1.000000e-05
fluid-minimize  \
	dirUpdateScheme      PolakRibiere \
	linminMethod         DirUpdateRecommended \
	nIterations          100 \
	history              15 \
	knormThreshold       0 \
	energyDiffThreshold  0 \
	nEnergyDiff          2 \
	alphaTstart          1 \
	alphaTmin            1e-10 \
	updateTestStepSize   yes \
	alphaTreduceFactor   0.1 \
	alphaTincreaseFactor 3 \
	nAlphaAdjustMax      3 \
	wolfeEnergy          0.0001 \
	wolfeGradient        0.9 \
	fdTest               no
fluid-solvent H2O 55.338 ScalarEOS \
	epsBulk 78.4 \
	pMol 0.92466 \
	epsInf 1.77 \
	Pvap 1.06736e-10 \
	sigmaBulk 4.62e-05 \
	Rvdw 2.61727 \
	Res 1.42 \
	tauNuc 343133 \
	poleEl 15 7 1
forces-output-coords Positions
ion K   0.000000000000000   0.000000000000000   0.000000000000000 0
ion-species SG15/$ID_ONCV_PBE.upf
ion-width 0
ionic-minimize  \
	dirUpdateScheme      L-BFGS \
	linminMethod         DirUpdateRecommended \
	nIterations          0 \
	history              15 \
	knormThreshold       0.0001 \
	energyDiffThreshold  1e-06 \
	nEnergyDiff          2 \
	alphaTstart          1 \
	alphaTmin            1e-10 \
	updateTestStepSize   yes \
	alphaTreduceFactor   0.1 \
	alphaTincreaseFactor 3 \
	nAlphaAdjustMax      3 \
	wolfeEnergy          0.0001 \
	wolfeGradient        0.9 \
	fdTest               no
kpoint   0.000000000000   0.000000000000   0.000000000000  1.00000000000000
kpoint-folding 12 12 1 
latt-move-scale 1 1 1
latt-scale 3 3 1 
lattice  \
	   4.727486978767153   -2.363743489383575    0.000000000000000  \
	  -0.000000000000000    4.094123819672498    0.000000000000000  \
	   0.000000000000000    0.000000000000000   40.000000000000000 
lattice-minimize  \
	dirUpdateScheme      L-BFGS \
	linminMethod         DirUpdateRecommended \
	nIterations          0 \
	history              15 \
	knormThreshold       0 \
	energyDiffThreshold  1e-06 \
	nEnergyDiff          2 \
	alphaTstart          1 \
	alphaTmin            1e-10 \
	updateTestStepSize   yes \
	alphaTreduceFactor   0.1 \
	alphaTincreaseFactor 3 \
	nAlphaAdjustMax      3 \
	wolfeEnergy          0.0001 \
	wolfeGradient        0.9 \
	fdTest               no
lcao-params -1 1e-06 1e-05
pcm-variant GLSSA13
spintype z-spin
subspace-rotation-factor 1 yes
symmetries automatic
symmetry-threshold 0.0001



---------- Setting up symmetries ----------

Found 24 point-group symmetries of the bravais lattice
Found 24 space-group symmetries with basis
Applied RMS atom displacement 0 bohrs to make symmetries exact.

---------- Initializing the Grid ----------
R = 
[      14.1825     -7.09123            0  ]
[            0      12.2824            0  ]
[            0            0           40  ]
unit cell volume = 6967.77
G =
[   0.443025   0.255781         -0  ]
[          0   0.511561         -0  ]
[         -0         -0    0.15708  ]
Minimum fftbox size, Smin = [  60  60  164  ]
Chosen fftbox size, S = [  60  60  168  ]

---------- Exchange Correlation functional ----------
Initalized PBE GGA exchange.
Initalized PBE GGA correlation.

---------- Setting up pseudopotentials ----------
Width of ionic core gaussian charges (only for fluid interactions / plotting) set to 0

Reading pseudopotential file '/home/gridsan/aligho/DFT/build-Nov24/pseudopotentials/SG15/K_ONCV_PBE.upf':
  'K' pseudopotential, 'PBE' functional
  Generated using ONCVPSP code by D. R. Hamann
  Author: Martin Schlipf and Francois Gygi  Date: 150915.
  9 valence electrons, 3 orbitals, 6 projectors, 2222 radial grid points, with lMax = 2
  Transforming local potential to a uniform radial grid of dG=0.02 with 1489 points.
  Transforming nonlocal projectors to a uniform radial grid of dG=0.02 with 432 points.
    3S    l: 0   occupation:  2.0   eigenvalue: -1.298836
    3P    l: 1   occupation:  6.0   eigenvalue: -0.691386
    4S    l: 0   occupation:  1.0   eigenvalue: -0.085223
  Transforming atomic orbitals to a uniform radial grid of dG=0.02 with 432 points.
  Core radius for overlap checks: 2.06 bohrs.
  Reading pulay file /home/gridsan/aligho/DFT/build-Nov24/pseudopotentials/SG15/K_ONCV_PBE.pulay ... using dE_dnG = -1.597219e-05 computed for Ecut = 20.

Initialized 1 species with 1 total atoms.

Folded 1 k-points by 12x12x1 to 144 k-points.

---------- Setting up k-points, bands, fillings ----------
Reduced to 19 k-points under symmetry. 
Computing the number of bands and number of electrons
Calculating initial fillings.
nElectrons:   9.000000   nBands: 6   nStates: 38

----- Setting up reduced wavefunction bases (one per k-point) -----
average nbasis = 29766.104 , ideal nbasis = 29766.845

---------- Setting up coulomb interaction ----------
Initialized slab truncation along lattice direction 001

---------- Setting up 2D ewald sum ----------
Optimum gaussian width for ewald sums = 7.873530 bohr.
Real space sums over 289 unit cells with max indices [  8  8  0  ]
Reciprocal space sums over 81 terms with max indices [  4  4  0  ]

---------- Allocating electronic variables ----------
Initializing wave functions:  linear combination of atomic orbitals
Note: number of bands (6) exceeds available atomic orbitals (5)
K pseudo-atom occupations:   s ( 2 1 )  p ( 6 )
	FillingsUpdate:  mu: -0.087159838  nElectrons: 9.000000  magneticMoment: [ Abs: 0.88000  Tot: +0.88000 ]
LCAOMinimize: Iter:   0  F: -28.3817058506286841  |grad|_K:  5.490e-06  alpha:  1.000e+00
	FillingsUpdate:  mu: -0.087158923  nElectrons: 9.000000  magneticMoment: [ Abs: 0.88000  Tot: +0.88000 ]
LCAOMinimize: Iter:   1  F: -28.3817058711657815  |grad|_K:  2.906e-08  alpha:  9.962e-01  linmin: -4.890e-03  cgtest:  9.034e-02  t[s]:      8.79
LCAOMinimize: Encountered beta<0, resetting CG.
	FillingsUpdate:  mu: -0.087158926  nElectrons: 9.000000  magneticMoment: [ Abs: 0.88000  Tot: +0.88000 ]
LCAOMinimize: Iter:   2  F: -28.3817058711661012  |grad|_K:  7.899e-09  alpha:  7.236e-01  linmin: -1.013e-01  cgtest:  9.999e-01  t[s]:     11.08
LCAOMinimize: Encountered beta<0, resetting CG.
LCAOMinimize: Converged (|Delta F|<1.000000e-06 for 2 iters).


---- Citations for features of the code used in this run ----

   Software package:
      R. Sundararaman, K. Letchworth-Weaver, K.A. Schwarz, D. Gunceler, Y. Ozhabes and T.A. Arias, 'JDFTx: software for joint density-functional theory', SoftwareX 6, 278 (2017)

   gga-PBE exchange-correlation functional:
      J.P. Perdew, K. Burke and M. Ernzerhof, Phys. Rev. Lett. 77, 3865 (1996)

   Pseudopotentials:
      M Schlipf and F Gygi, Comput. Phys. Commun. 196, 36 (2015)

   Truncated Coulomb potentials:
      R. Sundararaman and T.A. Arias, Phys. Rev. B 87, 165122 (2013)

This list may not be complete. Please suggest additional citations or
report any other bugs at https://github.com/shankar1729/jdftx/issues

Initialization completed successfully at t[s]:     11.24


-------- Electronic minimization -----------
Will mix electronic density at each iteration.
	FillingsUpdate:  mu: -0.087158926  nElectrons: 9.000000  magneticMoment: [ Abs: 0.88000  Tot: +0.88000 ]
	FillingsUpdate:  mu: -0.087762685  nElectrons: 9.000000  magneticMoment: [ Abs: 0.88000  Tot: +0.88000 ]
SCF: Cycle:  0   F: -28.382655445683312   dF: -9.496e-04   |Residual|: 3.019e-03   |deigs|: 1.732e-01  t[s]:     16.01
	FillingsUpdate:  mu: -0.087950560  nElectrons: 9.000000  magneticMoment: [ Abs: 0.88084  Tot: +0.88000 ]
SCF: Cycle:  1   F: -28.382680166133586   dF: -2.472e-05   |Residual|: 1.786e-03   |deigs|: 5.344e-03  t[s]:     19.75
	FillingsUpdate:  mu: -0.088181693  nElectrons: 9.000000  magneticMoment: [ Abs: 0.88174  Tot: +0.88000 ]
SCF: Cycle:  2   F: -28.382695820241040   dF: -1.565e-05   |Residual|: 1.417e-03   |deigs|: 3.037e-03  t[s]:     23.52
	FillingsUpdate:  mu: -0.088516714  nElectrons: 9.000000  magneticMoment: [ Abs: 0.88225  Tot: +0.88000 ]
SCF: Cycle:  3   F: -28.382711122156248   dF: -1.530e-05   |Residual|: 1.059e-03   |deigs|: 2.174e-03  t[s]:     27.36
	FillingsUpdate:  mu: -0.088621490  nElectrons: 9.000000  magneticMoment: [ Abs: 0.88179  Tot: +0.88000 ]
SCF: Cycle:  4   F: -28.382725175803650   dF: -1.405e-05   |Residual|: 7.091e-04   |deigs|: 1.553e-03  t[s]:     31.20
	FillingsUpdate:  mu: -0.088589747  nElectrons: 9.000000  magneticMoment: [ Abs: 0.88199  Tot: +0.88000 ]
SCF: Cycle:  5   F: -28.382735704054760   dF: -1.053e-05   |Residual|: 3.728e-04   |deigs|: 9.711e-04  t[s]:     35.21
	FillingsUpdate:  mu: -0.088498169  nElectrons: 9.000000  magneticMoment: [ Abs: 0.88169  Tot: +0.88000 ]
SCF: Cycle:  6   F: -28.382739199424556   dF: -3.495e-06   |Residual|: 2.762e-04   |deigs|: 1.686e-03  t[s]:     39.24
	FillingsUpdate:  mu: -0.088371410  nElectrons: 9.000000  magneticMoment: [ Abs: 0.88202  Tot: +0.88000 ]
SCF: Cycle:  7   F: -28.382741888862078   dF: -2.689e-06   |Residual|: 2.087e-04   |deigs|: 9.392e-04  t[s]:     43.31
	FillingsUpdate:  mu: -0.088121031  nElectrons: 9.000000  magneticMoment: [ Abs: 0.88214  Tot: +0.88000 ]
SCF: Cycle:  8   F: -28.382742749314030   dF: -8.605e-07   |Residual|: 1.673e-04   |deigs|: 2.618e-04  t[s]:     47.38
	FillingsUpdate:  mu: -0.087960282  nElectrons: 9.000000  magneticMoment: [ Abs: 0.88240  Tot: +0.88000 ]
SCF: Cycle:  9   F: -28.382743281136925   dF: -5.318e-07   |Residual|: 1.557e-04   |deigs|: 1.581e-04  t[s]:     51.66
	FillingsUpdate:  mu: -0.087837667  nElectrons: 9.000000  magneticMoment: [ Abs: 0.88203  Tot: +0.88000 ]
SCF: Cycle: 10   F: -28.382743903566748   dF: -6.224e-07   |Residual|: 1.376e-04   |deigs|: 2.413e-04  t[s]:     55.91
	FillingsUpdate:  mu: -0.087725497  nElectrons: 9.000000  magneticMoment: [ Abs: 0.88281  Tot: +0.88000 ]
SCF: Cycle: 11   F: -28.382743893472501   dF: +1.009e-08   |Residual|: 1.005e-04   |deigs|: 1.524e-04  t[s]:     60.11
	FillingsUpdate:  mu: -0.087672644  nElectrons: 9.000000  magneticMoment: [ Abs: 0.88266  Tot: +0.88000 ]
SCF: Cycle: 12   F: -28.382744842471830   dF: -9.490e-07   |Residual|: 8.535e-05   |deigs|: 1.009e-04  t[s]:     64.42
	FillingsUpdate:  mu: -0.087523073  nElectrons: 9.000000  magneticMoment: [ Abs: 0.88279  Tot: +0.88000 ]
SCF: Cycle: 13   F: -28.382745119795452   dF: -2.773e-07   |Residual|: 8.822e-05   |deigs|: 1.842e-04  t[s]:     68.68
	FillingsUpdate:  mu: -0.087271262  nElectrons: 9.000000  magneticMoment: [ Abs: 0.88273  Tot: +0.88000 ]
SCF: Cycle: 14   F: -28.382744847931413   dF: +2.719e-07   |Residual|: 9.041e-05   |deigs|: 2.750e-04  t[s]:     72.91
	FillingsUpdate:  mu: -0.087124952  nElectrons: 9.000000  magneticMoment: [ Abs: 0.88270  Tot: +0.88000 ]
SCF: Cycle: 15   F: -28.382745172275733   dF: -3.243e-07   |Residual|: 7.548e-05   |deigs|: 2.163e-04  t[s]:     77.16
	FillingsUpdate:  mu: -0.087078999  nElectrons: 9.000000  magneticMoment: [ Abs: 0.88218  Tot: +0.88000 ]
SCF: Cycle: 16   F: -28.382745474508102   dF: -3.022e-07   |Residual|: 6.253e-05   |deigs|: 2.119e-04  t[s]:     81.34
	FillingsUpdate:  mu: -0.086985936  nElectrons: 9.000000  magneticMoment: [ Abs: 0.88189  Tot: +0.88000 ]
SCF: Cycle: 17   F: -28.382745802151646   dF: -3.276e-07   |Residual|: 5.249e-05   |deigs|: 1.263e-04  t[s]:     85.56
	FillingsUpdate:  mu: -0.086956274  nElectrons: 9.000000  magneticMoment: [ Abs: 0.88183  Tot: +0.88000 ]
SCF: Cycle: 18   F: -28.382746055529623   dF: -2.534e-07   |Residual|: 3.903e-05   |deigs|: 5.085e-05  t[s]:     89.83
	FillingsUpdate:  mu: -0.086947310  nElectrons: 9.000000  magneticMoment: [ Abs: 0.88186  Tot: +0.88000 ]
SCF: Cycle: 19   F: -28.382746109438322   dF: -5.391e-08   |Residual|: 2.378e-05   |deigs|: 2.773e-05  t[s]:     94.05
	FillingsUpdate:  mu: -0.086932813  nElectrons: 9.000000  magneticMoment: [ Abs: 0.88185  Tot: +0.88000 ]
SCF: Cycle: 20   F: -28.382746225316755   dF: -1.159e-07   |Residual|: 1.564e-05   |deigs|: 3.201e-05  t[s]:     98.33
	FillingsUpdate:  mu: -0.086934663  nElectrons: 9.000000  magneticMoment: [ Abs: 0.88184  Tot: +0.88000 ]
SCF: Cycle: 21   F: -28.382746273076325   dF: -4.776e-08   |Residual|: 1.073e-05   |deigs|: 2.699e-05  t[s]:    102.41
	FillingsUpdate:  mu: -0.086935681  nElectrons: 9.000000  magneticMoment: [ Abs: 0.88185  Tot: +0.88000 ]
SCF: Cycle: 22   F: -28.382746283512084   dF: -1.044e-08   |Residual|: 6.020e-06   |deigs|: 2.664e-05  t[s]:    106.62
	FillingsUpdate:  mu: -0.086937589  nElectrons: 9.000000  magneticMoment: [ Abs: 0.88186  Tot: +0.88000 ]
SCF: Cycle: 23   F: -28.382746305306110   dF: -2.179e-08   |Residual|: 4.540e-06   |deigs|: 3.449e-05  t[s]:    110.81
	FillingsUpdate:  mu: -0.086941195  nElectrons: 9.000000  magneticMoment: [ Abs: 0.88186  Tot: +0.88000 ]
SCF: Cycle: 24   F: -28.382746312557760   dF: -7.252e-09   |Residual|: 3.589e-06   |deigs|: 4.527e-05  t[s]:    114.98
	FillingsUpdate:  mu: -0.086943048  nElectrons: 9.000000  magneticMoment: [ Abs: 0.88185  Tot: +0.88000 ]
SCF: Cycle: 25   F: -28.382746319389128   dF: -6.831e-09   |Residual|: 2.806e-06   |deigs|: 5.148e-05  t[s]:    119.16
SCF: Converged (|Delta E|<1.000000e-08 for 2 iters).


# Ionic positions in lattice coordinates:
ion K   0.000000000000000   0.000000000000000   0.000000000000000 0

# Forces in Lattice coordinates:
force K   0.000000000000000   0.000000000000000   0.000000000000000 0

# Energy components:
   Eewald =      -12.0320174002217755
       EH =       10.7635253079481874
     Eloc =      -29.9638967356152151
      Enl =       -2.7692296564328762
   Epulay =       -0.0000000016982517
      Exc =       -4.2443372906576755
       KE =        9.8632102745555859
-------------------------------------
     Etot =      -28.3827455021220274
       TS =        0.0000008172671015
-------------------------------------
        F =      -28.3827463193891276

IonicMinimize: Iter:   0  F: -28.382746319389128  |grad|_K:  0.000e+00  t[s]:    119.41
IonicMinimize: Converged (|grad|_K<1.000000e-04).

#--- Lowdin population analysis ---
# oxidation-state K +0.020
# magnetic-moments K +0.861

End date and time: Sat Feb  5 23:58:10 2022  (Duration: 0-0:01:59.46)
Done!
