
*************** JDFTx 1.6.0 (git hash 42ebbcc2) ***************

Start date and time: Sat Feb  5 23:43:04 2022
Executable jdftx with command-line: -i Alkali.in
Running on hosts (process indices):  d-5-12-1 (0-18)
Divided in process groups (process indices):  0 (0)  1 (1)  2 (2)  3 (3)  4 (4)  5 (5)  6 (6)  7 (7)  8 (8)  9 (9)  10 (10)  11 (11)  12 (12)  13 (13)  14 (14)  15 (15)  16 (16)  17 (17)  18 (18)
Resource initialization completed at t[s]:      0.00
Run totals: 19 processes, 48 threads, 0 GPUs


Input parsed successfully to the following command list (including defaults):

basis kpoint-dependent
coords-type Lattice
core-overlap-check vector
coulomb-interaction Slab 001
davidson-band-ratio 1.1
dump End None
dump-name $INPUT.$VAR
elec-cutoff 20
elec-eigen-algo Davidson
elec-ex-corr gga-PBE
elec-initial-magnetization -0.040000 yes
elec-smearing Fermi 1e-05
electronic-minimize  \
	dirUpdateScheme      FletcherReeves \
	linminMethod         DirUpdateRecommended \
	nIterations          100 \
	history              15 \
	knormThreshold       0 \
	energyDiffThreshold  1e-08 \
	nEnergyDiff          2 \
	alphaTstart          1 \
	alphaTmin            1e-10 \
	updateTestStepSize   yes \
	alphaTreduceFactor   0.1 \
	alphaTincreaseFactor 3 \
	nAlphaAdjustMax      3 \
	wolfeEnergy          0.0001 \
	wolfeGradient        0.9 \
	fdTest               no
electronic-scf  \
	nIterations	10000 \
	energyDiffThreshold	1e-08 \
	residualThreshold	1e-07 \
	mixFraction	0.5 \
	qMetric	0.8 \
	history	10 \
	nEigSteps	2 \
	eigDiffThreshold	1e-08 \
	mixedVariable	Density \
	qKerker	0.8 \
	qKappa	-1 \
	verbose	no \
	mixFractionMag	1.5
exchange-regularization WignerSeitzTruncated
fluid None
fluid-ex-corr (null) lda-PZ
fluid-gummel-loop 10 1.000000e-05
fluid-minimize  \
	dirUpdateScheme      PolakRibiere \
	linminMethod         DirUpdateRecommended \
	nIterations          100 \
	history              15 \
	knormThreshold       0 \
	energyDiffThreshold  0 \
	nEnergyDiff          2 \
	alphaTstart          1 \
	alphaTmin            1e-10 \
	updateTestStepSize   yes \
	alphaTreduceFactor   0.1 \
	alphaTincreaseFactor 3 \
	nAlphaAdjustMax      3 \
	wolfeEnergy          0.0001 \
	wolfeGradient        0.9 \
	fdTest               no
fluid-solvent H2O 55.338 ScalarEOS \
	epsBulk 78.4 \
	pMol 0.92466 \
	epsInf 1.77 \
	Pvap 1.06736e-10 \
	sigmaBulk 4.62e-05 \
	Rvdw 2.61727 \
	Res 1.42 \
	tauNuc 343133 \
	poleEl 15 7 1
forces-output-coords Positions
ion K   0.000000000000000   0.000000000000000   0.000000000000000 0
ion-species SG15/$ID_ONCV_PBE.upf
ion-width 0
ionic-minimize  \
	dirUpdateScheme      L-BFGS \
	linminMethod         DirUpdateRecommended \
	nIterations          0 \
	history              15 \
	knormThreshold       0.0001 \
	energyDiffThreshold  1e-06 \
	nEnergyDiff          2 \
	alphaTstart          1 \
	alphaTmin            1e-10 \
	updateTestStepSize   yes \
	alphaTreduceFactor   0.1 \
	alphaTincreaseFactor 3 \
	nAlphaAdjustMax      3 \
	wolfeEnergy          0.0001 \
	wolfeGradient        0.9 \
	fdTest               no
kpoint   0.000000000000   0.000000000000   0.000000000000  1.00000000000000
kpoint-folding 12 12 1 
latt-move-scale 1 1 1
latt-scale 3 3 1 
lattice  \
	   4.727486978767153   -2.363743489383575    0.000000000000000  \
	  -0.000000000000000    4.094123819672498    0.000000000000000  \
	   0.000000000000000    0.000000000000000   40.000000000000000 
lattice-minimize  \
	dirUpdateScheme      L-BFGS \
	linminMethod         DirUpdateRecommended \
	nIterations          0 \
	history              15 \
	knormThreshold       0 \
	energyDiffThreshold  1e-06 \
	nEnergyDiff          2 \
	alphaTstart          1 \
	alphaTmin            1e-10 \
	updateTestStepSize   yes \
	alphaTreduceFactor   0.1 \
	alphaTincreaseFactor 3 \
	nAlphaAdjustMax      3 \
	wolfeEnergy          0.0001 \
	wolfeGradient        0.9 \
	fdTest               no
lcao-params -1 1e-06 1e-05
pcm-variant GLSSA13
spintype z-spin
subspace-rotation-factor 1 yes
symmetries automatic
symmetry-threshold 0.0001



---------- Setting up symmetries ----------

Found 24 point-group symmetries of the bravais lattice
Found 24 space-group symmetries with basis
Applied RMS atom displacement 0 bohrs to make symmetries exact.

---------- Initializing the Grid ----------
R = 
[      14.1825     -7.09123            0  ]
[            0      12.2824            0  ]
[            0            0           40  ]
unit cell volume = 6967.77
G =
[   0.443025   0.255781         -0  ]
[          0   0.511561         -0  ]
[         -0         -0    0.15708  ]
Minimum fftbox size, Smin = [  60  60  164  ]
Chosen fftbox size, S = [  60  60  168  ]

---------- Exchange Correlation functional ----------
Initalized PBE GGA exchange.
Initalized PBE GGA correlation.

---------- Setting up pseudopotentials ----------
Width of ionic core gaussian charges (only for fluid interactions / plotting) set to 0

Reading pseudopotential file '/home/gridsan/aligho/DFT/build-Nov24/pseudopotentials/SG15/K_ONCV_PBE.upf':
  'K' pseudopotential, 'PBE' functional
  Generated using ONCVPSP code by D. R. Hamann
  Author: Martin Schlipf and Francois Gygi  Date: 150915.
  9 valence electrons, 3 orbitals, 6 projectors, 2222 radial grid points, with lMax = 2
  Transforming local potential to a uniform radial grid of dG=0.02 with 1489 points.
  Transforming nonlocal projectors to a uniform radial grid of dG=0.02 with 432 points.
    3S    l: 0   occupation:  2.0   eigenvalue: -1.298836
    3P    l: 1   occupation:  6.0   eigenvalue: -0.691386
    4S    l: 0   occupation:  1.0   eigenvalue: -0.085223
  Transforming atomic orbitals to a uniform radial grid of dG=0.02 with 432 points.
  Core radius for overlap checks: 2.06 bohrs.
  Reading pulay file /home/gridsan/aligho/DFT/build-Nov24/pseudopotentials/SG15/K_ONCV_PBE.pulay ... using dE_dnG = -1.597219e-05 computed for Ecut = 20.

Initialized 1 species with 1 total atoms.

Folded 1 k-points by 12x12x1 to 144 k-points.

---------- Setting up k-points, bands, fillings ----------
Reduced to 19 k-points under symmetry. 
Computing the number of bands and number of electrons
Calculating initial fillings.
nElectrons:   9.000000   nBands: 6   nStates: 38

----- Setting up reduced wavefunction bases (one per k-point) -----
average nbasis = 29766.104 , ideal nbasis = 29766.845

---------- Setting up coulomb interaction ----------
Initialized slab truncation along lattice direction 001

---------- Setting up 2D ewald sum ----------
Optimum gaussian width for ewald sums = 7.873530 bohr.
Real space sums over 289 unit cells with max indices [  8  8  0  ]
Reciprocal space sums over 81 terms with max indices [  4  4  0  ]

---------- Allocating electronic variables ----------
Initializing wave functions:  linear combination of atomic orbitals
Note: number of bands (6) exceeds available atomic orbitals (5)
K pseudo-atom occupations:   s ( 2 1 )  p ( 6 )
	FillingsUpdate:  mu: -0.086372314  nElectrons: 9.000000  magneticMoment: [ Abs: 0.04000  Tot: -0.04000 ]
LCAOMinimize: Iter:   0  F: -28.3829194137801011  |grad|_K:  1.874e-05  alpha:  1.000e+00
	FillingsUpdate:  mu: -0.086368698  nElectrons: 9.000000  magneticMoment: [ Abs: 0.04000  Tot: -0.04000 ]
LCAOMinimize: Iter:   1  F: -28.3829196510519495  |grad|_K:  1.392e-07  alpha:  9.877e-01  linmin: -1.529e-02  cgtest:  4.885e-01  t[s]:      8.78
LCAOMinimize: Encountered beta<0, resetting CG.
	FillingsUpdate:  mu: -0.086368697  nElectrons: 9.000000  magneticMoment: [ Abs: 0.04000  Tot: -0.04000 ]
LCAOMinimize: Iter:   2  F: -28.3829196510651904  |grad|_K:  8.956e-10  alpha:  9.945e-01  linmin: -3.866e-02  cgtest:  9.740e-01  t[s]:     11.24
LCAOMinimize: Encountered beta<0, resetting CG.
LCAOMinimize: Converged (|Delta F|<1.000000e-06 for 2 iters).


---- Citations for features of the code used in this run ----

   Software package:
      R. Sundararaman, K. Letchworth-Weaver, K.A. Schwarz, D. Gunceler, Y. Ozhabes and T.A. Arias, 'JDFTx: software for joint density-functional theory', SoftwareX 6, 278 (2017)

   gga-PBE exchange-correlation functional:
      J.P. Perdew, K. Burke and M. Ernzerhof, Phys. Rev. Lett. 77, 3865 (1996)

   Pseudopotentials:
      M Schlipf and F Gygi, Comput. Phys. Commun. 196, 36 (2015)

   Truncated Coulomb potentials:
      R. Sundararaman and T.A. Arias, Phys. Rev. B 87, 165122 (2013)

This list may not be complete. Please suggest additional citations or
report any other bugs at https://github.com/shankar1729/jdftx/issues

Initialization completed successfully at t[s]:     11.40


-------- Electronic minimization -----------
Will mix electronic density at each iteration.
	FillingsUpdate:  mu: -0.086368697  nElectrons: 9.000000  magneticMoment: [ Abs: 0.04000  Tot: -0.04000 ]
	FillingsUpdate:  mu: -0.088308202  nElectrons: 9.000000  magneticMoment: [ Abs: 0.04000  Tot: -0.04000 ]
SCF: Cycle:  0   F: -28.384427796823815   dF: -1.508e-03   |Residual|: 3.311e-03   |deigs|: 1.747e-01  t[s]:     16.27
	FillingsUpdate:  mu: -0.088533066  nElectrons: 9.000000  magneticMoment: [ Abs: 0.04000  Tot: -0.04000 ]
SCF: Cycle:  1   F: -28.384448618139924   dF: -2.082e-05   |Residual|: 2.878e-03   |deigs|: 4.566e-03  t[s]:     20.09
	FillingsUpdate:  mu: -0.089387648  nElectrons: 9.000000  magneticMoment: [ Abs: 0.04094  Tot: -0.04000 ]
SCF: Cycle:  2   F: -28.384482394500218   dF: -3.378e-05   |Residual|: 1.146e-03   |deigs|: 3.863e-03  t[s]:     23.92
	FillingsUpdate:  mu: -0.089345848  nElectrons: 9.000000  magneticMoment: [ Abs: 0.04008  Tot: -0.04000 ]
SCF: Cycle:  3   F: -28.384490117765168   dF: -7.723e-06   |Residual|: 7.010e-04   |deigs|: 1.841e-03  t[s]:     27.80
	FillingsUpdate:  mu: -0.089332131  nElectrons: 9.000000  magneticMoment: [ Abs: 0.04007  Tot: -0.04000 ]
SCF: Cycle:  4   F: -28.384494238105717   dF: -4.120e-06   |Residual|: 4.879e-04   |deigs|: 1.876e-03  t[s]:     31.76
	FillingsUpdate:  mu: -0.089252901  nElectrons: 9.000000  magneticMoment: [ Abs: 0.04003  Tot: -0.04000 ]
SCF: Cycle:  5   F: -28.384497466303618   dF: -3.228e-06   |Residual|: 3.452e-04   |deigs|: 1.787e-03  t[s]:     35.80
	FillingsUpdate:  mu: -0.089070525  nElectrons: 9.000000  magneticMoment: [ Abs: 0.04009  Tot: -0.04000 ]
SCF: Cycle:  6   F: -28.384498752576466   dF: -1.286e-06   |Residual|: 2.941e-04   |deigs|: 1.405e-03  t[s]:     39.86
	FillingsUpdate:  mu: -0.088857997  nElectrons: 9.000000  magneticMoment: [ Abs: 0.04017  Tot: -0.04000 ]
SCF: Cycle:  7   F: -28.384499250166176   dF: -4.976e-07   |Residual|: 2.006e-04   |deigs|: 1.228e-03  t[s]:     44.04
	FillingsUpdate:  mu: -0.088709611  nElectrons: 9.000000  magneticMoment: [ Abs: 0.04018  Tot: -0.04000 ]
SCF: Cycle:  8   F: -28.384499501064781   dF: -2.509e-07   |Residual|: 1.872e-04   |deigs|: 2.863e-04  t[s]:     48.32
	FillingsUpdate:  mu: -0.088507274  nElectrons: 9.000000  magneticMoment: [ Abs: 0.04021  Tot: -0.04000 ]
SCF: Cycle:  9   F: -28.384499818924244   dF: -3.179e-07   |Residual|: 1.654e-04   |deigs|: 2.851e-04  t[s]:     52.65
	FillingsUpdate:  mu: -0.088316685  nElectrons: 9.000000  magneticMoment: [ Abs: 0.04015  Tot: -0.04000 ]
SCF: Cycle: 10   F: -28.384499848437450   dF: -2.951e-08   |Residual|: 1.311e-04   |deigs|: 1.577e-04  t[s]:     57.04
	FillingsUpdate:  mu: -0.088124139  nElectrons: 9.000000  magneticMoment: [ Abs: 0.04021  Tot: -0.04000 ]
SCF: Cycle: 11   F: -28.384499812933022   dF: +3.550e-08   |Residual|: 1.142e-04   |deigs|: 2.849e-04  t[s]:     61.41
	FillingsUpdate:  mu: -0.087957489  nElectrons: 9.000000  magneticMoment: [ Abs: 0.04011  Tot: -0.04000 ]
SCF: Cycle: 12   F: -28.384499780991881   dF: +3.194e-08   |Residual|: 1.033e-04   |deigs|: 3.609e-04  t[s]:     65.76
	FillingsUpdate:  mu: -0.087787878  nElectrons: 9.000000  magneticMoment: [ Abs: 0.04011  Tot: -0.04000 ]
SCF: Cycle: 13   F: -28.384499693307479   dF: +8.768e-08   |Residual|: 1.021e-04   |deigs|: 1.962e-04  t[s]:     70.13
	FillingsUpdate:  mu: -0.087584212  nElectrons: 9.000000  magneticMoment: [ Abs: 0.04018  Tot: -0.04000 ]
SCF: Cycle: 14   F: -28.384499992089367   dF: -2.988e-07   |Residual|: 9.133e-05   |deigs|: 2.219e-04  t[s]:     74.56
	FillingsUpdate:  mu: -0.087480959  nElectrons: 9.000000  magneticMoment: [ Abs: 0.04022  Tot: -0.04000 ]
SCF: Cycle: 15   F: -28.384500373154737   dF: -3.811e-07   |Residual|: 7.937e-05   |deigs|: 1.083e-04  t[s]:     78.90
	FillingsUpdate:  mu: -0.087415178  nElectrons: 9.000000  magneticMoment: [ Abs: 0.04015  Tot: -0.04000 ]
SCF: Cycle: 16   F: -28.384500610416811   dF: -2.373e-07   |Residual|: 5.696e-05   |deigs|: 1.287e-04  t[s]:     83.23
	FillingsUpdate:  mu: -0.087349835  nElectrons: 9.000000  magneticMoment: [ Abs: 0.04011  Tot: -0.04000 ]
SCF: Cycle: 17   F: -28.384500767183649   dF: -1.568e-07   |Residual|: 3.256e-05   |deigs|: 1.513e-04  t[s]:     87.47
	FillingsUpdate:  mu: -0.087313765  nElectrons: 9.000000  magneticMoment: [ Abs: 0.04010  Tot: -0.04000 ]
SCF: Cycle: 18   F: -28.384500801103020   dF: -3.392e-08   |Residual|: 1.986e-05   |deigs|: 1.229e-04  t[s]:     91.54
	FillingsUpdate:  mu: -0.087312530  nElectrons: 9.000000  magneticMoment: [ Abs: 0.04009  Tot: -0.04000 ]
SCF: Cycle: 19   F: -28.384500820733514   dF: -1.963e-08   |Residual|: 1.246e-05   |deigs|: 8.333e-05  t[s]:     95.89
	FillingsUpdate:  mu: -0.087314137  nElectrons: 9.000000  magneticMoment: [ Abs: 0.04009  Tot: -0.04000 ]
SCF: Cycle: 20   F: -28.384500831997169   dF: -1.126e-08   |Residual|: 7.645e-06   |deigs|: 6.679e-05  t[s]:    100.23
	FillingsUpdate:  mu: -0.087317804  nElectrons: 9.000000  magneticMoment: [ Abs: 0.04008  Tot: -0.04000 ]
SCF: Cycle: 21   F: -28.384500838852116   dF: -6.855e-09   |Residual|: 3.656e-06   |deigs|: 6.477e-05  t[s]:    104.51
	FillingsUpdate:  mu: -0.087317917  nElectrons: 9.000000  magneticMoment: [ Abs: 0.04007  Tot: -0.04000 ]
SCF: Cycle: 22   F: -28.384500841857047   dF: -3.005e-09   |Residual|: 2.688e-06   |deigs|: 5.647e-05  t[s]:    108.65
SCF: Converged (|Delta E|<1.000000e-08 for 2 iters).


# Ionic positions in lattice coordinates:
ion K   0.000000000000000   0.000000000000000   0.000000000000000 0

# Forces in Lattice coordinates:
force K   0.000000000000000   0.000000000000000   0.000000000000000 0

# Energy components:
   Eewald =      -12.0320174002217755
       EH =       10.7056051609062148
     Eloc =      -29.8997207323943996
      Enl =       -2.7720894249613175
   Epulay =       -0.0000000016982517
      Exc =       -4.2362241693139611
       KE =        9.8499466120409647
-------------------------------------
     Etot =      -28.3844999556425250
       TS =        0.0000008862145228
-------------------------------------
        F =      -28.3845008418570472

IonicMinimize: Iter:   0  F: -28.384500841857047  |grad|_K:  0.000e+00  t[s]:    108.91
IonicMinimize: Converged (|grad|_K<1.000000e-04).

#--- Lowdin population analysis ---
# oxidation-state K +0.026
# magnetic-moments K -0.038

End date and time: Sat Feb  5 23:44:53 2022  (Duration: 0-0:01:48.96)
Done!
