
*************** JDFTx 1.6.0 (git hash 42ebbcc2) ***************

Start date and time: Sat Feb  5 23:49:24 2022
Executable jdftx with command-line: -i Alkali.in
Running on hosts (process indices):  d-4-6-3 (0-18)
Divided in process groups (process indices):  0 (0)  1 (1)  2 (2)  3 (3)  4 (4)  5 (5)  6 (6)  7 (7)  8 (8)  9 (9)  10 (10)  11 (11)  12 (12)  13 (13)  14 (14)  15 (15)  16 (16)  17 (17)  18 (18)
Resource initialization completed at t[s]:      0.00
Run totals: 19 processes, 48 threads, 0 GPUs


Input parsed successfully to the following command list (including defaults):

basis kpoint-dependent
coords-type Lattice
core-overlap-check vector
coulomb-interaction Slab 001
davidson-band-ratio 1.1
dump End None
dump-name $INPUT.$VAR
elec-cutoff 20
elec-eigen-algo Davidson
elec-ex-corr gga-PBE
elec-initial-magnetization 0.440000 yes
elec-smearing Fermi 1e-05
electronic-minimize  \
	dirUpdateScheme      FletcherReeves \
	linminMethod         DirUpdateRecommended \
	nIterations          100 \
	history              15 \
	knormThreshold       0 \
	energyDiffThreshold  1e-08 \
	nEnergyDiff          2 \
	alphaTstart          1 \
	alphaTmin            1e-10 \
	updateTestStepSize   yes \
	alphaTreduceFactor   0.1 \
	alphaTincreaseFactor 3 \
	nAlphaAdjustMax      3 \
	wolfeEnergy          0.0001 \
	wolfeGradient        0.9 \
	fdTest               no
electronic-scf  \
	nIterations	10000 \
	energyDiffThreshold	1e-08 \
	residualThreshold	1e-07 \
	mixFraction	0.5 \
	qMetric	0.8 \
	history	10 \
	nEigSteps	2 \
	eigDiffThreshold	1e-08 \
	mixedVariable	Density \
	qKerker	0.8 \
	qKappa	-1 \
	verbose	no \
	mixFractionMag	1.5
exchange-regularization WignerSeitzTruncated
fluid None
fluid-ex-corr (null) lda-PZ
fluid-gummel-loop 10 1.000000e-05
fluid-minimize  \
	dirUpdateScheme      PolakRibiere \
	linminMethod         DirUpdateRecommended \
	nIterations          100 \
	history              15 \
	knormThreshold       0 \
	energyDiffThreshold  0 \
	nEnergyDiff          2 \
	alphaTstart          1 \
	alphaTmin            1e-10 \
	updateTestStepSize   yes \
	alphaTreduceFactor   0.1 \
	alphaTincreaseFactor 3 \
	nAlphaAdjustMax      3 \
	wolfeEnergy          0.0001 \
	wolfeGradient        0.9 \
	fdTest               no
fluid-solvent H2O 55.338 ScalarEOS \
	epsBulk 78.4 \
	pMol 0.92466 \
	epsInf 1.77 \
	Pvap 1.06736e-10 \
	sigmaBulk 4.62e-05 \
	Rvdw 2.61727 \
	Res 1.42 \
	tauNuc 343133 \
	poleEl 15 7 1
forces-output-coords Positions
ion K   0.000000000000000   0.000000000000000   0.000000000000000 0
ion-species SG15/$ID_ONCV_PBE.upf
ion-width 0
ionic-minimize  \
	dirUpdateScheme      L-BFGS \
	linminMethod         DirUpdateRecommended \
	nIterations          0 \
	history              15 \
	knormThreshold       0.0001 \
	energyDiffThreshold  1e-06 \
	nEnergyDiff          2 \
	alphaTstart          1 \
	alphaTmin            1e-10 \
	updateTestStepSize   yes \
	alphaTreduceFactor   0.1 \
	alphaTincreaseFactor 3 \
	nAlphaAdjustMax      3 \
	wolfeEnergy          0.0001 \
	wolfeGradient        0.9 \
	fdTest               no
kpoint   0.000000000000   0.000000000000   0.000000000000  1.00000000000000
kpoint-folding 12 12 1 
latt-move-scale 1 1 1
latt-scale 3 3 1 
lattice  \
	   4.727486978767153   -2.363743489383575    0.000000000000000  \
	  -0.000000000000000    4.094123819672498    0.000000000000000  \
	   0.000000000000000    0.000000000000000   40.000000000000000 
lattice-minimize  \
	dirUpdateScheme      L-BFGS \
	linminMethod         DirUpdateRecommended \
	nIterations          0 \
	history              15 \
	knormThreshold       0 \
	energyDiffThreshold  1e-06 \
	nEnergyDiff          2 \
	alphaTstart          1 \
	alphaTmin            1e-10 \
	updateTestStepSize   yes \
	alphaTreduceFactor   0.1 \
	alphaTincreaseFactor 3 \
	nAlphaAdjustMax      3 \
	wolfeEnergy          0.0001 \
	wolfeGradient        0.9 \
	fdTest               no
lcao-params -1 1e-06 1e-05
pcm-variant GLSSA13
spintype z-spin
subspace-rotation-factor 1 yes
symmetries automatic
symmetry-threshold 0.0001



---------- Setting up symmetries ----------

Found 24 point-group symmetries of the bravais lattice
Found 24 space-group symmetries with basis
Applied RMS atom displacement 0 bohrs to make symmetries exact.

---------- Initializing the Grid ----------
R = 
[      14.1825     -7.09123            0  ]
[            0      12.2824            0  ]
[            0            0           40  ]
unit cell volume = 6967.77
G =
[   0.443025   0.255781         -0  ]
[          0   0.511561         -0  ]
[         -0         -0    0.15708  ]
Minimum fftbox size, Smin = [  60  60  164  ]
Chosen fftbox size, S = [  60  60  168  ]

---------- Exchange Correlation functional ----------
Initalized PBE GGA exchange.
Initalized PBE GGA correlation.

---------- Setting up pseudopotentials ----------
Width of ionic core gaussian charges (only for fluid interactions / plotting) set to 0

Reading pseudopotential file '/home/gridsan/aligho/DFT/build-Nov24/pseudopotentials/SG15/K_ONCV_PBE.upf':
  'K' pseudopotential, 'PBE' functional
  Generated using ONCVPSP code by D. R. Hamann
  Author: Martin Schlipf and Francois Gygi  Date: 150915.
  9 valence electrons, 3 orbitals, 6 projectors, 2222 radial grid points, with lMax = 2
  Transforming local potential to a uniform radial grid of dG=0.02 with 1489 points.
  Transforming nonlocal projectors to a uniform radial grid of dG=0.02 with 432 points.
    3S    l: 0   occupation:  2.0   eigenvalue: -1.298836
    3P    l: 1   occupation:  6.0   eigenvalue: -0.691386
    4S    l: 0   occupation:  1.0   eigenvalue: -0.085223
  Transforming atomic orbitals to a uniform radial grid of dG=0.02 with 432 points.
  Core radius for overlap checks: 2.06 bohrs.
  Reading pulay file /home/gridsan/aligho/DFT/build-Nov24/pseudopotentials/SG15/K_ONCV_PBE.pulay ... using dE_dnG = -1.597219e-05 computed for Ecut = 20.

Initialized 1 species with 1 total atoms.

Folded 1 k-points by 12x12x1 to 144 k-points.

---------- Setting up k-points, bands, fillings ----------
Reduced to 19 k-points under symmetry. 
Computing the number of bands and number of electrons
Calculating initial fillings.
nElectrons:   9.000000   nBands: 6   nStates: 38

----- Setting up reduced wavefunction bases (one per k-point) -----
average nbasis = 29766.104 , ideal nbasis = 29766.845

---------- Setting up coulomb interaction ----------
Initialized slab truncation along lattice direction 001

---------- Setting up 2D ewald sum ----------
Optimum gaussian width for ewald sums = 7.873530 bohr.
Real space sums over 289 unit cells with max indices [  8  8  0  ]
Reciprocal space sums over 81 terms with max indices [  4  4  0  ]

---------- Allocating electronic variables ----------
Initializing wave functions:  linear combination of atomic orbitals
Note: number of bands (6) exceeds available atomic orbitals (5)
K pseudo-atom occupations:   s ( 2 1 )  p ( 6 )
	FillingsUpdate:  mu: -0.086879713  nElectrons: 9.000000  magneticMoment: [ Abs: 0.44000  Tot: +0.44000 ]
LCAOMinimize: Iter:   0  F: -28.3825333046908419  |grad|_K:  1.497e-05  alpha:  1.000e+00
	FillingsUpdate:  mu: -0.086876997  nElectrons: 9.000000  magneticMoment: [ Abs: 0.44000  Tot: +0.44000 ]
LCAOMinimize: Iter:   1  F: -28.3825334563768479  |grad|_K:  1.041e-07  alpha:  9.893e-01  linmin: -1.264e-02  cgtest:  3.829e-01  t[s]:      8.79
LCAOMinimize: Encountered beta<0, resetting CG.
	FillingsUpdate:  mu: -0.086877001  nElectrons: 9.000000  magneticMoment: [ Abs: 0.44000  Tot: +0.44000 ]
LCAOMinimize: Iter:   2  F: -28.3825334563844045  |grad|_K:  3.633e-10  alpha:  1.002e+00  linmin:  3.299e-02  cgtest: -4.264e-01  t[s]:     11.15
LCAOMinimize: Converged (|Delta F|<1.000000e-06 for 2 iters).


---- Citations for features of the code used in this run ----

   Software package:
      R. Sundararaman, K. Letchworth-Weaver, K.A. Schwarz, D. Gunceler, Y. Ozhabes and T.A. Arias, 'JDFTx: software for joint density-functional theory', SoftwareX 6, 278 (2017)

   gga-PBE exchange-correlation functional:
      J.P. Perdew, K. Burke and M. Ernzerhof, Phys. Rev. Lett. 77, 3865 (1996)

   Pseudopotentials:
      M Schlipf and F Gygi, Comput. Phys. Commun. 196, 36 (2015)

   Truncated Coulomb potentials:
      R. Sundararaman and T.A. Arias, Phys. Rev. B 87, 165122 (2013)

This list may not be complete. Please suggest additional citations or
report any other bugs at https://github.com/shankar1729/jdftx/issues

Initialization completed successfully at t[s]:     11.32


-------- Electronic minimization -----------
Will mix electronic density at each iteration.
	FillingsUpdate:  mu: -0.086877001  nElectrons: 9.000000  magneticMoment: [ Abs: 0.44000  Tot: +0.44000 ]
	FillingsUpdate:  mu: -0.088324726  nElectrons: 9.000000  magneticMoment: [ Abs: 0.44000  Tot: +0.44000 ]
SCF: Cycle:  0   F: -28.383865237326290   dF: -1.332e-03   |Residual|: 3.424e-03   |deigs|: 1.744e-01  t[s]:     16.10
	FillingsUpdate:  mu: -0.088490125  nElectrons: 9.000000  magneticMoment: [ Abs: 0.44000  Tot: +0.44000 ]
SCF: Cycle:  1   F: -28.383898502474228   dF: -3.327e-05   |Residual|: 2.695e-03   |deigs|: 4.427e-03  t[s]:     19.83
	FillingsUpdate:  mu: -0.088729275  nElectrons: 9.000000  magneticMoment: [ Abs: 0.44116  Tot: +0.44000 ]
SCF: Cycle:  2   F: -28.383924778586682   dF: -2.628e-05   |Residual|: 1.928e-03   |deigs|: 2.811e-03  t[s]:     23.66
	FillingsUpdate:  mu: -0.089027276  nElectrons: 9.000000  magneticMoment: [ Abs: 0.44118  Tot: +0.44000 ]
SCF: Cycle:  3   F: -28.383940877949531   dF: -1.610e-05   |Residual|: 1.162e-03   |deigs|: 2.328e-03  t[s]:     27.57
	FillingsUpdate:  mu: -0.089144917  nElectrons: 9.000000  magneticMoment: [ Abs: 0.44054  Tot: +0.44000 ]
SCF: Cycle:  4   F: -28.383950056959289   dF: -9.179e-06   |Residual|: 6.344e-04   |deigs|: 2.675e-03  t[s]:     31.54
	FillingsUpdate:  mu: -0.089187224  nElectrons: 9.000000  magneticMoment: [ Abs: 0.44078  Tot: +0.44000 ]
SCF: Cycle:  5   F: -28.383955341023103   dF: -5.284e-06   |Residual|: 4.108e-04   |deigs|: 2.056e-03  t[s]:     35.50
	FillingsUpdate:  mu: -0.089096101  nElectrons: 9.000000  magneticMoment: [ Abs: 0.44061  Tot: +0.44000 ]
SCF: Cycle:  6   F: -28.383958208787242   dF: -2.868e-06   |Residual|: 2.839e-04   |deigs|: 8.339e-04  t[s]:     39.56
	FillingsUpdate:  mu: -0.089000593  nElectrons: 9.000000  magneticMoment: [ Abs: 0.44076  Tot: +0.44000 ]
SCF: Cycle:  7   F: -28.383959190581926   dF: -9.818e-07   |Residual|: 2.323e-04   |deigs|: 7.136e-04  t[s]:     43.66
	FillingsUpdate:  mu: -0.088819952  nElectrons: 9.000000  magneticMoment: [ Abs: 0.44116  Tot: +0.44000 ]
SCF: Cycle:  8   F: -28.383959834470893   dF: -6.439e-07   |Residual|: 1.789e-04   |deigs|: 6.311e-04  t[s]:     47.83
	FillingsUpdate:  mu: -0.088604238  nElectrons: 9.000000  magneticMoment: [ Abs: 0.44160  Tot: +0.44000 ]
SCF: Cycle:  9   F: -28.383959896194000   dF: -6.172e-08   |Residual|: 1.660e-04   |deigs|: 3.772e-04  t[s]:     52.04
	FillingsUpdate:  mu: -0.088410444  nElectrons: 9.000000  magneticMoment: [ Abs: 0.44130  Tot: +0.44000 ]
SCF: Cycle: 10   F: -28.383959884510588   dF: +1.168e-08   |Residual|: 1.394e-04   |deigs|: 2.149e-04  t[s]:     56.38
	FillingsUpdate:  mu: -0.088189386  nElectrons: 9.000000  magneticMoment: [ Abs: 0.44154  Tot: +0.44000 ]
SCF: Cycle: 11   F: -28.383960278595730   dF: -3.941e-07   |Residual|: 1.243e-04   |deigs|: 2.867e-04  t[s]:     60.64
	FillingsUpdate:  mu: -0.088174997  nElectrons: 9.000000  magneticMoment: [ Abs: 0.44130  Tot: +0.44000 ]
SCF: Cycle: 12   F: -28.383960821158233   dF: -5.426e-07   |Residual|: 9.670e-05   |deigs|: 1.384e-04  t[s]:     64.89
	FillingsUpdate:  mu: -0.087931689  nElectrons: 9.000000  magneticMoment: [ Abs: 0.44110  Tot: +0.44000 ]
SCF: Cycle: 13   F: -28.383961033500423   dF: -2.123e-07   |Residual|: 9.235e-05   |deigs|: 2.665e-04  t[s]:     69.21
	FillingsUpdate:  mu: -0.087708320  nElectrons: 9.000000  magneticMoment: [ Abs: 0.44083  Tot: +0.44000 ]
SCF: Cycle: 14   F: -28.383960705836284   dF: +3.277e-07   |Residual|: 9.611e-05   |deigs|: 2.520e-04  t[s]:     73.51
	FillingsUpdate:  mu: -0.087531344  nElectrons: 9.000000  magneticMoment: [ Abs: 0.44125  Tot: +0.44000 ]
SCF: Cycle: 15   F: -28.383960964841762   dF: -2.590e-07   |Residual|: 8.328e-05   |deigs|: 1.967e-04  t[s]:     77.81
	FillingsUpdate:  mu: -0.087436523  nElectrons: 9.000000  magneticMoment: [ Abs: 0.44123  Tot: +0.44000 ]
SCF: Cycle: 16   F: -28.383961434537383   dF: -4.697e-07   |Residual|: 6.918e-05   |deigs|: 1.452e-04  t[s]:     82.08
	FillingsUpdate:  mu: -0.087361469  nElectrons: 9.000000  magneticMoment: [ Abs: 0.44086  Tot: +0.44000 ]
SCF: Cycle: 17   F: -28.383961647958600   dF: -2.134e-07   |Residual|: 5.190e-05   |deigs|: 1.851e-04  t[s]:     86.37
	FillingsUpdate:  mu: -0.087317535  nElectrons: 9.000000  magneticMoment: [ Abs: 0.44072  Tot: +0.44000 ]
SCF: Cycle: 18   F: -28.383961828225047   dF: -1.803e-07   |Residual|: 3.031e-05   |deigs|: 1.685e-04  t[s]:     90.64
	FillingsUpdate:  mu: -0.087308043  nElectrons: 9.000000  magneticMoment: [ Abs: 0.44074  Tot: +0.44000 ]
SCF: Cycle: 19   F: -28.383961876836324   dF: -4.861e-08   |Residual|: 1.952e-05   |deigs|: 6.529e-05  t[s]:     94.69
	FillingsUpdate:  mu: -0.087298471  nElectrons: 9.000000  magneticMoment: [ Abs: 0.44074  Tot: +0.44000 ]
SCF: Cycle: 20   F: -28.383961907365929   dF: -3.053e-08   |Residual|: 1.216e-05   |deigs|: 4.185e-05  t[s]:     98.98
	FillingsUpdate:  mu: -0.087300906  nElectrons: 9.000000  magneticMoment: [ Abs: 0.44072  Tot: +0.44000 ]
SCF: Cycle: 21   F: -28.383961929291132   dF: -2.193e-08   |Residual|: 7.440e-06   |deigs|: 4.334e-05  t[s]:    103.17
	FillingsUpdate:  mu: -0.087301816  nElectrons: 9.000000  magneticMoment: [ Abs: 0.44073  Tot: +0.44000 ]
SCF: Cycle: 22   F: -28.383961936451904   dF: -7.161e-09   |Residual|: 3.725e-06   |deigs|: 4.478e-05  t[s]:    107.32
	FillingsUpdate:  mu: -0.087299089  nElectrons: 9.000000  magneticMoment: [ Abs: 0.44073  Tot: +0.44000 ]
SCF: Cycle: 23   F: -28.383961940350165   dF: -3.898e-09   |Residual|: 2.803e-06   |deigs|: 4.577e-05  t[s]:    111.48
SCF: Converged (|Delta E|<1.000000e-08 for 2 iters).


# Ionic positions in lattice coordinates:
ion K   0.000000000000000   0.000000000000000   0.000000000000000 0

# Forces in Lattice coordinates:
force K  -0.000000000000000   0.000000000000000   0.000000000000000 0

# Energy components:
   Eewald =      -12.0320174002217755
       EH =       10.7192622401532649
     Eloc =      -29.9148540087205355
      Enl =       -2.7714506667775667
   Epulay =       -0.0000000016982517
      Exc =       -4.2380526454993532
       KE =        9.8531514011097734
-------------------------------------
     Etot =      -28.3839610816544443
       TS =        0.0000008586957218
-------------------------------------
        F =      -28.3839619403501651

IonicMinimize: Iter:   0  F: -28.383961940350165  |grad|_K:  0.000e+00  t[s]:    111.74
IonicMinimize: Converged (|grad|_K<1.000000e-04).

#--- Lowdin population analysis ---
# oxidation-state K +0.027
# magnetic-moments K +0.421

End date and time: Sat Feb  5 23:51:16 2022  (Duration: 0-0:01:51.78)
Done!
