
*************** JDFTx 1.6.0 (git hash 42ebbcc2) ***************

Start date and time: Sat Feb  5 23:55:42 2022
Executable jdftx with command-line: -i Alkali.in
Running on hosts (process indices):  d-5-12-1 (0-18)
Divided in process groups (process indices):  0 (0)  1 (1)  2 (2)  3 (3)  4 (4)  5 (5)  6 (6)  7 (7)  8 (8)  9 (9)  10 (10)  11 (11)  12 (12)  13 (13)  14 (14)  15 (15)  16 (16)  17 (17)  18 (18)
Resource initialization completed at t[s]:      0.00
Run totals: 19 processes, 48 threads, 0 GPUs


Input parsed successfully to the following command list (including defaults):

basis kpoint-dependent
coords-type Lattice
core-overlap-check vector
coulomb-interaction Slab 001
davidson-band-ratio 1.1
dump End None
dump-name $INPUT.$VAR
elec-cutoff 20
elec-eigen-algo Davidson
elec-ex-corr gga-PBE
elec-initial-magnetization 0.920000 yes
elec-smearing Fermi 1e-05
electronic-minimize  \
	dirUpdateScheme      FletcherReeves \
	linminMethod         DirUpdateRecommended \
	nIterations          100 \
	history              15 \
	knormThreshold       0 \
	energyDiffThreshold  1e-08 \
	nEnergyDiff          2 \
	alphaTstart          1 \
	alphaTmin            1e-10 \
	updateTestStepSize   yes \
	alphaTreduceFactor   0.1 \
	alphaTincreaseFactor 3 \
	nAlphaAdjustMax      3 \
	wolfeEnergy          0.0001 \
	wolfeGradient        0.9 \
	fdTest               no
electronic-scf  \
	nIterations	10000 \
	energyDiffThreshold	1e-08 \
	residualThreshold	1e-07 \
	mixFraction	0.5 \
	qMetric	0.8 \
	history	10 \
	nEigSteps	2 \
	eigDiffThreshold	1e-08 \
	mixedVariable	Density \
	qKerker	0.8 \
	qKappa	-1 \
	verbose	no \
	mixFractionMag	1.5
exchange-regularization WignerSeitzTruncated
fluid None
fluid-ex-corr (null) lda-PZ
fluid-gummel-loop 10 1.000000e-05
fluid-minimize  \
	dirUpdateScheme      PolakRibiere \
	linminMethod         DirUpdateRecommended \
	nIterations          100 \
	history              15 \
	knormThreshold       0 \
	energyDiffThreshold  0 \
	nEnergyDiff          2 \
	alphaTstart          1 \
	alphaTmin            1e-10 \
	updateTestStepSize   yes \
	alphaTreduceFactor   0.1 \
	alphaTincreaseFactor 3 \
	nAlphaAdjustMax      3 \
	wolfeEnergy          0.0001 \
	wolfeGradient        0.9 \
	fdTest               no
fluid-solvent H2O 55.338 ScalarEOS \
	epsBulk 78.4 \
	pMol 0.92466 \
	epsInf 1.77 \
	Pvap 1.06736e-10 \
	sigmaBulk 4.62e-05 \
	Rvdw 2.61727 \
	Res 1.42 \
	tauNuc 343133 \
	poleEl 15 7 1
forces-output-coords Positions
ion K   0.000000000000000   0.000000000000000   0.000000000000000 0
ion-species SG15/$ID_ONCV_PBE.upf
ion-width 0
ionic-minimize  \
	dirUpdateScheme      L-BFGS \
	linminMethod         DirUpdateRecommended \
	nIterations          0 \
	history              15 \
	knormThreshold       0.0001 \
	energyDiffThreshold  1e-06 \
	nEnergyDiff          2 \
	alphaTstart          1 \
	alphaTmin            1e-10 \
	updateTestStepSize   yes \
	alphaTreduceFactor   0.1 \
	alphaTincreaseFactor 3 \
	nAlphaAdjustMax      3 \
	wolfeEnergy          0.0001 \
	wolfeGradient        0.9 \
	fdTest               no
kpoint   0.000000000000   0.000000000000   0.000000000000  1.00000000000000
kpoint-folding 12 12 1 
latt-move-scale 1 1 1
latt-scale 3 3 1 
lattice  \
	   4.727486978767153   -2.363743489383575    0.000000000000000  \
	  -0.000000000000000    4.094123819672498    0.000000000000000  \
	   0.000000000000000    0.000000000000000   40.000000000000000 
lattice-minimize  \
	dirUpdateScheme      L-BFGS \
	linminMethod         DirUpdateRecommended \
	nIterations          0 \
	history              15 \
	knormThreshold       0 \
	energyDiffThreshold  1e-06 \
	nEnergyDiff          2 \
	alphaTstart          1 \
	alphaTmin            1e-10 \
	updateTestStepSize   yes \
	alphaTreduceFactor   0.1 \
	alphaTincreaseFactor 3 \
	nAlphaAdjustMax      3 \
	wolfeEnergy          0.0001 \
	wolfeGradient        0.9 \
	fdTest               no
lcao-params -1 1e-06 1e-05
pcm-variant GLSSA13
spintype z-spin
subspace-rotation-factor 1 yes
symmetries automatic
symmetry-threshold 0.0001



---------- Setting up symmetries ----------

Found 24 point-group symmetries of the bravais lattice
Found 24 space-group symmetries with basis
Applied RMS atom displacement 0 bohrs to make symmetries exact.

---------- Initializing the Grid ----------
R = 
[      14.1825     -7.09123            0  ]
[            0      12.2824            0  ]
[            0            0           40  ]
unit cell volume = 6967.77
G =
[   0.443025   0.255781         -0  ]
[          0   0.511561         -0  ]
[         -0         -0    0.15708  ]
Minimum fftbox size, Smin = [  60  60  164  ]
Chosen fftbox size, S = [  60  60  168  ]

---------- Exchange Correlation functional ----------
Initalized PBE GGA exchange.
Initalized PBE GGA correlation.

---------- Setting up pseudopotentials ----------
Width of ionic core gaussian charges (only for fluid interactions / plotting) set to 0

Reading pseudopotential file '/home/gridsan/aligho/DFT/build-Nov24/pseudopotentials/SG15/K_ONCV_PBE.upf':
  'K' pseudopotential, 'PBE' functional
  Generated using ONCVPSP code by D. R. Hamann
  Author: Martin Schlipf and Francois Gygi  Date: 150915.
  9 valence electrons, 3 orbitals, 6 projectors, 2222 radial grid points, with lMax = 2
  Transforming local potential to a uniform radial grid of dG=0.02 with 1489 points.
  Transforming nonlocal projectors to a uniform radial grid of dG=0.02 with 432 points.
    3S    l: 0   occupation:  2.0   eigenvalue: -1.298836
    3P    l: 1   occupation:  6.0   eigenvalue: -0.691386
    4S    l: 0   occupation:  1.0   eigenvalue: -0.085223
  Transforming atomic orbitals to a uniform radial grid of dG=0.02 with 432 points.
  Core radius for overlap checks: 2.06 bohrs.
  Reading pulay file /home/gridsan/aligho/DFT/build-Nov24/pseudopotentials/SG15/K_ONCV_PBE.pulay ... using dE_dnG = -1.597219e-05 computed for Ecut = 20.

Initialized 1 species with 1 total atoms.

Folded 1 k-points by 12x12x1 to 144 k-points.

---------- Setting up k-points, bands, fillings ----------
Reduced to 19 k-points under symmetry. 
Computing the number of bands and number of electrons
Calculating initial fillings.
nElectrons:   9.000000   nBands: 6   nStates: 38

----- Setting up reduced wavefunction bases (one per k-point) -----
average nbasis = 29766.104 , ideal nbasis = 29766.845

---------- Setting up coulomb interaction ----------
Initialized slab truncation along lattice direction 001

---------- Setting up 2D ewald sum ----------
Optimum gaussian width for ewald sums = 7.873530 bohr.
Real space sums over 289 unit cells with max indices [  8  8  0  ]
Reciprocal space sums over 81 terms with max indices [  4  4  0  ]

---------- Allocating electronic variables ----------
Initializing wave functions:  linear combination of atomic orbitals
Note: number of bands (6) exceeds available atomic orbitals (5)
K pseudo-atom occupations:   s ( 2 1 )  p ( 6 )
	FillingsUpdate:  mu: -0.087183024  nElectrons: 9.000000  magneticMoment: [ Abs: 0.92000  Tot: +0.92000 ]
LCAOMinimize: Iter:   0  F: -28.3816448048187020  |grad|_K:  4.337e-06  alpha:  1.000e+00
	FillingsUpdate:  mu: -0.087182416  nElectrons: 9.000000  magneticMoment: [ Abs: 0.92000  Tot: +0.92000 ]
LCAOMinimize: Iter:   1  F: -28.3816448176500060  |grad|_K:  1.994e-08  alpha:  9.973e-01  linmin: -3.553e-03  cgtest:  5.339e-02  t[s]:      8.91
LCAOMinimize: Encountered beta<0, resetting CG.
	FillingsUpdate:  mu: -0.087182420  nElectrons: 9.000000  magneticMoment: [ Abs: 0.92000  Tot: +0.92000 ]
LCAOMinimize: Iter:   2  F: -28.3816448176502405  |grad|_K:  3.533e-10  alpha:  9.756e-01  linmin: -6.379e-02  cgtest:  9.579e-01  t[s]:     11.31
LCAOMinimize: Encountered beta<0, resetting CG.
LCAOMinimize: Converged (|Delta F|<1.000000e-06 for 2 iters).


---- Citations for features of the code used in this run ----

   Software package:
      R. Sundararaman, K. Letchworth-Weaver, K.A. Schwarz, D. Gunceler, Y. Ozhabes and T.A. Arias, 'JDFTx: software for joint density-functional theory', SoftwareX 6, 278 (2017)

   gga-PBE exchange-correlation functional:
      J.P. Perdew, K. Burke and M. Ernzerhof, Phys. Rev. Lett. 77, 3865 (1996)

   Pseudopotentials:
      M Schlipf and F Gygi, Comput. Phys. Commun. 196, 36 (2015)

   Truncated Coulomb potentials:
      R. Sundararaman and T.A. Arias, Phys. Rev. B 87, 165122 (2013)

This list may not be complete. Please suggest additional citations or
report any other bugs at https://github.com/shankar1729/jdftx/issues

Initialization completed successfully at t[s]:     11.47


-------- Electronic minimization -----------
Will mix electronic density at each iteration.
	FillingsUpdate:  mu: -0.087182420  nElectrons: 9.000000  magneticMoment: [ Abs: 0.92000  Tot: +0.92000 ]
	FillingsUpdate:  mu: -0.087743783  nElectrons: 9.000000  magneticMoment: [ Abs: 0.92000  Tot: +0.92000 ]
SCF: Cycle:  0   F: -28.382554952468237   dF: -9.101e-04   |Residual|: 2.952e-03   |deigs|: 1.729e-01  t[s]:     16.28
	FillingsUpdate:  mu: -0.087829605  nElectrons: 9.000000  magneticMoment: [ Abs: 0.92107  Tot: +0.92000 ]
SCF: Cycle:  1   F: -28.382576694590682   dF: -2.174e-05   |Residual|: 1.647e-03   |deigs|: 5.388e-03  t[s]:     20.06
	FillingsUpdate:  mu: -0.088081254  nElectrons: 9.000000  magneticMoment: [ Abs: 0.92187  Tot: +0.92000 ]
SCF: Cycle:  2   F: -28.382589697427655   dF: -1.300e-05   |Residual|: 1.308e-03   |deigs|: 3.105e-03  t[s]:     23.86
	FillingsUpdate:  mu: -0.088233360  nElectrons: 9.000000  magneticMoment: [ Abs: 0.92241  Tot: +0.92000 ]
SCF: Cycle:  3   F: -28.382602199110824   dF: -1.250e-05   |Residual|: 9.682e-04   |deigs|: 2.232e-03  t[s]:     27.76
	FillingsUpdate:  mu: -0.088590660  nElectrons: 9.000000  magneticMoment: [ Abs: 0.92196  Tot: +0.92000 ]
SCF: Cycle:  4   F: -28.382616122931754   dF: -1.392e-05   |Residual|: 6.736e-04   |deigs|: 1.643e-03  t[s]:     31.65
	FillingsUpdate:  mu: -0.088659686  nElectrons: 9.000000  magneticMoment: [ Abs: 0.92214  Tot: +0.92000 ]
SCF: Cycle:  5   F: -28.382627219565311   dF: -1.110e-05   |Residual|: 3.738e-04   |deigs|: 6.995e-04  t[s]:     35.71
	FillingsUpdate:  mu: -0.088491553  nElectrons: 9.000000  magneticMoment: [ Abs: 0.92185  Tot: +0.92000 ]
SCF: Cycle:  6   F: -28.382631386263178   dF: -4.167e-06   |Residual|: 2.750e-04   |deigs|: 1.431e-03  t[s]:     39.70
	FillingsUpdate:  mu: -0.088363305  nElectrons: 9.000000  magneticMoment: [ Abs: 0.92219  Tot: +0.92000 ]
SCF: Cycle:  7   F: -28.382634166366064   dF: -2.780e-06   |Residual|: 2.061e-04   |deigs|: 1.123e-03  t[s]:     43.81
	FillingsUpdate:  mu: -0.088042373  nElectrons: 9.000000  magneticMoment: [ Abs: 0.92231  Tot: +0.92000 ]
SCF: Cycle:  8   F: -28.382635477535143   dF: -1.311e-06   |Residual|: 1.648e-04   |deigs|: 3.411e-04  t[s]:     47.96
	FillingsUpdate:  mu: -0.087918031  nElectrons: 9.000000  magneticMoment: [ Abs: 0.92249  Tot: +0.92000 ]
SCF: Cycle:  9   F: -28.382635730892957   dF: -2.534e-07   |Residual|: 1.511e-04   |deigs|: 1.238e-04  t[s]:     52.22
	FillingsUpdate:  mu: -0.087796188  nElectrons: 9.000000  magneticMoment: [ Abs: 0.92224  Tot: +0.92000 ]
SCF: Cycle: 10   F: -28.382636002853861   dF: -2.720e-07   |Residual|: 1.413e-04   |deigs|: 2.927e-04  t[s]:     56.54
	FillingsUpdate:  mu: -0.087760683  nElectrons: 9.000000  magneticMoment: [ Abs: 0.92297  Tot: +0.92000 ]
SCF: Cycle: 11   F: -28.382635871205917   dF: +1.316e-07   |Residual|: 1.039e-04   |deigs|: 1.960e-04  t[s]:     60.93
	FillingsUpdate:  mu: -0.087758103  nElectrons: 9.000000  magneticMoment: [ Abs: 0.92276  Tot: +0.92000 ]
SCF: Cycle: 12   F: -28.382637210330156   dF: -1.339e-06   |Residual|: 8.133e-05   |deigs|: 2.686e-04  t[s]:     65.22
	FillingsUpdate:  mu: -0.087615798  nElectrons: 9.000000  magneticMoment: [ Abs: 0.92294  Tot: +0.92000 ]
SCF: Cycle: 13   F: -28.382637658373607   dF: -4.480e-07   |Residual|: 8.543e-05   |deigs|: 2.012e-04  t[s]:     69.47
	FillingsUpdate:  mu: -0.087420202  nElectrons: 9.000000  magneticMoment: [ Abs: 0.92284  Tot: +0.92000 ]
SCF: Cycle: 14   F: -28.382637546310217   dF: +1.121e-07   |Residual|: 8.547e-05   |deigs|: 2.179e-04  t[s]:     73.77
	FillingsUpdate:  mu: -0.087242007  nElectrons: 9.000000  magneticMoment: [ Abs: 0.92270  Tot: +0.92000 ]
SCF: Cycle: 15   F: -28.382637556118592   dF: -9.808e-09   |Residual|: 7.146e-05   |deigs|: 1.963e-04  t[s]:     78.08
	FillingsUpdate:  mu: -0.087146701  nElectrons: 9.000000  magneticMoment: [ Abs: 0.92241  Tot: +0.92000 ]
SCF: Cycle: 16   F: -28.382637900008451   dF: -3.439e-07   |Residual|: 6.082e-05   |deigs|: 1.572e-04  t[s]:     82.44
	FillingsUpdate:  mu: -0.087028445  nElectrons: 9.000000  magneticMoment: [ Abs: 0.92216  Tot: +0.92000 ]
SCF: Cycle: 17   F: -28.382638235991013   dF: -3.360e-07   |Residual|: 5.375e-05   |deigs|: 1.458e-04  t[s]:     86.85
	FillingsUpdate:  mu: -0.087034725  nElectrons: 9.000000  magneticMoment: [ Abs: 0.92201  Tot: +0.92000 ]
SCF: Cycle: 18   F: -28.382638441084300   dF: -2.051e-07   |Residual|: 4.103e-05   |deigs|: 2.938e-05  t[s]:     91.13
	FillingsUpdate:  mu: -0.087023705  nElectrons: 9.000000  magneticMoment: [ Abs: 0.92205  Tot: +0.92000 ]
SCF: Cycle: 19   F: -28.382638361764652   dF: +7.932e-08   |Residual|: 2.646e-05   |deigs|: 2.882e-05  t[s]:     95.41
	FillingsUpdate:  mu: -0.087001345  nElectrons: 9.000000  magneticMoment: [ Abs: 0.92204  Tot: +0.92000 ]
SCF: Cycle: 20   F: -28.382638641350592   dF: -2.796e-07   |Residual|: 1.749e-05   |deigs|: 2.164e-05  t[s]:     99.77
	FillingsUpdate:  mu: -0.087020783  nElectrons: 9.000000  magneticMoment: [ Abs: 0.92200  Tot: +0.92000 ]
SCF: Cycle: 21   F: -28.382638703967778   dF: -6.262e-08   |Residual|: 1.203e-05   |deigs|: 3.092e-05  t[s]:    103.91
	FillingsUpdate:  mu: -0.087019584  nElectrons: 9.000000  magneticMoment: [ Abs: 0.92199  Tot: +0.92000 ]
SCF: Cycle: 22   F: -28.382638715343500   dF: -1.138e-08   |Residual|: 7.548e-06   |deigs|: 2.533e-05  t[s]:    108.09
	FillingsUpdate:  mu: -0.087019446  nElectrons: 9.000000  magneticMoment: [ Abs: 0.92203  Tot: +0.92000 ]
SCF: Cycle: 23   F: -28.382638737529398   dF: -2.219e-08   |Residual|: 5.352e-06   |deigs|: 3.684e-05  t[s]:    112.37
	FillingsUpdate:  mu: -0.087023948  nElectrons: 9.000000  magneticMoment: [ Abs: 0.92205  Tot: +0.92000 ]
SCF: Cycle: 24   F: -28.382638747784199   dF: -1.025e-08   |Residual|: 3.841e-06   |deigs|: 4.582e-05  t[s]:    116.56
	FillingsUpdate:  mu: -0.087023019  nElectrons: 9.000000  magneticMoment: [ Abs: 0.92203  Tot: +0.92000 ]
SCF: Cycle: 25   F: -28.382638754736210   dF: -6.952e-09   |Residual|: 2.973e-06   |deigs|: 5.326e-05  t[s]:    120.78
	FillingsUpdate:  mu: -0.087024365  nElectrons: 9.000000  magneticMoment: [ Abs: 0.92201  Tot: +0.92000 ]
SCF: Cycle: 26   F: -28.382638761348165   dF: -6.612e-09   |Residual|: 2.322e-06   |deigs|: 6.154e-05  t[s]:    125.03
SCF: Converged (|Delta E|<1.000000e-08 for 2 iters).


# Ionic positions in lattice coordinates:
ion K   0.000000000000000   0.000000000000000   0.000000000000000 0

# Forces in Lattice coordinates:
force K   0.000000000000000   0.000000000000000   0.000000000000000 0

# Energy components:
   Eewald =      -12.0320174002217755
       EH =       10.7696871331446413
     Eloc =      -29.9707407990935941
      Enl =       -2.7689004728826152
   Epulay =       -0.0000000016982517
      Exc =       -4.2452784491508861
       KE =        9.8646119589669254
-------------------------------------
     Etot =      -28.3826380309355599
       TS =        0.0000007304126033
-------------------------------------
        F =      -28.3826387613481650

IonicMinimize: Iter:   0  F: -28.382638761348165  |grad|_K:  0.000e+00  t[s]:    125.29
IonicMinimize: Converged (|grad|_K<1.000000e-04).

#--- Lowdin population analysis ---
# oxidation-state K +0.019
# magnetic-moments K +0.902

End date and time: Sat Feb  5 23:57:47 2022  (Duration: 0-0:02:05.35)
Done!
