
*************** JDFTx 1.6.0 (git hash 42ebbcc2) ***************

Start date and time: Sat Feb  5 23:50:25 2022
Executable jdftx with command-line: -i Alkali.in
Running on hosts (process indices):  d-6-8-2 (0-18)
Divided in process groups (process indices):  0 (0)  1 (1)  2 (2)  3 (3)  4 (4)  5 (5)  6 (6)  7 (7)  8 (8)  9 (9)  10 (10)  11 (11)  12 (12)  13 (13)  14 (14)  15 (15)  16 (16)  17 (17)  18 (18)
Resource initialization completed at t[s]:      0.00
Run totals: 19 processes, 48 threads, 0 GPUs


Input parsed successfully to the following command list (including defaults):

basis kpoint-dependent
coords-type Lattice
core-overlap-check vector
coulomb-interaction Slab 001
davidson-band-ratio 1.1
dump End None
dump-name $INPUT.$VAR
elec-cutoff 20
elec-eigen-algo Davidson
elec-ex-corr gga-PBE
elec-initial-magnetization 0.700000 yes
elec-smearing Fermi 1e-05
electronic-minimize  \
	dirUpdateScheme      FletcherReeves \
	linminMethod         DirUpdateRecommended \
	nIterations          100 \
	history              15 \
	knormThreshold       0 \
	energyDiffThreshold  1e-08 \
	nEnergyDiff          2 \
	alphaTstart          1 \
	alphaTmin            1e-10 \
	updateTestStepSize   yes \
	alphaTreduceFactor   0.1 \
	alphaTincreaseFactor 3 \
	nAlphaAdjustMax      3 \
	wolfeEnergy          0.0001 \
	wolfeGradient        0.9 \
	fdTest               no
electronic-scf  \
	nIterations	10000 \
	energyDiffThreshold	1e-08 \
	residualThreshold	1e-07 \
	mixFraction	0.5 \
	qMetric	0.8 \
	history	10 \
	nEigSteps	2 \
	eigDiffThreshold	1e-08 \
	mixedVariable	Density \
	qKerker	0.8 \
	qKappa	-1 \
	verbose	no \
	mixFractionMag	1.5
exchange-regularization WignerSeitzTruncated
fluid None
fluid-ex-corr (null) lda-PZ
fluid-gummel-loop 10 1.000000e-05
fluid-minimize  \
	dirUpdateScheme      PolakRibiere \
	linminMethod         DirUpdateRecommended \
	nIterations          100 \
	history              15 \
	knormThreshold       0 \
	energyDiffThreshold  0 \
	nEnergyDiff          2 \
	alphaTstart          1 \
	alphaTmin            1e-10 \
	updateTestStepSize   yes \
	alphaTreduceFactor   0.1 \
	alphaTincreaseFactor 3 \
	nAlphaAdjustMax      3 \
	wolfeEnergy          0.0001 \
	wolfeGradient        0.9 \
	fdTest               no
fluid-solvent H2O 55.338 ScalarEOS \
	epsBulk 78.4 \
	pMol 0.92466 \
	epsInf 1.77 \
	Pvap 1.06736e-10 \
	sigmaBulk 4.62e-05 \
	Rvdw 2.61727 \
	Res 1.42 \
	tauNuc 343133 \
	poleEl 15 7 1
forces-output-coords Positions
ion K   0.000000000000000   0.000000000000000   0.000000000000000 0
ion-species SG15/$ID_ONCV_PBE.upf
ion-width 0
ionic-minimize  \
	dirUpdateScheme      L-BFGS \
	linminMethod         DirUpdateRecommended \
	nIterations          0 \
	history              15 \
	knormThreshold       0.0001 \
	energyDiffThreshold  1e-06 \
	nEnergyDiff          2 \
	alphaTstart          1 \
	alphaTmin            1e-10 \
	updateTestStepSize   yes \
	alphaTreduceFactor   0.1 \
	alphaTincreaseFactor 3 \
	nAlphaAdjustMax      3 \
	wolfeEnergy          0.0001 \
	wolfeGradient        0.9 \
	fdTest               no
kpoint   0.000000000000   0.000000000000   0.000000000000  1.00000000000000
kpoint-folding 12 12 1 
latt-move-scale 1 1 1
latt-scale 3 3 1 
lattice  \
	   4.727486978767153   -2.363743489383575    0.000000000000000  \
	  -0.000000000000000    4.094123819672498    0.000000000000000  \
	   0.000000000000000    0.000000000000000   40.000000000000000 
lattice-minimize  \
	dirUpdateScheme      L-BFGS \
	linminMethod         DirUpdateRecommended \
	nIterations          0 \
	history              15 \
	knormThreshold       0 \
	energyDiffThreshold  1e-06 \
	nEnergyDiff          2 \
	alphaTstart          1 \
	alphaTmin            1e-10 \
	updateTestStepSize   yes \
	alphaTreduceFactor   0.1 \
	alphaTincreaseFactor 3 \
	nAlphaAdjustMax      3 \
	wolfeEnergy          0.0001 \
	wolfeGradient        0.9 \
	fdTest               no
lcao-params -1 1e-06 1e-05
pcm-variant GLSSA13
spintype z-spin
subspace-rotation-factor 1 yes
symmetries automatic
symmetry-threshold 0.0001



---------- Setting up symmetries ----------

Found 24 point-group symmetries of the bravais lattice
Found 24 space-group symmetries with basis
Applied RMS atom displacement 0 bohrs to make symmetries exact.

---------- Initializing the Grid ----------
R = 
[      14.1825     -7.09123            0  ]
[            0      12.2824            0  ]
[            0            0           40  ]
unit cell volume = 6967.77
G =
[   0.443025   0.255781         -0  ]
[          0   0.511561         -0  ]
[         -0         -0    0.15708  ]
Minimum fftbox size, Smin = [  60  60  164  ]
Chosen fftbox size, S = [  60  60  168  ]

---------- Exchange Correlation functional ----------
Initalized PBE GGA exchange.
Initalized PBE GGA correlation.

---------- Setting up pseudopotentials ----------
Width of ionic core gaussian charges (only for fluid interactions / plotting) set to 0

Reading pseudopotential file '/home/gridsan/aligho/DFT/build-Nov24/pseudopotentials/SG15/K_ONCV_PBE.upf':
  'K' pseudopotential, 'PBE' functional
  Generated using ONCVPSP code by D. R. Hamann
  Author: Martin Schlipf and Francois Gygi  Date: 150915.
  9 valence electrons, 3 orbitals, 6 projectors, 2222 radial grid points, with lMax = 2
  Transforming local potential to a uniform radial grid of dG=0.02 with 1489 points.
  Transforming nonlocal projectors to a uniform radial grid of dG=0.02 with 432 points.
    3S    l: 0   occupation:  2.0   eigenvalue: -1.298836
    3P    l: 1   occupation:  6.0   eigenvalue: -0.691386
    4S    l: 0   occupation:  1.0   eigenvalue: -0.085223
  Transforming atomic orbitals to a uniform radial grid of dG=0.02 with 432 points.
  Core radius for overlap checks: 2.06 bohrs.
  Reading pulay file /home/gridsan/aligho/DFT/build-Nov24/pseudopotentials/SG15/K_ONCV_PBE.pulay ... using dE_dnG = -1.597219e-05 computed for Ecut = 20.

Initialized 1 species with 1 total atoms.

Folded 1 k-points by 12x12x1 to 144 k-points.

---------- Setting up k-points, bands, fillings ----------
Reduced to 19 k-points under symmetry. 
Computing the number of bands and number of electrons
Calculating initial fillings.
nElectrons:   9.000000   nBands: 6   nStates: 38

----- Setting up reduced wavefunction bases (one per k-point) -----
average nbasis = 29766.104 , ideal nbasis = 29766.845

---------- Setting up coulomb interaction ----------
Initialized slab truncation along lattice direction 001

---------- Setting up 2D ewald sum ----------
Optimum gaussian width for ewald sums = 7.873530 bohr.
Real space sums over 289 unit cells with max indices [  8  8  0  ]
Reciprocal space sums over 81 terms with max indices [  4  4  0  ]

---------- Allocating electronic variables ----------
Initializing wave functions:  linear combination of atomic orbitals
Note: number of bands (6) exceeds available atomic orbitals (5)
K pseudo-atom occupations:   s ( 2 1 )  p ( 6 )
	FillingsUpdate:  mu: -0.088279660  nElectrons: 9.000000  magneticMoment: [ Abs: 0.70000  Tot: +0.70000 ]
LCAOMinimize: Iter:   0  F: -28.3820936561892267  |grad|_K:  9.802e-06  alpha:  1.000e+00
	FillingsUpdate:  mu: -0.088277897  nElectrons: 9.000000  magneticMoment: [ Abs: 0.70000  Tot: +0.70000 ]
LCAOMinimize: Iter:   1  F: -28.3820937213986575  |grad|_K:  6.390e-08  alpha:  9.922e-01  linmin: -8.300e-03  cgtest:  2.175e-01  t[s]:      8.65
LCAOMinimize: Encountered beta<0, resetting CG.
	FillingsUpdate:  mu: -0.088277902  nElectrons: 9.000000  magneticMoment: [ Abs: 0.70000  Tot: +0.70000 ]
LCAOMinimize: Iter:   2  F: -28.3820937214011977  |grad|_K:  1.106e-08  alpha:  8.252e-01  linmin: -1.105e-01  cgtest:  9.997e-01  t[s]:     11.03
LCAOMinimize: Encountered beta<0, resetting CG.
LCAOMinimize: Converged (|Delta F|<1.000000e-06 for 2 iters).


---- Citations for features of the code used in this run ----

   Software package:
      R. Sundararaman, K. Letchworth-Weaver, K.A. Schwarz, D. Gunceler, Y. Ozhabes and T.A. Arias, 'JDFTx: software for joint density-functional theory', SoftwareX 6, 278 (2017)

   gga-PBE exchange-correlation functional:
      J.P. Perdew, K. Burke and M. Ernzerhof, Phys. Rev. Lett. 77, 3865 (1996)

   Pseudopotentials:
      M Schlipf and F Gygi, Comput. Phys. Commun. 196, 36 (2015)

   Truncated Coulomb potentials:
      R. Sundararaman and T.A. Arias, Phys. Rev. B 87, 165122 (2013)

This list may not be complete. Please suggest additional citations or
report any other bugs at https://github.com/shankar1729/jdftx/issues

Initialization completed successfully at t[s]:     11.19


-------- Electronic minimization -----------
Will mix electronic density at each iteration.
	FillingsUpdate:  mu: -0.088277902  nElectrons: 9.000000  magneticMoment: [ Abs: 0.70000  Tot: +0.70000 ]
	FillingsUpdate:  mu: -0.089044797  nElectrons: 9.000000  magneticMoment: [ Abs: 0.70000  Tot: +0.70000 ]
SCF: Cycle:  0   F: -28.383220265879896   dF: -1.127e-03   |Residual|: 3.301e-03   |deigs|: 1.740e-01  t[s]:     15.95
	FillingsUpdate:  mu: -0.089196827  nElectrons: 9.000000  magneticMoment: [ Abs: 0.70020  Tot: +0.70000 ]
SCF: Cycle:  1   F: -28.383253115480166   dF: -3.285e-05   |Residual|: 2.308e-03   |deigs|: 5.111e-03  t[s]:     19.66
	FillingsUpdate:  mu: -0.089313082  nElectrons: 9.000000  magneticMoment: [ Abs: 0.70135  Tot: +0.70000 ]
SCF: Cycle:  2   F: -28.383276758521582   dF: -2.364e-05   |Residual|: 1.770e-03   |deigs|: 2.962e-03  t[s]:     23.38
	FillingsUpdate:  mu: -0.089559612  nElectrons: 9.000000  magneticMoment: [ Abs: 0.70170  Tot: +0.70000 ]
SCF: Cycle:  3   F: -28.383296155219757   dF: -1.940e-05   |Residual|: 1.253e-03   |deigs|: 1.813e-03  t[s]:     27.13
	FillingsUpdate:  mu: -0.089697586  nElectrons: 9.000000  magneticMoment: [ Abs: 0.70115  Tot: +0.70000 ]
SCF: Cycle:  4   F: -28.383309784684794   dF: -1.363e-05   |Residual|: 7.362e-04   |deigs|: 2.162e-03  t[s]:     30.99
	FillingsUpdate:  mu: -0.089812593  nElectrons: 9.000000  magneticMoment: [ Abs: 0.70144  Tot: +0.70000 ]
SCF: Cycle:  5   F: -28.383317062874028   dF: -7.278e-06   |Residual|: 4.093e-04   |deigs|: 1.490e-03  t[s]:     34.93
	FillingsUpdate:  mu: -0.089775783  nElectrons: 9.000000  magneticMoment: [ Abs: 0.70112  Tot: +0.70000 ]
SCF: Cycle:  6   F: -28.383320493430340   dF: -3.431e-06   |Residual|: 2.884e-04   |deigs|: 1.151e-03  t[s]:     38.81
	FillingsUpdate:  mu: -0.089655921  nElectrons: 9.000000  magneticMoment: [ Abs: 0.70145  Tot: +0.70000 ]
SCF: Cycle:  7   F: -28.383322539810560   dF: -2.046e-06   |Residual|: 2.250e-04   |deigs|: 8.497e-04  t[s]:     42.80
	FillingsUpdate:  mu: -0.089524846  nElectrons: 9.000000  magneticMoment: [ Abs: 0.70166  Tot: +0.70000 ]
SCF: Cycle:  8   F: -28.383323110582570   dF: -5.708e-07   |Residual|: 1.800e-04   |deigs|: 5.648e-04  t[s]:     46.91
	FillingsUpdate:  mu: -0.089277324  nElectrons: 9.000000  magneticMoment: [ Abs: 0.70211  Tot: +0.70000 ]
SCF: Cycle:  9   F: -28.383323243770946   dF: -1.332e-07   |Residual|: 1.576e-04   |deigs|: 3.227e-04  t[s]:     51.06
	FillingsUpdate:  mu: -0.089105723  nElectrons: 9.000000  magneticMoment: [ Abs: 0.70190  Tot: +0.70000 ]
SCF: Cycle: 10   F: -28.383323430746255   dF: -1.870e-07   |Residual|: 1.479e-04   |deigs|: 1.997e-04  t[s]:     55.31
	FillingsUpdate:  mu: -0.088881026  nElectrons: 9.000000  magneticMoment: [ Abs: 0.70241  Tot: +0.70000 ]
SCF: Cycle: 11   F: -28.383324186035654   dF: -7.553e-07   |Residual|: 1.192e-04   |deigs|: 2.315e-04  t[s]:     59.51
	FillingsUpdate:  mu: -0.088893842  nElectrons: 9.000000  magneticMoment: [ Abs: 0.70197  Tot: +0.70000 ]
SCF: Cycle: 12   F: -28.383324957793203   dF: -7.718e-07   |Residual|: 9.578e-05   |deigs|: 8.817e-05  t[s]:     63.73
	FillingsUpdate:  mu: -0.088660989  nElectrons: 9.000000  magneticMoment: [ Abs: 0.70165  Tot: +0.70000 ]
SCF: Cycle: 13   F: -28.383325073553351   dF: -1.158e-07   |Residual|: 9.592e-05   |deigs|: 2.552e-04  t[s]:     67.98
	FillingsUpdate:  mu: -0.088471737  nElectrons: 9.000000  magneticMoment: [ Abs: 0.70181  Tot: +0.70000 ]
SCF: Cycle: 14   F: -28.383324900983215   dF: +1.726e-07   |Residual|: 9.352e-05   |deigs|: 2.064e-04  t[s]:     72.22
	FillingsUpdate:  mu: -0.088233208  nElectrons: 9.000000  magneticMoment: [ Abs: 0.70206  Tot: +0.70000 ]
SCF: Cycle: 15   F: -28.383325113407974   dF: -2.124e-07   |Residual|: 8.259e-05   |deigs|: 3.311e-04  t[s]:     76.45
	FillingsUpdate:  mu: -0.088218244  nElectrons: 9.000000  magneticMoment: [ Abs: 0.70159  Tot: +0.70000 ]
SCF: Cycle: 16   F: -28.383325578495146   dF: -4.651e-07   |Residual|: 6.619e-05   |deigs|: 1.378e-04  t[s]:     80.70
	FillingsUpdate:  mu: -0.088125756  nElectrons: 9.000000  magneticMoment: [ Abs: 0.70131  Tot: +0.70000 ]
SCF: Cycle: 17   F: -28.383325825872440   dF: -2.474e-07   |Residual|: 5.159e-05   |deigs|: 1.982e-04  t[s]:     84.94
	FillingsUpdate:  mu: -0.088056806  nElectrons: 9.000000  magneticMoment: [ Abs: 0.70132  Tot: +0.70000 ]
SCF: Cycle: 18   F: -28.383326018299083   dF: -1.924e-07   |Residual|: 3.125e-05   |deigs|: 3.132e-04  t[s]:     89.12
	FillingsUpdate:  mu: -0.088044647  nElectrons: 9.000000  magneticMoment: [ Abs: 0.70131  Tot: +0.70000 ]
SCF: Cycle: 19   F: -28.383326092003539   dF: -7.370e-08   |Residual|: 2.091e-05   |deigs|: 3.835e-05  t[s]:     93.27
	FillingsUpdate:  mu: -0.088043733  nElectrons: 9.000000  magneticMoment: [ Abs: 0.70128  Tot: +0.70000 ]
SCF: Cycle: 20   F: -28.383326137116395   dF: -4.511e-08   |Residual|: 1.337e-05   |deigs|: 2.815e-05  t[s]:     97.47
	FillingsUpdate:  mu: -0.088049352  nElectrons: 9.000000  magneticMoment: [ Abs: 0.70130  Tot: +0.70000 ]
SCF: Cycle: 21   F: -28.383326159799328   dF: -2.268e-08   |Residual|: 7.405e-06   |deigs|: 2.473e-05  t[s]:    101.61
	FillingsUpdate:  mu: -0.088046298  nElectrons: 9.000000  magneticMoment: [ Abs: 0.70130  Tot: +0.70000 ]
SCF: Cycle: 22   F: -28.383326175513485   dF: -1.571e-08   |Residual|: 4.994e-06   |deigs|: 1.710e-05  t[s]:    105.71
	FillingsUpdate:  mu: -0.088047278  nElectrons: 9.000000  magneticMoment: [ Abs: 0.70131  Tot: +0.70000 ]
SCF: Cycle: 23   F: -28.383326184860731   dF: -9.347e-09   |Residual|: 3.137e-06   |deigs|: 1.560e-05  t[s]:    109.77
	FillingsUpdate:  mu: -0.088048939  nElectrons: 9.000000  magneticMoment: [ Abs: 0.70131  Tot: +0.70000 ]
SCF: Cycle: 24   F: -28.383326190749294   dF: -5.889e-09   |Residual|: 2.367e-06   |deigs|: 1.870e-05  t[s]:    113.85
SCF: Converged (|Delta E|<1.000000e-08 for 2 iters).


# Ionic positions in lattice coordinates:
ion K   0.000000000000000   0.000000000000000   0.000000000000000 0

# Forces in Lattice coordinates:
force K   0.000000000000000  -0.000000000000000   0.000000000000000 0

# Energy components:
   Eewald =      -12.0320174002217755
       EH =       10.7405363626000501
     Eloc =      -29.9383987731671830
      Enl =       -2.7704330088426263
   Epulay =       -0.0000000016982517
      Exc =       -4.2410233411313358
       KE =        9.8580105512013354
-------------------------------------
     Etot =      -28.3833256112597887
       TS =        0.0000005794895062
-------------------------------------
        F =      -28.3833261907492940

IonicMinimize: Iter:   0  F: -28.383326190749294  |grad|_K:  0.000e+00  t[s]:    114.11
IonicMinimize: Converged (|grad|_K<1.000000e-04).

#--- Lowdin population analysis ---
# oxidation-state K +0.025
# magnetic-moments K +0.678

End date and time: Sat Feb  5 23:52:20 2022  (Duration: 0-0:01:54.15)
Done!
