
*************** JDFTx 1.6.0 (git hash 42ebbcc2) ***************

Start date and time: Sat Feb  5 23:38:23 2022
Executable jdftx with command-line: -i Alkali.in
Running on hosts (process indices):  d-4-6-1 (0-18)
Divided in process groups (process indices):  0 (0)  1 (1)  2 (2)  3 (3)  4 (4)  5 (5)  6 (6)  7 (7)  8 (8)  9 (9)  10 (10)  11 (11)  12 (12)  13 (13)  14 (14)  15 (15)  16 (16)  17 (17)  18 (18)
Resource initialization completed at t[s]:      0.00
Run totals: 19 processes, 48 threads, 0 GPUs


Input parsed successfully to the following command list (including defaults):

basis kpoint-dependent
coords-type Lattice
core-overlap-check vector
coulomb-interaction Slab 001
davidson-band-ratio 1.1
dump End None
dump-name $INPUT.$VAR
elec-cutoff 20
elec-eigen-algo Davidson
elec-ex-corr gga-PBE
elec-initial-magnetization -0.140000 yes
elec-smearing Fermi 1e-05
electronic-minimize  \
	dirUpdateScheme      FletcherReeves \
	linminMethod         DirUpdateRecommended \
	nIterations          100 \
	history              15 \
	knormThreshold       0 \
	energyDiffThreshold  1e-08 \
	nEnergyDiff          2 \
	alphaTstart          1 \
	alphaTmin            1e-10 \
	updateTestStepSize   yes \
	alphaTreduceFactor   0.1 \
	alphaTincreaseFactor 3 \
	nAlphaAdjustMax      3 \
	wolfeEnergy          0.0001 \
	wolfeGradient        0.9 \
	fdTest               no
electronic-scf  \
	nIterations	10000 \
	energyDiffThreshold	1e-08 \
	residualThreshold	1e-07 \
	mixFraction	0.5 \
	qMetric	0.8 \
	history	10 \
	nEigSteps	2 \
	eigDiffThreshold	1e-08 \
	mixedVariable	Density \
	qKerker	0.8 \
	qKappa	-1 \
	verbose	no \
	mixFractionMag	1.5
exchange-regularization WignerSeitzTruncated
fluid None
fluid-ex-corr (null) lda-PZ
fluid-gummel-loop 10 1.000000e-05
fluid-minimize  \
	dirUpdateScheme      PolakRibiere \
	linminMethod         DirUpdateRecommended \
	nIterations          100 \
	history              15 \
	knormThreshold       0 \
	energyDiffThreshold  0 \
	nEnergyDiff          2 \
	alphaTstart          1 \
	alphaTmin            1e-10 \
	updateTestStepSize   yes \
	alphaTreduceFactor   0.1 \
	alphaTincreaseFactor 3 \
	nAlphaAdjustMax      3 \
	wolfeEnergy          0.0001 \
	wolfeGradient        0.9 \
	fdTest               no
fluid-solvent H2O 55.338 ScalarEOS \
	epsBulk 78.4 \
	pMol 0.92466 \
	epsInf 1.77 \
	Pvap 1.06736e-10 \
	sigmaBulk 4.62e-05 \
	Rvdw 2.61727 \
	Res 1.42 \
	tauNuc 343133 \
	poleEl 15 7 1
forces-output-coords Positions
ion K   0.000000000000000   0.000000000000000   0.000000000000000 0
ion-species SG15/$ID_ONCV_PBE.upf
ion-width 0
ionic-minimize  \
	dirUpdateScheme      L-BFGS \
	linminMethod         DirUpdateRecommended \
	nIterations          0 \
	history              15 \
	knormThreshold       0.0001 \
	energyDiffThreshold  1e-06 \
	nEnergyDiff          2 \
	alphaTstart          1 \
	alphaTmin            1e-10 \
	updateTestStepSize   yes \
	alphaTreduceFactor   0.1 \
	alphaTincreaseFactor 3 \
	nAlphaAdjustMax      3 \
	wolfeEnergy          0.0001 \
	wolfeGradient        0.9 \
	fdTest               no
kpoint   0.000000000000   0.000000000000   0.000000000000  1.00000000000000
kpoint-folding 12 12 1 
latt-move-scale 1 1 1
latt-scale 3 3 1 
lattice  \
	   4.727486978767153   -2.363743489383575    0.000000000000000  \
	  -0.000000000000000    4.094123819672498    0.000000000000000  \
	   0.000000000000000    0.000000000000000   40.000000000000000 
lattice-minimize  \
	dirUpdateScheme      L-BFGS \
	linminMethod         DirUpdateRecommended \
	nIterations          0 \
	history              15 \
	knormThreshold       0 \
	energyDiffThreshold  1e-06 \
	nEnergyDiff          2 \
	alphaTstart          1 \
	alphaTmin            1e-10 \
	updateTestStepSize   yes \
	alphaTreduceFactor   0.1 \
	alphaTincreaseFactor 3 \
	nAlphaAdjustMax      3 \
	wolfeEnergy          0.0001 \
	wolfeGradient        0.9 \
	fdTest               no
lcao-params -1 1e-06 1e-05
pcm-variant GLSSA13
spintype z-spin
subspace-rotation-factor 1 yes
symmetries automatic
symmetry-threshold 0.0001



---------- Setting up symmetries ----------

Found 24 point-group symmetries of the bravais lattice
Found 24 space-group symmetries with basis
Applied RMS atom displacement 0 bohrs to make symmetries exact.

---------- Initializing the Grid ----------
R = 
[      14.1825     -7.09123            0  ]
[            0      12.2824            0  ]
[            0            0           40  ]
unit cell volume = 6967.77
G =
[   0.443025   0.255781         -0  ]
[          0   0.511561         -0  ]
[         -0         -0    0.15708  ]
Minimum fftbox size, Smin = [  60  60  164  ]
Chosen fftbox size, S = [  60  60  168  ]

---------- Exchange Correlation functional ----------
Initalized PBE GGA exchange.
Initalized PBE GGA correlation.

---------- Setting up pseudopotentials ----------
Width of ionic core gaussian charges (only for fluid interactions / plotting) set to 0

Reading pseudopotential file '/home/gridsan/aligho/DFT/build-Nov24/pseudopotentials/SG15/K_ONCV_PBE.upf':
  'K' pseudopotential, 'PBE' functional
  Generated using ONCVPSP code by D. R. Hamann
  Author: Martin Schlipf and Francois Gygi  Date: 150915.
  9 valence electrons, 3 orbitals, 6 projectors, 2222 radial grid points, with lMax = 2
  Transforming local potential to a uniform radial grid of dG=0.02 with 1489 points.
  Transforming nonlocal projectors to a uniform radial grid of dG=0.02 with 432 points.
    3S    l: 0   occupation:  2.0   eigenvalue: -1.298836
    3P    l: 1   occupation:  6.0   eigenvalue: -0.691386
    4S    l: 0   occupation:  1.0   eigenvalue: -0.085223
  Transforming atomic orbitals to a uniform radial grid of dG=0.02 with 432 points.
  Core radius for overlap checks: 2.06 bohrs.
  Reading pulay file /home/gridsan/aligho/DFT/build-Nov24/pseudopotentials/SG15/K_ONCV_PBE.pulay ... using dE_dnG = -1.597219e-05 computed for Ecut = 20.

Initialized 1 species with 1 total atoms.

Folded 1 k-points by 12x12x1 to 144 k-points.

---------- Setting up k-points, bands, fillings ----------
Reduced to 19 k-points under symmetry. 
Computing the number of bands and number of electrons
Calculating initial fillings.
nElectrons:   9.000000   nBands: 6   nStates: 38

----- Setting up reduced wavefunction bases (one per k-point) -----
average nbasis = 29766.104 , ideal nbasis = 29766.845

---------- Setting up coulomb interaction ----------
Initialized slab truncation along lattice direction 001

---------- Setting up 2D ewald sum ----------
Optimum gaussian width for ewald sums = 7.873530 bohr.
Real space sums over 289 unit cells with max indices [  8  8  0  ]
Reciprocal space sums over 81 terms with max indices [  4  4  0  ]

---------- Allocating electronic variables ----------
Initializing wave functions:  linear combination of atomic orbitals
Note: number of bands (6) exceeds available atomic orbitals (5)
K pseudo-atom occupations:   s ( 2 1 )  p ( 6 )
	FillingsUpdate:  mu: -0.086364160  nElectrons: 9.000000  magneticMoment: [ Abs: 0.14000  Tot: -0.14000 ]
LCAOMinimize: Iter:   0  F: -28.3829458808096042  |grad|_K:  1.878e-05  alpha:  1.000e+00
	FillingsUpdate:  mu: -0.086360472  nElectrons: 9.000000  magneticMoment: [ Abs: 0.14000  Tot: -0.14000 ]
LCAOMinimize: Iter:   1  F: -28.3829461190433996  |grad|_K:  1.400e-07  alpha:  9.881e-01  linmin: -1.494e-02  cgtest:  4.708e-01  t[s]:      8.87
LCAOMinimize: Encountered beta<0, resetting CG.
	FillingsUpdate:  mu: -0.086360470  nElectrons: 9.000000  magneticMoment: [ Abs: 0.14000  Tot: -0.14000 ]
LCAOMinimize: Iter:   2  F: -28.3829461190571557  |grad|_K:  9.810e-10  alpha:  1.007e+00  linmin:  4.437e-02  cgtest: -9.596e-01  t[s]:     11.26
LCAOMinimize: Converged (|Delta F|<1.000000e-06 for 2 iters).


---- Citations for features of the code used in this run ----

   Software package:
      R. Sundararaman, K. Letchworth-Weaver, K.A. Schwarz, D. Gunceler, Y. Ozhabes and T.A. Arias, 'JDFTx: software for joint density-functional theory', SoftwareX 6, 278 (2017)

   gga-PBE exchange-correlation functional:
      J.P. Perdew, K. Burke and M. Ernzerhof, Phys. Rev. Lett. 77, 3865 (1996)

   Pseudopotentials:
      M Schlipf and F Gygi, Comput. Phys. Commun. 196, 36 (2015)

   Truncated Coulomb potentials:
      R. Sundararaman and T.A. Arias, Phys. Rev. B 87, 165122 (2013)

This list may not be complete. Please suggest additional citations or
report any other bugs at https://github.com/shankar1729/jdftx/issues

Initialization completed successfully at t[s]:     11.43


-------- Electronic minimization -----------
Will mix electronic density at each iteration.
	FillingsUpdate:  mu: -0.086360470  nElectrons: 9.000000  magneticMoment: [ Abs: 0.14000  Tot: -0.14000 ]
	FillingsUpdate:  mu: -0.088288764  nElectrons: 9.000000  magneticMoment: [ Abs: 0.14000  Tot: -0.14000 ]
SCF: Cycle:  0   F: -28.384434193549954   dF: -1.488e-03   |Residual|: 3.339e-03   |deigs|: 1.746e-01  t[s]:     16.26
	FillingsUpdate:  mu: -0.088508511  nElectrons: 9.000000  magneticMoment: [ Abs: 0.14000  Tot: -0.14000 ]
SCF: Cycle:  1   F: -28.384456823449710   dF: -2.263e-05   |Residual|: 2.866e-03   |deigs|: 4.743e-03  t[s]:     20.10
	FillingsUpdate:  mu: -0.089151063  nElectrons: 9.000000  magneticMoment: [ Abs: 0.14178  Tot: -0.14000 ]
SCF: Cycle:  2   F: -28.384487740568126   dF: -3.092e-05   |Residual|: 1.386e-03   |deigs|: 2.653e-03  t[s]:     23.93
	FillingsUpdate:  mu: -0.089342109  nElectrons: 9.000000  magneticMoment: [ Abs: 0.14043  Tot: -0.14000 ]
SCF: Cycle:  3   F: -28.384497280007189   dF: -9.539e-06   |Residual|: 8.172e-04   |deigs|: 2.945e-03  t[s]:     27.81
	FillingsUpdate:  mu: -0.089284616  nElectrons: 9.000000  magneticMoment: [ Abs: 0.14015  Tot: -0.14000 ]
SCF: Cycle:  4   F: -28.384502972074323   dF: -5.692e-06   |Residual|: 5.108e-04   |deigs|: 1.367e-03  t[s]:     31.71
	FillingsUpdate:  mu: -0.089236405  nElectrons: 9.000000  magneticMoment: [ Abs: 0.14023  Tot: -0.14000 ]
SCF: Cycle:  5   F: -28.384506109017824   dF: -3.137e-06   |Residual|: 3.681e-04   |deigs|: 1.902e-03  t[s]:     35.81
	FillingsUpdate:  mu: -0.089087615  nElectrons: 9.000000  magneticMoment: [ Abs: 0.14014  Tot: -0.14000 ]
SCF: Cycle:  6   F: -28.384507654074799   dF: -1.545e-06   |Residual|: 2.764e-04   |deigs|: 1.567e-03  t[s]:     39.85
	FillingsUpdate:  mu: -0.088896862  nElectrons: 9.000000  magneticMoment: [ Abs: 0.14040  Tot: -0.14000 ]
SCF: Cycle:  7   F: -28.384508307834192   dF: -6.538e-07   |Residual|: 2.145e-04   |deigs|: 1.145e-03  t[s]:     43.94
	FillingsUpdate:  mu: -0.088712802  nElectrons: 9.000000  magneticMoment: [ Abs: 0.14067  Tot: -0.14000 ]
SCF: Cycle:  8   F: -28.384508482705950   dF: -1.749e-07   |Residual|: 1.771e-04   |deigs|: 4.036e-04  t[s]:     48.15
	FillingsUpdate:  mu: -0.088534722  nElectrons: 9.000000  magneticMoment: [ Abs: 0.14067  Tot: -0.14000 ]
SCF: Cycle:  9   F: -28.384508486054852   dF: -3.349e-09   |Residual|: 1.670e-04   |deigs|: 1.789e-04  t[s]:     52.45
	FillingsUpdate:  mu: -0.088293343  nElectrons: 9.000000  magneticMoment: [ Abs: 0.14064  Tot: -0.14000 ]
SCF: Cycle: 10   F: -28.384508702850390   dF: -2.168e-07   |Residual|: 1.448e-04   |deigs|: 3.293e-04  t[s]:     56.83
	FillingsUpdate:  mu: -0.088161813  nElectrons: 9.000000  magneticMoment: [ Abs: 0.14065  Tot: -0.14000 ]
SCF: Cycle: 11   F: -28.384508916949379   dF: -2.141e-07   |Residual|: 1.187e-04   |deigs|: 3.473e-04  t[s]:     61.14
	FillingsUpdate:  mu: -0.088016044  nElectrons: 9.000000  magneticMoment: [ Abs: 0.14058  Tot: -0.14000 ]
SCF: Cycle: 12   F: -28.384509079834281   dF: -1.629e-07   |Residual|: 9.997e-05   |deigs|: 2.456e-04  t[s]:     65.50
	FillingsUpdate:  mu: -0.087816076  nElectrons: 9.000000  magneticMoment: [ Abs: 0.14042  Tot: -0.14000 ]
SCF: Cycle: 13   F: -28.384508960324691   dF: +1.195e-07   |Residual|: 1.001e-04   |deigs|: 2.127e-04  t[s]:     69.86
	FillingsUpdate:  mu: -0.087625599  nElectrons: 9.000000  magneticMoment: [ Abs: 0.14027  Tot: -0.14000 ]
SCF: Cycle: 14   F: -28.384508866806843   dF: +9.352e-08   |Residual|: 9.552e-05   |deigs|: 2.179e-04  t[s]:     74.20
	FillingsUpdate:  mu: -0.087481318  nElectrons: 9.000000  magneticMoment: [ Abs: 0.14076  Tot: -0.14000 ]
SCF: Cycle: 15   F: -28.384509353072634   dF: -4.863e-07   |Residual|: 8.356e-05   |deigs|: 3.135e-04  t[s]:     78.54
	FillingsUpdate:  mu: -0.087424412  nElectrons: 9.000000  magneticMoment: [ Abs: 0.14053  Tot: -0.14000 ]
SCF: Cycle: 16   F: -28.384509756024684   dF: -4.030e-07   |Residual|: 6.494e-05   |deigs|: 1.056e-04  t[s]:     82.95
	FillingsUpdate:  mu: -0.087317348  nElectrons: 9.000000  magneticMoment: [ Abs: 0.14023  Tot: -0.14000 ]
SCF: Cycle: 17   F: -28.384509895571643   dF: -1.395e-07   |Residual|: 4.264e-05   |deigs|: 1.268e-04  t[s]:     87.22
	FillingsUpdate:  mu: -0.087282206  nElectrons: 9.000000  magneticMoment: [ Abs: 0.14027  Tot: -0.14000 ]
SCF: Cycle: 18   F: -28.384509985534937   dF: -8.996e-08   |Residual|: 2.580e-05   |deigs|: 6.381e-05  t[s]:     91.43
	FillingsUpdate:  mu: -0.087284044  nElectrons: 9.000000  magneticMoment: [ Abs: 0.14023  Tot: -0.14000 ]
SCF: Cycle: 19   F: -28.384510012373031   dF: -2.684e-08   |Residual|: 1.569e-05   |deigs|: 3.416e-05  t[s]:     95.45
	FillingsUpdate:  mu: -0.087282189  nElectrons: 9.000000  magneticMoment: [ Abs: 0.14024  Tot: -0.14000 ]
SCF: Cycle: 20   F: -28.384510032199472   dF: -1.983e-08   |Residual|: 8.077e-06   |deigs|: 3.231e-05  t[s]:     99.79
	FillingsUpdate:  mu: -0.087281125  nElectrons: 9.000000  magneticMoment: [ Abs: 0.14023  Tot: -0.14000 ]
SCF: Cycle: 21   F: -28.384510040047434   dF: -7.848e-09   |Residual|: 6.082e-06   |deigs|: 4.403e-05  t[s]:    103.79
	FillingsUpdate:  mu: -0.087282119  nElectrons: 9.000000  magneticMoment: [ Abs: 0.14023  Tot: -0.14000 ]
SCF: Cycle: 22   F: -28.384510045211115   dF: -5.164e-09   |Residual|: 2.915e-06   |deigs|: 5.689e-05  t[s]:    108.01
SCF: Converged (|Delta E|<1.000000e-08 for 2 iters).


# Ionic positions in lattice coordinates:
ion K   0.000000000000000   0.000000000000000   0.000000000000000 0

# Forces in Lattice coordinates:
force K  -0.000000000000000   0.000000000000000   0.000000000000000 0

# Energy components:
   Eewald =      -12.0320174002217755
       EH =       10.7065704896272695
     Eloc =      -29.9007785998731954
      Enl =       -2.7720496826080989
   Epulay =       -0.0000000016982517
      Exc =       -4.2363667905885869
       KE =        9.8501326280211821
-------------------------------------
     Etot =      -28.3845093573414609
       TS =        0.0000006878696540
-------------------------------------
        F =      -28.3845100452111154

IonicMinimize: Iter:   0  F: -28.384510045211115  |grad|_K:  0.000e+00  t[s]:    108.28
IonicMinimize: Converged (|grad|_K<1.000000e-04).

#--- Lowdin population analysis ---
# oxidation-state K +0.026
# magnetic-moments K -0.133

End date and time: Sat Feb  5 23:40:12 2022  (Duration: 0-0:01:48.32)
Done!
