
*************** JDFTx 1.6.0 (git hash 42ebbcc2) ***************

Start date and time: Sat Feb  5 23:50:29 2022
Executable jdftx with command-line: -i Alkali.in
Running on hosts (process indices):  d-4-2-2 (0-18)
Divided in process groups (process indices):  0 (0)  1 (1)  2 (2)  3 (3)  4 (4)  5 (5)  6 (6)  7 (7)  8 (8)  9 (9)  10 (10)  11 (11)  12 (12)  13 (13)  14 (14)  15 (15)  16 (16)  17 (17)  18 (18)
Resource initialization completed at t[s]:      0.00
Run totals: 19 processes, 48 threads, 0 GPUs


Input parsed successfully to the following command list (including defaults):

basis kpoint-dependent
coords-type Lattice
core-overlap-check vector
coulomb-interaction Slab 001
davidson-band-ratio 1.1
dump End None
dump-name $INPUT.$VAR
elec-cutoff 20
elec-eigen-algo Davidson
elec-ex-corr gga-PBE
elec-initial-magnetization 0.660000 yes
elec-smearing Fermi 1e-05
electronic-minimize  \
	dirUpdateScheme      FletcherReeves \
	linminMethod         DirUpdateRecommended \
	nIterations          100 \
	history              15 \
	knormThreshold       0 \
	energyDiffThreshold  1e-08 \
	nEnergyDiff          2 \
	alphaTstart          1 \
	alphaTmin            1e-10 \
	updateTestStepSize   yes \
	alphaTreduceFactor   0.1 \
	alphaTincreaseFactor 3 \
	nAlphaAdjustMax      3 \
	wolfeEnergy          0.0001 \
	wolfeGradient        0.9 \
	fdTest               no
electronic-scf  \
	nIterations	10000 \
	energyDiffThreshold	1e-08 \
	residualThreshold	1e-07 \
	mixFraction	0.5 \
	qMetric	0.8 \
	history	10 \
	nEigSteps	2 \
	eigDiffThreshold	1e-08 \
	mixedVariable	Density \
	qKerker	0.8 \
	qKappa	-1 \
	verbose	no \
	mixFractionMag	1.5
exchange-regularization WignerSeitzTruncated
fluid None
fluid-ex-corr (null) lda-PZ
fluid-gummel-loop 10 1.000000e-05
fluid-minimize  \
	dirUpdateScheme      PolakRibiere \
	linminMethod         DirUpdateRecommended \
	nIterations          100 \
	history              15 \
	knormThreshold       0 \
	energyDiffThreshold  0 \
	nEnergyDiff          2 \
	alphaTstart          1 \
	alphaTmin            1e-10 \
	updateTestStepSize   yes \
	alphaTreduceFactor   0.1 \
	alphaTincreaseFactor 3 \
	nAlphaAdjustMax      3 \
	wolfeEnergy          0.0001 \
	wolfeGradient        0.9 \
	fdTest               no
fluid-solvent H2O 55.338 ScalarEOS \
	epsBulk 78.4 \
	pMol 0.92466 \
	epsInf 1.77 \
	Pvap 1.06736e-10 \
	sigmaBulk 4.62e-05 \
	Rvdw 2.61727 \
	Res 1.42 \
	tauNuc 343133 \
	poleEl 15 7 1
forces-output-coords Positions
ion K   0.000000000000000   0.000000000000000   0.000000000000000 0
ion-species SG15/$ID_ONCV_PBE.upf
ion-width 0
ionic-minimize  \
	dirUpdateScheme      L-BFGS \
	linminMethod         DirUpdateRecommended \
	nIterations          0 \
	history              15 \
	knormThreshold       0.0001 \
	energyDiffThreshold  1e-06 \
	nEnergyDiff          2 \
	alphaTstart          1 \
	alphaTmin            1e-10 \
	updateTestStepSize   yes \
	alphaTreduceFactor   0.1 \
	alphaTincreaseFactor 3 \
	nAlphaAdjustMax      3 \
	wolfeEnergy          0.0001 \
	wolfeGradient        0.9 \
	fdTest               no
kpoint   0.000000000000   0.000000000000   0.000000000000  1.00000000000000
kpoint-folding 12 12 1 
latt-move-scale 1 1 1
latt-scale 3 3 1 
lattice  \
	   4.727486978767153   -2.363743489383575    0.000000000000000  \
	  -0.000000000000000    4.094123819672498    0.000000000000000  \
	   0.000000000000000    0.000000000000000   40.000000000000000 
lattice-minimize  \
	dirUpdateScheme      L-BFGS \
	linminMethod         DirUpdateRecommended \
	nIterations          0 \
	history              15 \
	knormThreshold       0 \
	energyDiffThreshold  1e-06 \
	nEnergyDiff          2 \
	alphaTstart          1 \
	alphaTmin            1e-10 \
	updateTestStepSize   yes \
	alphaTreduceFactor   0.1 \
	alphaTincreaseFactor 3 \
	nAlphaAdjustMax      3 \
	wolfeEnergy          0.0001 \
	wolfeGradient        0.9 \
	fdTest               no
lcao-params -1 1e-06 1e-05
pcm-variant GLSSA13
spintype z-spin
subspace-rotation-factor 1 yes
symmetries automatic
symmetry-threshold 0.0001



---------- Setting up symmetries ----------

Found 24 point-group symmetries of the bravais lattice
Found 24 space-group symmetries with basis
Applied RMS atom displacement 0 bohrs to make symmetries exact.

---------- Initializing the Grid ----------
R = 
[      14.1825     -7.09123            0  ]
[            0      12.2824            0  ]
[            0            0           40  ]
unit cell volume = 6967.77
G =
[   0.443025   0.255781         -0  ]
[          0   0.511561         -0  ]
[         -0         -0    0.15708  ]
Minimum fftbox size, Smin = [  60  60  164  ]
Chosen fftbox size, S = [  60  60  168  ]

---------- Exchange Correlation functional ----------
Initalized PBE GGA exchange.
Initalized PBE GGA correlation.

---------- Setting up pseudopotentials ----------
Width of ionic core gaussian charges (only for fluid interactions / plotting) set to 0

Reading pseudopotential file '/home/gridsan/aligho/DFT/build-Nov24/pseudopotentials/SG15/K_ONCV_PBE.upf':
  'K' pseudopotential, 'PBE' functional
  Generated using ONCVPSP code by D. R. Hamann
  Author: Martin Schlipf and Francois Gygi  Date: 150915.
  9 valence electrons, 3 orbitals, 6 projectors, 2222 radial grid points, with lMax = 2
  Transforming local potential to a uniform radial grid of dG=0.02 with 1489 points.
  Transforming nonlocal projectors to a uniform radial grid of dG=0.02 with 432 points.
    3S    l: 0   occupation:  2.0   eigenvalue: -1.298836
    3P    l: 1   occupation:  6.0   eigenvalue: -0.691386
    4S    l: 0   occupation:  1.0   eigenvalue: -0.085223
  Transforming atomic orbitals to a uniform radial grid of dG=0.02 with 432 points.
  Core radius for overlap checks: 2.06 bohrs.
  Reading pulay file /home/gridsan/aligho/DFT/build-Nov24/pseudopotentials/SG15/K_ONCV_PBE.pulay ... using dE_dnG = -1.597219e-05 computed for Ecut = 20.

Initialized 1 species with 1 total atoms.

Folded 1 k-points by 12x12x1 to 144 k-points.

---------- Setting up k-points, bands, fillings ----------
Reduced to 19 k-points under symmetry. 
Computing the number of bands and number of electrons
Calculating initial fillings.
nElectrons:   9.000000   nBands: 6   nStates: 38

----- Setting up reduced wavefunction bases (one per k-point) -----
average nbasis = 29766.104 , ideal nbasis = 29766.845

---------- Setting up coulomb interaction ----------
Initialized slab truncation along lattice direction 001

---------- Setting up 2D ewald sum ----------
Optimum gaussian width for ewald sums = 7.873530 bohr.
Real space sums over 289 unit cells with max indices [  8  8  0  ]
Reciprocal space sums over 81 terms with max indices [  4  4  0  ]

---------- Allocating electronic variables ----------
Initializing wave functions:  linear combination of atomic orbitals
Note: number of bands (6) exceeds available atomic orbitals (5)
K pseudo-atom occupations:   s ( 2 1 )  p ( 6 )
	FillingsUpdate:  mu: -0.088464502  nElectrons: 9.000000  magneticMoment: [ Abs: 0.66000  Tot: +0.66000 ]
LCAOMinimize: Iter:   0  F: -28.3821460727558339  |grad|_K:  1.070e-05  alpha:  1.000e+00
	FillingsUpdate:  mu: -0.088462572  nElectrons: 9.000000  magneticMoment: [ Abs: 0.66000  Tot: +0.66000 ]
LCAOMinimize: Iter:   1  F: -28.3821461504411445  |grad|_K:  7.080e-08  alpha:  9.917e-01  linmin: -9.179e-03  cgtest:  2.453e-01  t[s]:      8.98
LCAOMinimize: Encountered beta<0, resetting CG.
	FillingsUpdate:  mu: -0.088462577  nElectrons: 9.000000  magneticMoment: [ Abs: 0.66000  Tot: +0.66000 ]
LCAOMinimize: Iter:   2  F: -28.3821461504441608  |grad|_K:  6.079e-09  alpha:  9.128e-01  linmin: -9.706e-02  cgtest:  9.985e-01  t[s]:     11.44
LCAOMinimize: Encountered beta<0, resetting CG.
LCAOMinimize: Converged (|Delta F|<1.000000e-06 for 2 iters).


---- Citations for features of the code used in this run ----

   Software package:
      R. Sundararaman, K. Letchworth-Weaver, K.A. Schwarz, D. Gunceler, Y. Ozhabes and T.A. Arias, 'JDFTx: software for joint density-functional theory', SoftwareX 6, 278 (2017)

   gga-PBE exchange-correlation functional:
      J.P. Perdew, K. Burke and M. Ernzerhof, Phys. Rev. Lett. 77, 3865 (1996)

   Pseudopotentials:
      M Schlipf and F Gygi, Comput. Phys. Commun. 196, 36 (2015)

   Truncated Coulomb potentials:
      R. Sundararaman and T.A. Arias, Phys. Rev. B 87, 165122 (2013)

This list may not be complete. Please suggest additional citations or
report any other bugs at https://github.com/shankar1729/jdftx/issues

Initialization completed successfully at t[s]:     11.61


-------- Electronic minimization -----------
Will mix electronic density at each iteration.
	FillingsUpdate:  mu: -0.088462577  nElectrons: 9.000000  magneticMoment: [ Abs: 0.66000  Tot: +0.66000 ]
	FillingsUpdate:  mu: -0.089346587  nElectrons: 9.000000  magneticMoment: [ Abs: 0.66000  Tot: +0.66000 ]
SCF: Cycle:  0   F: -28.383308828485809   dF: -1.163e-03   |Residual|: 3.337e-03   |deigs|: 1.740e-01  t[s]:     16.45
	FillingsUpdate:  mu: -0.089502649  nElectrons: 9.000000  magneticMoment: [ Abs: 0.66013  Tot: +0.66000 ]
SCF: Cycle:  1   F: -28.383342351221742   dF: -3.352e-05   |Residual|: 2.390e-03   |deigs|: 4.941e-03  t[s]:     20.29
	FillingsUpdate:  mu: -0.089632396  nElectrons: 9.000000  magneticMoment: [ Abs: 0.66128  Tot: +0.66000 ]
SCF: Cycle:  2   F: -28.383366806825777   dF: -2.446e-05   |Residual|: 1.819e-03   |deigs|: 2.955e-03  t[s]:     24.13
	FillingsUpdate:  mu: -0.089888808  nElectrons: 9.000000  magneticMoment: [ Abs: 0.66161  Tot: +0.66000 ]
SCF: Cycle:  3   F: -28.383386127850017   dF: -1.932e-05   |Residual|: 1.264e-03   |deigs|: 1.795e-03  t[s]:     28.06
	FillingsUpdate:  mu: -0.090038879  nElectrons: 9.000000  magneticMoment: [ Abs: 0.66103  Tot: +0.66000 ]
SCF: Cycle:  4   F: -28.383398797889260   dF: -1.267e-05   |Residual|: 7.246e-04   |deigs|: 2.325e-03  t[s]:     32.04
	FillingsUpdate:  mu: -0.090162444  nElectrons: 9.000000  magneticMoment: [ Abs: 0.66133  Tot: +0.66000 ]
SCF: Cycle:  5   F: -28.383405504424189   dF: -6.707e-06   |Residual|: 4.116e-04   |deigs|: 1.769e-03  t[s]:     36.06
	FillingsUpdate:  mu: -0.090120822  nElectrons: 9.000000  magneticMoment: [ Abs: 0.66102  Tot: +0.66000 ]
SCF: Cycle:  6   F: -28.383409073299141   dF: -3.569e-06   |Residual|: 2.868e-04   |deigs|: 9.411e-04  t[s]:     40.17
	FillingsUpdate:  mu: -0.090016676  nElectrons: 9.000000  magneticMoment: [ Abs: 0.66132  Tot: +0.66000 ]
SCF: Cycle:  7   F: -28.383410880650093   dF: -1.807e-06   |Residual|: 2.269e-04   |deigs|: 8.204e-04  t[s]:     44.43
	FillingsUpdate:  mu: -0.089876160  nElectrons: 9.000000  magneticMoment: [ Abs: 0.66156  Tot: +0.66000 ]
SCF: Cycle:  8   F: -28.383411626801106   dF: -7.462e-07   |Residual|: 1.806e-04   |deigs|: 5.512e-04  t[s]:     48.71
	FillingsUpdate:  mu: -0.089624608  nElectrons: 9.000000  magneticMoment: [ Abs: 0.66205  Tot: +0.66000 ]
SCF: Cycle:  9   F: -28.383411823313939   dF: -1.965e-07   |Residual|: 1.585e-04   |deigs|: 4.108e-04  t[s]:     53.02
	FillingsUpdate:  mu: -0.089457917  nElectrons: 9.000000  magneticMoment: [ Abs: 0.66185  Tot: +0.66000 ]
SCF: Cycle: 10   F: -28.383411854891069   dF: -3.158e-08   |Residual|: 1.481e-04   |deigs|: 1.969e-04  t[s]:     57.42
	FillingsUpdate:  mu: -0.089226259  nElectrons: 9.000000  magneticMoment: [ Abs: 0.66224  Tot: +0.66000 ]
SCF: Cycle: 11   F: -28.383412539741521   dF: -6.849e-07   |Residual|: 1.213e-04   |deigs|: 2.453e-04  t[s]:     61.81
	FillingsUpdate:  mu: -0.089245519  nElectrons: 9.000000  magneticMoment: [ Abs: 0.66186  Tot: +0.66000 ]
SCF: Cycle: 12   F: -28.383413306443934   dF: -7.667e-07   |Residual|: 9.431e-05   |deigs|: 7.305e-05  t[s]:     66.21
	FillingsUpdate:  mu: -0.089002632  nElectrons: 9.000000  magneticMoment: [ Abs: 0.66153  Tot: +0.66000 ]
SCF: Cycle: 13   F: -28.383413466828962   dF: -1.604e-07   |Residual|: 9.456e-05   |deigs|: 2.612e-04  t[s]:     70.59
	FillingsUpdate:  mu: -0.088784893  nElectrons: 9.000000  magneticMoment: [ Abs: 0.66167  Tot: +0.66000 ]
SCF: Cycle: 14   F: -28.383413208818016   dF: +2.580e-07   |Residual|: 9.497e-05   |deigs|: 2.407e-04  t[s]:     75.03
	FillingsUpdate:  mu: -0.088617581  nElectrons: 9.000000  magneticMoment: [ Abs: 0.66189  Tot: +0.66000 ]
SCF: Cycle: 15   F: -28.383413456225576   dF: -2.474e-07   |Residual|: 8.286e-05   |deigs|: 1.721e-04  t[s]:     79.42
	FillingsUpdate:  mu: -0.088571092  nElectrons: 9.000000  magneticMoment: [ Abs: 0.66155  Tot: +0.66000 ]
SCF: Cycle: 16   F: -28.383413974548450   dF: -5.183e-07   |Residual|: 6.529e-05   |deigs|: 9.501e-05  t[s]:     83.77
	FillingsUpdate:  mu: -0.088454808  nElectrons: 9.000000  magneticMoment: [ Abs: 0.66123  Tot: +0.66000 ]
SCF: Cycle: 17   F: -28.383414173362436   dF: -1.988e-07   |Residual|: 5.174e-05   |deigs|: 2.632e-04  t[s]:     88.11
	FillingsUpdate:  mu: -0.088392757  nElectrons: 9.000000  magneticMoment: [ Abs: 0.66119  Tot: +0.66000 ]
SCF: Cycle: 18   F: -28.383414382210375   dF: -2.088e-07   |Residual|: 3.322e-05   |deigs|: 3.102e-04  t[s]:     92.51
	FillingsUpdate:  mu: -0.088378391  nElectrons: 9.000000  magneticMoment: [ Abs: 0.66121  Tot: +0.66000 ]
SCF: Cycle: 19   F: -28.383414465412613   dF: -8.320e-08   |Residual|: 2.006e-05   |deigs|: 2.499e-05  t[s]:     96.82
	FillingsUpdate:  mu: -0.088379306  nElectrons: 9.000000  magneticMoment: [ Abs: 0.66119  Tot: +0.66000 ]
SCF: Cycle: 20   F: -28.383414513172575   dF: -4.776e-08   |Residual|: 1.181e-05   |deigs|: 1.655e-05  t[s]:    101.15
	FillingsUpdate:  mu: -0.088382842  nElectrons: 9.000000  magneticMoment: [ Abs: 0.66119  Tot: +0.66000 ]
SCF: Cycle: 21   F: -28.383414539184955   dF: -2.601e-08   |Residual|: 6.846e-06   |deigs|: 1.954e-05  t[s]:    105.38
	FillingsUpdate:  mu: -0.088380678  nElectrons: 9.000000  magneticMoment: [ Abs: 0.66119  Tot: +0.66000 ]
SCF: Cycle: 22   F: -28.383414549115972   dF: -9.931e-09   |Residual|: 4.287e-06   |deigs|: 2.528e-05  t[s]:    109.56
	FillingsUpdate:  mu: -0.088378535  nElectrons: 9.000000  magneticMoment: [ Abs: 0.66121  Tot: +0.66000 ]
SCF: Cycle: 23   F: -28.383414557407320   dF: -8.291e-09   |Residual|: 3.226e-06   |deigs|: 3.162e-05  t[s]:    113.85
SCF: Converged (|Delta E|<1.000000e-08 for 2 iters).


# Ionic positions in lattice coordinates:
ion K   0.000000000000000   0.000000000000000   0.000000000000000 0

# Forces in Lattice coordinates:
force K   0.000000000000000   0.000000000000000   0.000000000000000 0

# Energy components:
   Eewald =      -12.0320174002217755
       EH =       10.7366061625959137
     Eloc =      -29.9340505244410089
      Enl =       -2.7706248204749353
   Epulay =       -0.0000000016982517
      Exc =       -4.2404633087352286
       KE =        9.8571362213189193
-------------------------------------
     Etot =      -28.3834136716563705
       TS =        0.0000008857509500
-------------------------------------
        F =      -28.3834145574073204

IonicMinimize: Iter:   0  F: -28.383414557407320  |grad|_K:  0.000e+00  t[s]:    114.13
IonicMinimize: Converged (|grad|_K<1.000000e-04).

#--- Lowdin population analysis ---
# oxidation-state K +0.025
# magnetic-moments K +0.638

End date and time: Sat Feb  5 23:52:23 2022  (Duration: 0-0:01:54.17)
Done!
