
*************** JDFTx 1.6.0 (git hash 42ebbcc2) ***************

Start date and time: Sat Feb  5 23:37:44 2022
Executable jdftx with command-line: -i Alkali.in
Running on hosts (process indices):  d-6-10-3 (0-18)
Divided in process groups (process indices):  0 (0)  1 (1)  2 (2)  3 (3)  4 (4)  5 (5)  6 (6)  7 (7)  8 (8)  9 (9)  10 (10)  11 (11)  12 (12)  13 (13)  14 (14)  15 (15)  16 (16)  17 (17)  18 (18)
Resource initialization completed at t[s]:      0.00
Run totals: 19 processes, 48 threads, 0 GPUs


Input parsed successfully to the following command list (including defaults):

basis kpoint-dependent
coords-type Lattice
core-overlap-check vector
coulomb-interaction Slab 001
davidson-band-ratio 1.1
dump End None
dump-name $INPUT.$VAR
elec-cutoff 20
elec-eigen-algo Davidson
elec-ex-corr gga-PBE
elec-initial-magnetization -0.380000 yes
elec-smearing Fermi 1e-05
electronic-minimize  \
	dirUpdateScheme      FletcherReeves \
	linminMethod         DirUpdateRecommended \
	nIterations          100 \
	history              15 \
	knormThreshold       0 \
	energyDiffThreshold  1e-08 \
	nEnergyDiff          2 \
	alphaTstart          1 \
	alphaTmin            1e-10 \
	updateTestStepSize   yes \
	alphaTreduceFactor   0.1 \
	alphaTincreaseFactor 3 \
	nAlphaAdjustMax      3 \
	wolfeEnergy          0.0001 \
	wolfeGradient        0.9 \
	fdTest               no
electronic-scf  \
	nIterations	10000 \
	energyDiffThreshold	1e-08 \
	residualThreshold	1e-07 \
	mixFraction	0.5 \
	qMetric	0.8 \
	history	10 \
	nEigSteps	2 \
	eigDiffThreshold	1e-08 \
	mixedVariable	Density \
	qKerker	0.8 \
	qKappa	-1 \
	verbose	no \
	mixFractionMag	1.5
exchange-regularization WignerSeitzTruncated
fluid None
fluid-ex-corr (null) lda-PZ
fluid-gummel-loop 10 1.000000e-05
fluid-minimize  \
	dirUpdateScheme      PolakRibiere \
	linminMethod         DirUpdateRecommended \
	nIterations          100 \
	history              15 \
	knormThreshold       0 \
	energyDiffThreshold  0 \
	nEnergyDiff          2 \
	alphaTstart          1 \
	alphaTmin            1e-10 \
	updateTestStepSize   yes \
	alphaTreduceFactor   0.1 \
	alphaTincreaseFactor 3 \
	nAlphaAdjustMax      3 \
	wolfeEnergy          0.0001 \
	wolfeGradient        0.9 \
	fdTest               no
fluid-solvent H2O 55.338 ScalarEOS \
	epsBulk 78.4 \
	pMol 0.92466 \
	epsInf 1.77 \
	Pvap 1.06736e-10 \
	sigmaBulk 4.62e-05 \
	Rvdw 2.61727 \
	Res 1.42 \
	tauNuc 343133 \
	poleEl 15 7 1
forces-output-coords Positions
ion K   0.000000000000000   0.000000000000000   0.000000000000000 0
ion-species SG15/$ID_ONCV_PBE.upf
ion-width 0
ionic-minimize  \
	dirUpdateScheme      L-BFGS \
	linminMethod         DirUpdateRecommended \
	nIterations          0 \
	history              15 \
	knormThreshold       0.0001 \
	energyDiffThreshold  1e-06 \
	nEnergyDiff          2 \
	alphaTstart          1 \
	alphaTmin            1e-10 \
	updateTestStepSize   yes \
	alphaTreduceFactor   0.1 \
	alphaTincreaseFactor 3 \
	nAlphaAdjustMax      3 \
	wolfeEnergy          0.0001 \
	wolfeGradient        0.9 \
	fdTest               no
kpoint   0.000000000000   0.000000000000   0.000000000000  1.00000000000000
kpoint-folding 12 12 1 
latt-move-scale 1 1 1
latt-scale 3 3 1 
lattice  \
	   4.727486978767153   -2.363743489383575    0.000000000000000  \
	  -0.000000000000000    4.094123819672498    0.000000000000000  \
	   0.000000000000000    0.000000000000000   40.000000000000000 
lattice-minimize  \
	dirUpdateScheme      L-BFGS \
	linminMethod         DirUpdateRecommended \
	nIterations          0 \
	history              15 \
	knormThreshold       0 \
	energyDiffThreshold  1e-06 \
	nEnergyDiff          2 \
	alphaTstart          1 \
	alphaTmin            1e-10 \
	updateTestStepSize   yes \
	alphaTreduceFactor   0.1 \
	alphaTincreaseFactor 3 \
	nAlphaAdjustMax      3 \
	wolfeEnergy          0.0001 \
	wolfeGradient        0.9 \
	fdTest               no
lcao-params -1 1e-06 1e-05
pcm-variant GLSSA13
spintype z-spin
subspace-rotation-factor 1 yes
symmetries automatic
symmetry-threshold 0.0001



---------- Setting up symmetries ----------

Found 24 point-group symmetries of the bravais lattice
Found 24 space-group symmetries with basis
Applied RMS atom displacement 0 bohrs to make symmetries exact.

---------- Initializing the Grid ----------
R = 
[      14.1825     -7.09123            0  ]
[            0      12.2824            0  ]
[            0            0           40  ]
unit cell volume = 6967.77
G =
[   0.443025   0.255781         -0  ]
[          0   0.511561         -0  ]
[         -0         -0    0.15708  ]
Minimum fftbox size, Smin = [  60  60  164  ]
Chosen fftbox size, S = [  60  60  168  ]

---------- Exchange Correlation functional ----------
Initalized PBE GGA exchange.
Initalized PBE GGA correlation.

---------- Setting up pseudopotentials ----------
Width of ionic core gaussian charges (only for fluid interactions / plotting) set to 0

Reading pseudopotential file '/home/gridsan/aligho/DFT/build-Nov24/pseudopotentials/SG15/K_ONCV_PBE.upf':
  'K' pseudopotential, 'PBE' functional
  Generated using ONCVPSP code by D. R. Hamann
  Author: Martin Schlipf and Francois Gygi  Date: 150915.
  9 valence electrons, 3 orbitals, 6 projectors, 2222 radial grid points, with lMax = 2
  Transforming local potential to a uniform radial grid of dG=0.02 with 1489 points.
  Transforming nonlocal projectors to a uniform radial grid of dG=0.02 with 432 points.
    3S    l: 0   occupation:  2.0   eigenvalue: -1.298836
    3P    l: 1   occupation:  6.0   eigenvalue: -0.691386
    4S    l: 0   occupation:  1.0   eigenvalue: -0.085223
  Transforming atomic orbitals to a uniform radial grid of dG=0.02 with 432 points.
  Core radius for overlap checks: 2.06 bohrs.
  Reading pulay file /home/gridsan/aligho/DFT/build-Nov24/pseudopotentials/SG15/K_ONCV_PBE.pulay ... using dE_dnG = -1.597219e-05 computed for Ecut = 20.

Initialized 1 species with 1 total atoms.

Folded 1 k-points by 12x12x1 to 144 k-points.

---------- Setting up k-points, bands, fillings ----------
Reduced to 19 k-points under symmetry. 
Computing the number of bands and number of electrons
Calculating initial fillings.
nElectrons:   9.000000   nBands: 6   nStates: 38

----- Setting up reduced wavefunction bases (one per k-point) -----
average nbasis = 29766.104 , ideal nbasis = 29766.845

---------- Setting up coulomb interaction ----------
Initialized slab truncation along lattice direction 001

---------- Setting up 2D ewald sum ----------
Optimum gaussian width for ewald sums = 7.873530 bohr.
Real space sums over 289 unit cells with max indices [  8  8  0  ]
Reciprocal space sums over 81 terms with max indices [  4  4  0  ]

---------- Allocating electronic variables ----------
Initializing wave functions:  linear combination of atomic orbitals
Note: number of bands (6) exceeds available atomic orbitals (5)
K pseudo-atom occupations:   s ( 2 1 )  p ( 6 )
	FillingsUpdate:  mu: -0.086578673  nElectrons: 9.000000  magneticMoment: [ Abs: 0.38000  Tot: -0.38000 ]
LCAOMinimize: Iter:   0  F: -28.3826206407605426  |grad|_K:  1.619e-05  alpha:  1.000e+00
	FillingsUpdate:  mu: -0.086575939  nElectrons: 9.000000  magneticMoment: [ Abs: 0.38000  Tot: -0.38000 ]
LCAOMinimize: Iter:   1  F: -28.3826208180765427  |grad|_K:  1.161e-07  alpha:  9.896e-01  linmin: -1.327e-02  cgtest:  3.903e-01  t[s]:      8.70
LCAOMinimize: Encountered beta<0, resetting CG.
	FillingsUpdate:  mu: -0.086575945  nElectrons: 9.000000  magneticMoment: [ Abs: 0.38000  Tot: -0.38000 ]
LCAOMinimize: Iter:   2  F: -28.3826208180859467  |grad|_K:  4.454e-10  alpha:  9.984e-01  linmin: -2.749e-02  cgtest:  3.952e-01  t[s]:     11.08
LCAOMinimize: Encountered beta<0, resetting CG.
LCAOMinimize: Converged (|Delta F|<1.000000e-06 for 2 iters).


---- Citations for features of the code used in this run ----

   Software package:
      R. Sundararaman, K. Letchworth-Weaver, K.A. Schwarz, D. Gunceler, Y. Ozhabes and T.A. Arias, 'JDFTx: software for joint density-functional theory', SoftwareX 6, 278 (2017)

   gga-PBE exchange-correlation functional:
      J.P. Perdew, K. Burke and M. Ernzerhof, Phys. Rev. Lett. 77, 3865 (1996)

   Pseudopotentials:
      M Schlipf and F Gygi, Comput. Phys. Commun. 196, 36 (2015)

   Truncated Coulomb potentials:
      R. Sundararaman and T.A. Arias, Phys. Rev. B 87, 165122 (2013)

This list may not be complete. Please suggest additional citations or
report any other bugs at https://github.com/shankar1729/jdftx/issues

Initialization completed successfully at t[s]:     11.24


-------- Electronic minimization -----------
Will mix electronic density at each iteration.
	FillingsUpdate:  mu: -0.086575945  nElectrons: 9.000000  magneticMoment: [ Abs: 0.38000  Tot: -0.38000 ]
	FillingsUpdate:  mu: -0.088077518  nElectrons: 9.000000  magneticMoment: [ Abs: 0.38000  Tot: -0.38000 ]
SCF: Cycle:  0   F: -28.383991192761869   dF: -1.370e-03   |Residual|: 3.387e-03   |deigs|: 1.744e-01  t[s]:     15.98
	FillingsUpdate:  mu: -0.088248750  nElectrons: 9.000000  magneticMoment: [ Abs: 0.38000  Tot: -0.38000 ]
SCF: Cycle:  1   F: -28.384024341451980   dF: -3.315e-05   |Residual|: 2.748e-03   |deigs|: 4.583e-03  t[s]:     19.74
	FillingsUpdate:  mu: -0.088533027  nElectrons: 9.000000  magneticMoment: [ Abs: 0.38115  Tot: -0.38000 ]
SCF: Cycle:  2   F: -28.384051277578983   dF: -2.694e-05   |Residual|: 1.890e-03   |deigs|: 1.896e-03  t[s]:     23.52
	FillingsUpdate:  mu: -0.088832119  nElectrons: 9.000000  magneticMoment: [ Abs: 0.38111  Tot: -0.38000 ]
SCF: Cycle:  3   F: -28.384066153365925   dF: -1.488e-05   |Residual|: 1.094e-03   |deigs|: 3.677e-03  t[s]:     27.36
	FillingsUpdate:  mu: -0.088916818  nElectrons: 9.000000  magneticMoment: [ Abs: 0.38044  Tot: -0.38000 ]
SCF: Cycle:  4   F: -28.384074269532356   dF: -8.116e-06   |Residual|: 5.979e-04   |deigs|: 2.172e-03  t[s]:     31.23
	FillingsUpdate:  mu: -0.088938834  nElectrons: 9.000000  magneticMoment: [ Abs: 0.38065  Tot: -0.38000 ]
SCF: Cycle:  5   F: -28.384079156573623   dF: -4.887e-06   |Residual|: 4.039e-04   |deigs|: 1.069e-03  t[s]:     35.23
	FillingsUpdate:  mu: -0.088840431  nElectrons: 9.000000  magneticMoment: [ Abs: 0.38053  Tot: -0.38000 ]
SCF: Cycle:  6   F: -28.384081712590440   dF: -2.556e-06   |Residual|: 2.804e-04   |deigs|: 1.610e-03  t[s]:     39.27
	FillingsUpdate:  mu: -0.088738035  nElectrons: 9.000000  magneticMoment: [ Abs: 0.38063  Tot: -0.38000 ]
SCF: Cycle:  7   F: -28.384082694142105   dF: -9.816e-07   |Residual|: 2.310e-04   |deigs|: 6.803e-04  t[s]:     43.35
	FillingsUpdate:  mu: -0.088546628  nElectrons: 9.000000  magneticMoment: [ Abs: 0.38109  Tot: -0.38000 ]
SCF: Cycle:  8   F: -28.384083310326702   dF: -6.162e-07   |Residual|: 1.752e-04   |deigs|: 3.397e-04  t[s]:     47.50
	FillingsUpdate:  mu: -0.088340839  nElectrons: 9.000000  magneticMoment: [ Abs: 0.38142  Tot: -0.38000 ]
SCF: Cycle:  9   F: -28.384083399837113   dF: -8.951e-08   |Residual|: 1.660e-04   |deigs|: 2.809e-04  t[s]:     51.75
	FillingsUpdate:  mu: -0.088118245  nElectrons: 9.000000  magneticMoment: [ Abs: 0.38114  Tot: -0.38000 ]
SCF: Cycle: 10   F: -28.384082942380623   dF: +4.575e-07   |Residual|: 1.357e-04   |deigs|: 2.328e-04  t[s]:     56.08
	FillingsUpdate:  mu: -0.087939259  nElectrons: 9.000000  magneticMoment: [ Abs: 0.38139  Tot: -0.38000 ]
SCF: Cycle: 11   F: -28.384083652705772   dF: -7.103e-07   |Residual|: 1.215e-04   |deigs|: 2.405e-04  t[s]:     60.46
	FillingsUpdate:  mu: -0.087865764  nElectrons: 9.000000  magneticMoment: [ Abs: 0.38118  Tot: -0.38000 ]
SCF: Cycle: 12   F: -28.384084076906863   dF: -4.242e-07   |Residual|: 1.003e-04   |deigs|: 2.300e-04  t[s]:     64.80
	FillingsUpdate:  mu: -0.087617644  nElectrons: 9.000000  magneticMoment: [ Abs: 0.38104  Tot: -0.38000 ]
SCF: Cycle: 13   F: -28.384084201418645   dF: -1.245e-07   |Residual|: 9.527e-05   |deigs|: 2.564e-04  t[s]:     69.16
	FillingsUpdate:  mu: -0.087443732  nElectrons: 9.000000  magneticMoment: [ Abs: 0.38066  Tot: -0.38000 ]
SCF: Cycle: 14   F: -28.384083955697328   dF: +2.457e-07   |Residual|: 9.476e-05   |deigs|: 2.031e-04  t[s]:     73.44
	FillingsUpdate:  mu: -0.087280446  nElectrons: 9.000000  magneticMoment: [ Abs: 0.38114  Tot: -0.38000 ]
SCF: Cycle: 15   F: -28.384084244550436   dF: -2.889e-07   |Residual|: 8.384e-05   |deigs|: 1.668e-04  t[s]:     77.73
	FillingsUpdate:  mu: -0.087180221  nElectrons: 9.000000  magneticMoment: [ Abs: 0.38106  Tot: -0.38000 ]
SCF: Cycle: 16   F: -28.384084741381088   dF: -4.968e-07   |Residual|: 6.713e-05   |deigs|: 1.350e-04  t[s]:     82.09
	FillingsUpdate:  mu: -0.087100190  nElectrons: 9.000000  magneticMoment: [ Abs: 0.38072  Tot: -0.38000 ]
SCF: Cycle: 17   F: -28.384084941716722   dF: -2.003e-07   |Residual|: 5.030e-05   |deigs|: 2.006e-04  t[s]:     86.35
	FillingsUpdate:  mu: -0.087034722  nElectrons: 9.000000  magneticMoment: [ Abs: 0.38063  Tot: -0.38000 ]
SCF: Cycle: 18   F: -28.384085077603569   dF: -1.359e-07   |Residual|: 2.756e-05   |deigs|: 2.671e-04  t[s]:     90.60
	FillingsUpdate:  mu: -0.087031866  nElectrons: 9.000000  magneticMoment: [ Abs: 0.38064  Tot: -0.38000 ]
SCF: Cycle: 19   F: -28.384085116488329   dF: -3.888e-08   |Residual|: 1.757e-05   |deigs|: 1.150e-04  t[s]:     94.85
	FillingsUpdate:  mu: -0.087031612  nElectrons: 9.000000  magneticMoment: [ Abs: 0.38063  Tot: -0.38000 ]
SCF: Cycle: 20   F: -28.384085141931202   dF: -2.544e-08   |Residual|: 1.020e-05   |deigs|: 8.778e-05  t[s]:     99.18
	FillingsUpdate:  mu: -0.087034591  nElectrons: 9.000000  magneticMoment: [ Abs: 0.38062  Tot: -0.38000 ]
SCF: Cycle: 21   F: -28.384085158903567   dF: -1.697e-08   |Residual|: 5.843e-06   |deigs|: 5.742e-05  t[s]:    103.23
	FillingsUpdate:  mu: -0.087034557  nElectrons: 9.000000  magneticMoment: [ Abs: 0.38062  Tot: -0.38000 ]
SCF: Cycle: 22   F: -28.384085165577005   dF: -6.673e-09   |Residual|: 3.462e-06   |deigs|: 4.348e-05  t[s]:    107.32
	FillingsUpdate:  mu: -0.087034188  nElectrons: 9.000000  magneticMoment: [ Abs: 0.38062  Tot: -0.38000 ]
SCF: Cycle: 23   F: -28.384085170166372   dF: -4.589e-09   |Residual|: 2.239e-06   |deigs|: 2.812e-05  t[s]:    111.47
SCF: Converged (|Delta E|<1.000000e-08 for 2 iters).


# Ionic positions in lattice coordinates:
ion K   0.000000000000000   0.000000000000000   0.000000000000000 0

# Forces in Lattice coordinates:
force K   0.000000000000000  -0.000000000000000   0.000000000000000 0

# Energy components:
   Eewald =      -12.0320174002217755
       EH =       10.7158001627981427
     Eloc =      -29.9110180515637971
      Enl =       -2.7716115075342427
   Epulay =       -0.0000000016982517
      Exc =       -4.2375801023213322
       KE =        9.8523424758854219
-------------------------------------
     Etot =      -28.3840844246558390
       TS =        0.0000007455105331
-------------------------------------
        F =      -28.3840851701663723

IonicMinimize: Iter:   0  F: -28.384085170166372  |grad|_K:  0.000e+00  t[s]:    111.73
IonicMinimize: Converged (|grad|_K<1.000000e-04).

#--- Lowdin population analysis ---
# oxidation-state K +0.027
# magnetic-moments K -0.363

End date and time: Sat Feb  5 23:39:35 2022  (Duration: 0-0:01:51.78)
Done!
