
*************** JDFTx 1.6.0 (git hash 42ebbcc2) ***************

Start date and time: Sat Feb  5 23:55:42 2022
Executable jdftx with command-line: -i Alkali.in
Running on hosts (process indices):  d-6-2-2 (0-18)
Divided in process groups (process indices):  0 (0)  1 (1)  2 (2)  3 (3)  4 (4)  5 (5)  6 (6)  7 (7)  8 (8)  9 (9)  10 (10)  11 (11)  12 (12)  13 (13)  14 (14)  15 (15)  16 (16)  17 (17)  18 (18)
Resource initialization completed at t[s]:      0.00
Run totals: 19 processes, 48 threads, 0 GPUs


Input parsed successfully to the following command list (including defaults):

basis kpoint-dependent
coords-type Lattice
core-overlap-check vector
coulomb-interaction Slab 001
davidson-band-ratio 1.1
dump End None
dump-name $INPUT.$VAR
elec-cutoff 20
elec-eigen-algo Davidson
elec-ex-corr gga-PBE
elec-initial-magnetization 0.940000 yes
elec-smearing Fermi 1e-05
electronic-minimize  \
	dirUpdateScheme      FletcherReeves \
	linminMethod         DirUpdateRecommended \
	nIterations          100 \
	history              15 \
	knormThreshold       0 \
	energyDiffThreshold  1e-08 \
	nEnergyDiff          2 \
	alphaTstart          1 \
	alphaTmin            1e-10 \
	updateTestStepSize   yes \
	alphaTreduceFactor   0.1 \
	alphaTincreaseFactor 3 \
	nAlphaAdjustMax      3 \
	wolfeEnergy          0.0001 \
	wolfeGradient        0.9 \
	fdTest               no
electronic-scf  \
	nIterations	10000 \
	energyDiffThreshold	1e-08 \
	residualThreshold	1e-07 \
	mixFraction	0.5 \
	qMetric	0.8 \
	history	10 \
	nEigSteps	2 \
	eigDiffThreshold	1e-08 \
	mixedVariable	Density \
	qKerker	0.8 \
	qKappa	-1 \
	verbose	no \
	mixFractionMag	1.5
exchange-regularization WignerSeitzTruncated
fluid None
fluid-ex-corr (null) lda-PZ
fluid-gummel-loop 10 1.000000e-05
fluid-minimize  \
	dirUpdateScheme      PolakRibiere \
	linminMethod         DirUpdateRecommended \
	nIterations          100 \
	history              15 \
	knormThreshold       0 \
	energyDiffThreshold  0 \
	nEnergyDiff          2 \
	alphaTstart          1 \
	alphaTmin            1e-10 \
	updateTestStepSize   yes \
	alphaTreduceFactor   0.1 \
	alphaTincreaseFactor 3 \
	nAlphaAdjustMax      3 \
	wolfeEnergy          0.0001 \
	wolfeGradient        0.9 \
	fdTest               no
fluid-solvent H2O 55.338 ScalarEOS \
	epsBulk 78.4 \
	pMol 0.92466 \
	epsInf 1.77 \
	Pvap 1.06736e-10 \
	sigmaBulk 4.62e-05 \
	Rvdw 2.61727 \
	Res 1.42 \
	tauNuc 343133 \
	poleEl 15 7 1
forces-output-coords Positions
ion K   0.000000000000000   0.000000000000000   0.000000000000000 0
ion-species SG15/$ID_ONCV_PBE.upf
ion-width 0
ionic-minimize  \
	dirUpdateScheme      L-BFGS \
	linminMethod         DirUpdateRecommended \
	nIterations          0 \
	history              15 \
	knormThreshold       0.0001 \
	energyDiffThreshold  1e-06 \
	nEnergyDiff          2 \
	alphaTstart          1 \
	alphaTmin            1e-10 \
	updateTestStepSize   yes \
	alphaTreduceFactor   0.1 \
	alphaTincreaseFactor 3 \
	nAlphaAdjustMax      3 \
	wolfeEnergy          0.0001 \
	wolfeGradient        0.9 \
	fdTest               no
kpoint   0.000000000000   0.000000000000   0.000000000000  1.00000000000000
kpoint-folding 12 12 1 
latt-move-scale 1 1 1
latt-scale 3 3 1 
lattice  \
	   4.727486978767153   -2.363743489383575    0.000000000000000  \
	  -0.000000000000000    4.094123819672498    0.000000000000000  \
	   0.000000000000000    0.000000000000000   40.000000000000000 
lattice-minimize  \
	dirUpdateScheme      L-BFGS \
	linminMethod         DirUpdateRecommended \
	nIterations          0 \
	history              15 \
	knormThreshold       0 \
	energyDiffThreshold  1e-06 \
	nEnergyDiff          2 \
	alphaTstart          1 \
	alphaTmin            1e-10 \
	updateTestStepSize   yes \
	alphaTreduceFactor   0.1 \
	alphaTincreaseFactor 3 \
	nAlphaAdjustMax      3 \
	wolfeEnergy          0.0001 \
	wolfeGradient        0.9 \
	fdTest               no
lcao-params -1 1e-06 1e-05
pcm-variant GLSSA13
spintype z-spin
subspace-rotation-factor 1 yes
symmetries automatic
symmetry-threshold 0.0001



---------- Setting up symmetries ----------

Found 24 point-group symmetries of the bravais lattice
Found 24 space-group symmetries with basis
Applied RMS atom displacement 0 bohrs to make symmetries exact.

---------- Initializing the Grid ----------
R = 
[      14.1825     -7.09123            0  ]
[            0      12.2824            0  ]
[            0            0           40  ]
unit cell volume = 6967.77
G =
[   0.443025   0.255781         -0  ]
[          0   0.511561         -0  ]
[         -0         -0    0.15708  ]
Minimum fftbox size, Smin = [  60  60  164  ]
Chosen fftbox size, S = [  60  60  168  ]

---------- Exchange Correlation functional ----------
Initalized PBE GGA exchange.
Initalized PBE GGA correlation.

---------- Setting up pseudopotentials ----------
Width of ionic core gaussian charges (only for fluid interactions / plotting) set to 0

Reading pseudopotential file '/home/gridsan/aligho/DFT/build-Nov24/pseudopotentials/SG15/K_ONCV_PBE.upf':
  'K' pseudopotential, 'PBE' functional
  Generated using ONCVPSP code by D. R. Hamann
  Author: Martin Schlipf and Francois Gygi  Date: 150915.
  9 valence electrons, 3 orbitals, 6 projectors, 2222 radial grid points, with lMax = 2
  Transforming local potential to a uniform radial grid of dG=0.02 with 1489 points.
  Transforming nonlocal projectors to a uniform radial grid of dG=0.02 with 432 points.
    3S    l: 0   occupation:  2.0   eigenvalue: -1.298836
    3P    l: 1   occupation:  6.0   eigenvalue: -0.691386
    4S    l: 0   occupation:  1.0   eigenvalue: -0.085223
  Transforming atomic orbitals to a uniform radial grid of dG=0.02 with 432 points.
  Core radius for overlap checks: 2.06 bohrs.
  Reading pulay file /home/gridsan/aligho/DFT/build-Nov24/pseudopotentials/SG15/K_ONCV_PBE.pulay ... using dE_dnG = -1.597219e-05 computed for Ecut = 20.

Initialized 1 species with 1 total atoms.

Folded 1 k-points by 12x12x1 to 144 k-points.

---------- Setting up k-points, bands, fillings ----------
Reduced to 19 k-points under symmetry. 
Computing the number of bands and number of electrons
Calculating initial fillings.
nElectrons:   9.000000   nBands: 6   nStates: 38

----- Setting up reduced wavefunction bases (one per k-point) -----
average nbasis = 29766.104 , ideal nbasis = 29766.845

---------- Setting up coulomb interaction ----------
Initialized slab truncation along lattice direction 001

---------- Setting up 2D ewald sum ----------
Optimum gaussian width for ewald sums = 7.873530 bohr.
Real space sums over 289 unit cells with max indices [  8  8  0  ]
Reciprocal space sums over 81 terms with max indices [  4  4  0  ]

---------- Allocating electronic variables ----------
Initializing wave functions:  linear combination of atomic orbitals
Note: number of bands (6) exceeds available atomic orbitals (5)
K pseudo-atom occupations:   s ( 2 1 )  p ( 6 )
	FillingsUpdate:  mu: -0.086534892  nElectrons: 9.000000  magneticMoment: [ Abs: 0.94000  Tot: +0.94000 ]
LCAOMinimize: Iter:   0  F: -28.3816230550704702  |grad|_K:  3.406e-06  alpha:  1.000e+00
	FillingsUpdate:  mu: -0.086534441  nElectrons: 9.000000  magneticMoment: [ Abs: 0.94000  Tot: +0.94000 ]
LCAOMinimize: Iter:   1  F: -28.3816230629882256  |grad|_K:  1.498e-08  alpha:  9.977e-01  linmin: -8.504e-04  cgtest:  1.059e-02  t[s]:      8.80
LCAOMinimize: Encountered beta<0, resetting CG.
LCAOMinimize: 	Wrong curvature in test step, increasing alphaT to 2.993220e+00.
	FillingsUpdate:  mu: -0.086534444  nElectrons: 9.000000  magneticMoment: [ Abs: 0.94000  Tot: +0.94000 ]
LCAOMinimize: Iter:   2  F: -28.3816230629885879  |grad|_K:  1.130e-10  alpha: -2.688e+00  linmin:  5.490e-02  cgtest: -7.681e-01  t[s]:     11.19
LCAOMinimize: Converged (|Delta F|<1.000000e-06 for 2 iters).


---- Citations for features of the code used in this run ----

   Software package:
      R. Sundararaman, K. Letchworth-Weaver, K.A. Schwarz, D. Gunceler, Y. Ozhabes and T.A. Arias, 'JDFTx: software for joint density-functional theory', SoftwareX 6, 278 (2017)

   gga-PBE exchange-correlation functional:
      J.P. Perdew, K. Burke and M. Ernzerhof, Phys. Rev. Lett. 77, 3865 (1996)

   Pseudopotentials:
      M Schlipf and F Gygi, Comput. Phys. Commun. 196, 36 (2015)

   Truncated Coulomb potentials:
      R. Sundararaman and T.A. Arias, Phys. Rev. B 87, 165122 (2013)

This list may not be complete. Please suggest additional citations or
report any other bugs at https://github.com/shankar1729/jdftx/issues

Initialization completed successfully at t[s]:     11.36


-------- Electronic minimization -----------
Will mix electronic density at each iteration.
	FillingsUpdate:  mu: -0.086534444  nElectrons: 9.000000  magneticMoment: [ Abs: 0.94000  Tot: +0.94000 ]
	FillingsUpdate:  mu: -0.087107185  nElectrons: 9.000000  magneticMoment: [ Abs: 0.94000  Tot: +0.94000 ]
SCF: Cycle:  0   F: -28.382513912919997   dF: -8.908e-04   |Residual|: 2.921e-03   |deigs|: 1.727e-01  t[s]:     16.20
	FillingsUpdate:  mu: -0.087069647  nElectrons: 9.000000  magneticMoment: [ Abs: 0.94121  Tot: +0.94000 ]
SCF: Cycle:  1   F: -28.382534183163692   dF: -2.027e-05   |Residual|: 1.576e-03   |deigs|: 5.387e-03  t[s]:     19.95
	FillingsUpdate:  mu: -0.087155365  nElectrons: 9.000000  magneticMoment: [ Abs: 0.94194  Tot: +0.94000 ]
SCF: Cycle:  2   F: -28.382545329214153   dF: -1.115e-05   |Residual|: 1.247e-03   |deigs|: 3.170e-03  t[s]:     23.72
	FillingsUpdate:  mu: -0.086688959  nElectrons: 9.000000  magneticMoment: [ Abs: 0.94250  Tot: +0.94000 ]
SCF: Cycle:  3   F: -28.382554093963773   dF: -8.765e-06   |Residual|: 9.057e-04   |deigs|: 2.096e-03  t[s]:     27.56
	FillingsUpdate:  mu: -0.087208128  nElectrons: 9.000000  magneticMoment: [ Abs: 0.94204  Tot: +0.94000 ]
SCF: Cycle:  4   F: -28.382569447047565   dF: -1.535e-05   |Residual|: 6.372e-04   |deigs|: 1.721e-03  t[s]:     31.51
	FillingsUpdate:  mu: -0.087924708  nElectrons: 9.000000  magneticMoment: [ Abs: 0.94221  Tot: +0.94000 ]
SCF: Cycle:  5   F: -28.382580843546485   dF: -1.140e-05   |Residual|: 3.897e-04   |deigs|: 9.941e-04  t[s]:     35.52
	FillingsUpdate:  mu: -0.087787784  nElectrons: 9.000000  magneticMoment: [ Abs: 0.94193  Tot: +0.94000 ]
SCF: Cycle:  6   F: -28.382586275914015   dF: -5.432e-06   |Residual|: 2.727e-04   |deigs|: 1.146e-03  t[s]:     39.56
	FillingsUpdate:  mu: -0.087677345  nElectrons: 9.000000  magneticMoment: [ Abs: 0.94226  Tot: +0.94000 ]
SCF: Cycle:  7   F: -28.382588135985745   dF: -1.860e-06   |Residual|: 2.074e-04   |deigs|: 1.498e-03  t[s]:     43.56
	FillingsUpdate:  mu: -0.087341819  nElectrons: 9.000000  magneticMoment: [ Abs: 0.94236  Tot: +0.94000 ]
SCF: Cycle:  8   F: -28.382590476454929   dF: -2.340e-06   |Residual|: 1.589e-04   |deigs|: 4.490e-04  t[s]:     47.71
	FillingsUpdate:  mu: -0.087167938  nElectrons: 9.000000  magneticMoment: [ Abs: 0.94265  Tot: +0.94000 ]
SCF: Cycle:  9   F: -28.382590260813977   dF: +2.156e-07   |Residual|: 1.514e-04   |deigs|: 2.415e-04  t[s]:     51.91
	FillingsUpdate:  mu: -0.087121622  nElectrons: 9.000000  magneticMoment: [ Abs: 0.94240  Tot: +0.94000 ]
SCF: Cycle: 10   F: -28.382590662639728   dF: -4.018e-07   |Residual|: 1.254e-04   |deigs|: 2.203e-04  t[s]:     56.21
	FillingsUpdate:  mu: -0.087094038  nElectrons: 9.000000  magneticMoment: [ Abs: 0.94319  Tot: +0.94000 ]
SCF: Cycle: 11   F: -28.382590273763409   dF: +3.889e-07   |Residual|: 1.037e-04   |deigs|: 2.204e-04  t[s]:     60.50
	FillingsUpdate:  mu: -0.087153999  nElectrons: 9.000000  magneticMoment: [ Abs: 0.94276  Tot: +0.94000 ]
SCF: Cycle: 12   F: -28.382591806180884   dF: -1.532e-06   |Residual|: 8.449e-05   |deigs|: 3.323e-04  t[s]:     64.80
	FillingsUpdate:  mu: -0.087022320  nElectrons: 9.000000  magneticMoment: [ Abs: 0.94287  Tot: +0.94000 ]
SCF: Cycle: 13   F: -28.382592473344360   dF: -6.672e-07   |Residual|: 8.349e-05   |deigs|: 1.719e-04  t[s]:     69.11
	FillingsUpdate:  mu: -0.086882832  nElectrons: 9.000000  magneticMoment: [ Abs: 0.94289  Tot: +0.94000 ]
SCF: Cycle: 14   F: -28.382592412752491   dF: +6.059e-08   |Residual|: 8.548e-05   |deigs|: 1.483e-04  t[s]:     73.34
	FillingsUpdate:  mu: -0.086607931  nElectrons: 9.000000  magneticMoment: [ Abs: 0.94269  Tot: +0.94000 ]
SCF: Cycle: 15   F: -28.382592331563693   dF: +8.119e-08   |Residual|: 6.937e-05   |deigs|: 2.516e-04  t[s]:     77.68
	FillingsUpdate:  mu: -0.086525565  nElectrons: 9.000000  magneticMoment: [ Abs: 0.94257  Tot: +0.94000 ]
SCF: Cycle: 16   F: -28.382592634280940   dF: -3.027e-07   |Residual|: 6.013e-05   |deigs|: 2.587e-04  t[s]:     81.93
	FillingsUpdate:  mu: -0.086410940  nElectrons: 9.000000  magneticMoment: [ Abs: 0.94237  Tot: +0.94000 ]
SCF: Cycle: 17   F: -28.382592951345664   dF: -3.171e-07   |Residual|: 5.581e-05   |deigs|: 1.969e-04  t[s]:     86.14
	FillingsUpdate:  mu: -0.086376994  nElectrons: 9.000000  magneticMoment: [ Abs: 0.94213  Tot: +0.94000 ]
SCF: Cycle: 18   F: -28.382593246593885   dF: -2.952e-07   |Residual|: 4.102e-05   |deigs|: 4.607e-05  t[s]:     90.48
	FillingsUpdate:  mu: -0.086393331  nElectrons: 9.000000  magneticMoment: [ Abs: 0.94215  Tot: +0.94000 ]
SCF: Cycle: 19   F: -28.382593246753903   dF: -1.600e-10   |Residual|: 2.934e-05   |deigs|: 2.338e-05  t[s]:     94.70
	FillingsUpdate:  mu: -0.086400520  nElectrons: 9.000000  magneticMoment: [ Abs: 0.94216  Tot: +0.94000 ]
SCF: Cycle: 20   F: -28.382593351266969   dF: -1.045e-07   |Residual|: 1.864e-05   |deigs|: 2.954e-05  t[s]:     99.07
	FillingsUpdate:  mu: -0.086417579  nElectrons: 9.000000  magneticMoment: [ Abs: 0.94213  Tot: +0.94000 ]
SCF: Cycle: 21   F: -28.382593508569421   dF: -1.573e-07   |Residual|: 1.155e-05   |deigs|: 3.471e-05  t[s]:    103.38
	FillingsUpdate:  mu: -0.086421568  nElectrons: 9.000000  magneticMoment: [ Abs: 0.94209  Tot: +0.94000 ]
SCF: Cycle: 22   F: -28.382593516273900   dF: -7.704e-09   |Residual|: 8.179e-06   |deigs|: 2.483e-05  t[s]:    107.46
	FillingsUpdate:  mu: -0.086421723  nElectrons: 9.000000  magneticMoment: [ Abs: 0.94209  Tot: +0.94000 ]
SCF: Cycle: 23   F: -28.382593544145994   dF: -2.787e-08   |Residual|: 6.236e-06   |deigs|: 3.261e-05  t[s]:    111.87
	FillingsUpdate:  mu: -0.086424215  nElectrons: 9.000000  magneticMoment: [ Abs: 0.94212  Tot: +0.94000 ]
SCF: Cycle: 24   F: -28.382593552973798   dF: -8.828e-09   |Residual|: 4.426e-06   |deigs|: 4.225e-05  t[s]:    116.07
	FillingsUpdate:  mu: -0.086423226  nElectrons: 9.000000  magneticMoment: [ Abs: 0.94212  Tot: +0.94000 ]
SCF: Cycle: 25   F: -28.382593560515627   dF: -7.542e-09   |Residual|: 2.851e-06   |deigs|: 4.654e-05  t[s]:    120.30
SCF: Converged (|Delta E|<1.000000e-08 for 2 iters).


# Ionic positions in lattice coordinates:
ion K   0.000000000000000   0.000000000000000   0.000000000000000 0

# Forces in Lattice coordinates:
force K   0.000000000000000   0.000000000000000   0.000000000000000 0

# Energy components:
   Eewald =      -12.0320174002217755
       EH =       10.7729588426274692
     Eloc =      -29.9743779919979652
      Enl =       -2.7687256125911084
   Epulay =       -0.0000000016982517
      Exc =       -4.2457938260384669
       KE =        9.8653631250245759
-------------------------------------
     Etot =      -28.3825928648955248
       TS =        0.0000006956201006
-------------------------------------
        F =      -28.3825935605156268

IonicMinimize: Iter:   0  F: -28.382593560515627  |grad|_K:  0.000e+00  t[s]:    120.57
IonicMinimize: Converged (|grad|_K<1.000000e-04).

#--- Lowdin population analysis ---
# oxidation-state K +0.018
# magnetic-moments K +0.923

End date and time: Sat Feb  5 23:57:43 2022  (Duration: 0-0:02:00.62)
Done!
