
*************** JDFTx 1.6.0 (git hash 42ebbcc2) ***************

Start date and time: Sat Feb  5 23:43:34 2022
Executable jdftx with command-line: -i Alkali.in
Running on hosts (process indices):  d-4-7-2 (0-18)
Divided in process groups (process indices):  0 (0)  1 (1)  2 (2)  3 (3)  4 (4)  5 (5)  6 (6)  7 (7)  8 (8)  9 (9)  10 (10)  11 (11)  12 (12)  13 (13)  14 (14)  15 (15)  16 (16)  17 (17)  18 (18)
Resource initialization completed at t[s]:      0.00
Run totals: 19 processes, 48 threads, 0 GPUs


Input parsed successfully to the following command list (including defaults):

basis kpoint-dependent
coords-type Lattice
core-overlap-check vector
coulomb-interaction Slab 001
davidson-band-ratio 1.1
dump End None
dump-name $INPUT.$VAR
elec-cutoff 20
elec-eigen-algo Davidson
elec-ex-corr gga-PBE
elec-initial-magnetization 0.020000 yes
elec-smearing Fermi 1e-05
electronic-minimize  \
	dirUpdateScheme      FletcherReeves \
	linminMethod         DirUpdateRecommended \
	nIterations          100 \
	history              15 \
	knormThreshold       0 \
	energyDiffThreshold  1e-08 \
	nEnergyDiff          2 \
	alphaTstart          1 \
	alphaTmin            1e-10 \
	updateTestStepSize   yes \
	alphaTreduceFactor   0.1 \
	alphaTincreaseFactor 3 \
	nAlphaAdjustMax      3 \
	wolfeEnergy          0.0001 \
	wolfeGradient        0.9 \
	fdTest               no
electronic-scf  \
	nIterations	10000 \
	energyDiffThreshold	1e-08 \
	residualThreshold	1e-07 \
	mixFraction	0.5 \
	qMetric	0.8 \
	history	10 \
	nEigSteps	2 \
	eigDiffThreshold	1e-08 \
	mixedVariable	Density \
	qKerker	0.8 \
	qKappa	-1 \
	verbose	no \
	mixFractionMag	1.5
exchange-regularization WignerSeitzTruncated
fluid None
fluid-ex-corr (null) lda-PZ
fluid-gummel-loop 10 1.000000e-05
fluid-minimize  \
	dirUpdateScheme      PolakRibiere \
	linminMethod         DirUpdateRecommended \
	nIterations          100 \
	history              15 \
	knormThreshold       0 \
	energyDiffThreshold  0 \
	nEnergyDiff          2 \
	alphaTstart          1 \
	alphaTmin            1e-10 \
	updateTestStepSize   yes \
	alphaTreduceFactor   0.1 \
	alphaTincreaseFactor 3 \
	nAlphaAdjustMax      3 \
	wolfeEnergy          0.0001 \
	wolfeGradient        0.9 \
	fdTest               no
fluid-solvent H2O 55.338 ScalarEOS \
	epsBulk 78.4 \
	pMol 0.92466 \
	epsInf 1.77 \
	Pvap 1.06736e-10 \
	sigmaBulk 4.62e-05 \
	Rvdw 2.61727 \
	Res 1.42 \
	tauNuc 343133 \
	poleEl 15 7 1
forces-output-coords Positions
ion K   0.000000000000000   0.000000000000000   0.000000000000000 0
ion-species SG15/$ID_ONCV_PBE.upf
ion-width 0
ionic-minimize  \
	dirUpdateScheme      L-BFGS \
	linminMethod         DirUpdateRecommended \
	nIterations          0 \
	history              15 \
	knormThreshold       0.0001 \
	energyDiffThreshold  1e-06 \
	nEnergyDiff          2 \
	alphaTstart          1 \
	alphaTmin            1e-10 \
	updateTestStepSize   yes \
	alphaTreduceFactor   0.1 \
	alphaTincreaseFactor 3 \
	nAlphaAdjustMax      3 \
	wolfeEnergy          0.0001 \
	wolfeGradient        0.9 \
	fdTest               no
kpoint   0.000000000000   0.000000000000   0.000000000000  1.00000000000000
kpoint-folding 12 12 1 
latt-move-scale 1 1 1
latt-scale 3 3 1 
lattice  \
	   4.727486978767153   -2.363743489383575    0.000000000000000  \
	  -0.000000000000000    4.094123819672498    0.000000000000000  \
	   0.000000000000000    0.000000000000000   40.000000000000000 
lattice-minimize  \
	dirUpdateScheme      L-BFGS \
	linminMethod         DirUpdateRecommended \
	nIterations          0 \
	history              15 \
	knormThreshold       0 \
	energyDiffThreshold  1e-06 \
	nEnergyDiff          2 \
	alphaTstart          1 \
	alphaTmin            1e-10 \
	updateTestStepSize   yes \
	alphaTreduceFactor   0.1 \
	alphaTincreaseFactor 3 \
	nAlphaAdjustMax      3 \
	wolfeEnergy          0.0001 \
	wolfeGradient        0.9 \
	fdTest               no
lcao-params -1 1e-06 1e-05
pcm-variant GLSSA13
spintype z-spin
subspace-rotation-factor 1 yes
symmetries automatic
symmetry-threshold 0.0001



---------- Setting up symmetries ----------

Found 24 point-group symmetries of the bravais lattice
Found 24 space-group symmetries with basis
Applied RMS atom displacement 0 bohrs to make symmetries exact.

---------- Initializing the Grid ----------
R = 
[      14.1825     -7.09123            0  ]
[            0      12.2824            0  ]
[            0            0           40  ]
unit cell volume = 6967.77
G =
[   0.443025   0.255781         -0  ]
[          0   0.511561         -0  ]
[         -0         -0    0.15708  ]
Minimum fftbox size, Smin = [  60  60  164  ]
Chosen fftbox size, S = [  60  60  168  ]

---------- Exchange Correlation functional ----------
Initalized PBE GGA exchange.
Initalized PBE GGA correlation.

---------- Setting up pseudopotentials ----------
Width of ionic core gaussian charges (only for fluid interactions / plotting) set to 0

Reading pseudopotential file '/home/gridsan/aligho/DFT/build-Nov24/pseudopotentials/SG15/K_ONCV_PBE.upf':
  'K' pseudopotential, 'PBE' functional
  Generated using ONCVPSP code by D. R. Hamann
  Author: Martin Schlipf and Francois Gygi  Date: 150915.
  9 valence electrons, 3 orbitals, 6 projectors, 2222 radial grid points, with lMax = 2
  Transforming local potential to a uniform radial grid of dG=0.02 with 1489 points.
  Transforming nonlocal projectors to a uniform radial grid of dG=0.02 with 432 points.
    3S    l: 0   occupation:  2.0   eigenvalue: -1.298836
    3P    l: 1   occupation:  6.0   eigenvalue: -0.691386
    4S    l: 0   occupation:  1.0   eigenvalue: -0.085223
  Transforming atomic orbitals to a uniform radial grid of dG=0.02 with 432 points.
  Core radius for overlap checks: 2.06 bohrs.
  Reading pulay file /home/gridsan/aligho/DFT/build-Nov24/pseudopotentials/SG15/K_ONCV_PBE.pulay ... using dE_dnG = -1.597219e-05 computed for Ecut = 20.

Initialized 1 species with 1 total atoms.

Folded 1 k-points by 12x12x1 to 144 k-points.

---------- Setting up k-points, bands, fillings ----------
Reduced to 19 k-points under symmetry. 
Computing the number of bands and number of electrons
Calculating initial fillings.
nElectrons:   9.000000   nBands: 6   nStates: 38

----- Setting up reduced wavefunction bases (one per k-point) -----
average nbasis = 29766.104 , ideal nbasis = 29766.845

---------- Setting up coulomb interaction ----------
Initialized slab truncation along lattice direction 001

---------- Setting up 2D ewald sum ----------
Optimum gaussian width for ewald sums = 7.873530 bohr.
Real space sums over 289 unit cells with max indices [  8  8  0  ]
Reciprocal space sums over 81 terms with max indices [  4  4  0  ]

---------- Allocating electronic variables ----------
Initializing wave functions:  linear combination of atomic orbitals
Note: number of bands (6) exceeds available atomic orbitals (5)
K pseudo-atom occupations:   s ( 2 1 )  p ( 6 )
	FillingsUpdate:  mu: -0.086381346  nElectrons: 9.000000  magneticMoment: [ Abs: 0.02000  Tot: +0.02000 ]
LCAOMinimize: Iter:   0  F: -28.3829246592433506  |grad|_K:  1.872e-05  alpha:  1.000e+00
	FillingsUpdate:  mu: -0.086377690  nElectrons: 9.000000  magneticMoment: [ Abs: 0.02000  Tot: +0.02000 ]
LCAOMinimize: Iter:   1  F: -28.3829248960145861  |grad|_K:  1.388e-07  alpha:  9.876e-01  linmin: -1.525e-02  cgtest:  4.930e-01  t[s]:      8.81
LCAOMinimize: Encountered beta<0, resetting CG.
	FillingsUpdate:  mu: -0.086377688  nElectrons: 9.000000  magneticMoment: [ Abs: 0.02000  Tot: +0.02000 ]
LCAOMinimize: Iter:   2  F: -28.3829248960280260  |grad|_K:  7.378e-10  alpha:  1.006e+00  linmin:  3.932e-02  cgtest: -9.678e-01  t[s]:     11.25
LCAOMinimize: Converged (|Delta F|<1.000000e-06 for 2 iters).


---- Citations for features of the code used in this run ----

   Software package:
      R. Sundararaman, K. Letchworth-Weaver, K.A. Schwarz, D. Gunceler, Y. Ozhabes and T.A. Arias, 'JDFTx: software for joint density-functional theory', SoftwareX 6, 278 (2017)

   gga-PBE exchange-correlation functional:
      J.P. Perdew, K. Burke and M. Ernzerhof, Phys. Rev. Lett. 77, 3865 (1996)

   Pseudopotentials:
      M Schlipf and F Gygi, Comput. Phys. Commun. 196, 36 (2015)

   Truncated Coulomb potentials:
      R. Sundararaman and T.A. Arias, Phys. Rev. B 87, 165122 (2013)

This list may not be complete. Please suggest additional citations or
report any other bugs at https://github.com/shankar1729/jdftx/issues

Initialization completed successfully at t[s]:     11.42


-------- Electronic minimization -----------
Will mix electronic density at each iteration.
	FillingsUpdate:  mu: -0.086377688  nElectrons: 9.000000  magneticMoment: [ Abs: 0.02000  Tot: +0.02000 ]
	FillingsUpdate:  mu: -0.088314965  nElectrons: 9.000000  magneticMoment: [ Abs: 0.02000  Tot: +0.02000 ]
SCF: Cycle:  0   F: -28.384436142536227   dF: -1.511e-03   |Residual|: 3.311e-03   |deigs|: 1.747e-01  t[s]:     16.20
	FillingsUpdate:  mu: -0.088542048  nElectrons: 9.000000  magneticMoment: [ Abs: 0.02000  Tot: +0.02000 ]
SCF: Cycle:  1   F: -28.384456756371197   dF: -2.061e-05   |Residual|: 2.881e-03   |deigs|: 4.557e-03  t[s]:     19.89
	FillingsUpdate:  mu: -0.089415615  nElectrons: 9.000000  magneticMoment: [ Abs: 0.02064  Tot: +0.02000 ]
SCF: Cycle:  2   F: -28.384490720413691   dF: -3.396e-05   |Residual|: 1.141e-03   |deigs|: 3.966e-03  t[s]:     23.79
	FillingsUpdate:  mu: -0.089341727  nElectrons: 9.000000  magneticMoment: [ Abs: 0.02002  Tot: +0.02000 ]
SCF: Cycle:  3   F: -28.384498456322600   dF: -7.736e-06   |Residual|: 6.946e-04   |deigs|: 2.035e-03  t[s]:     27.71
	FillingsUpdate:  mu: -0.089343664  nElectrons: 9.000000  magneticMoment: [ Abs: 0.02005  Tot: +0.02000 ]
SCF: Cycle:  4   F: -28.384502285427526   dF: -3.829e-06   |Residual|: 4.842e-04   |deigs|: 1.541e-03  t[s]:     31.64
	FillingsUpdate:  mu: -0.089227821  nElectrons: 9.000000  magneticMoment: [ Abs: 0.02001  Tot: +0.02000 ]
SCF: Cycle:  5   F: -28.384505742759689   dF: -3.457e-06   |Residual|: 3.321e-04   |deigs|: 1.707e-03  t[s]:     35.66
	FillingsUpdate:  mu: -0.089068963  nElectrons: 9.000000  magneticMoment: [ Abs: 0.02008  Tot: +0.02000 ]
SCF: Cycle:  6   F: -28.384506865803846   dF: -1.123e-06   |Residual|: 2.773e-04   |deigs|: 1.658e-03  t[s]:     39.68
	FillingsUpdate:  mu: -0.088824928  nElectrons: 9.000000  magneticMoment: [ Abs: 0.02010  Tot: +0.02000 ]
SCF: Cycle:  7   F: -28.384507266715524   dF: -4.009e-07   |Residual|: 1.916e-04   |deigs|: 1.120e-03  t[s]:     43.80
	FillingsUpdate:  mu: -0.088701577  nElectrons: 9.000000  magneticMoment: [ Abs: 0.02010  Tot: +0.02000 ]
SCF: Cycle:  8   F: -28.384507575404651   dF: -3.087e-07   |Residual|: 1.851e-04   |deigs|: 1.871e-04  t[s]:     48.00
	FillingsUpdate:  mu: -0.088491292  nElectrons: 9.000000  magneticMoment: [ Abs: 0.02014  Tot: +0.02000 ]
SCF: Cycle:  9   F: -28.384507859344250   dF: -2.839e-07   |Residual|: 1.584e-04   |deigs|: 2.841e-04  t[s]:     52.26
	FillingsUpdate:  mu: -0.088313224  nElectrons: 9.000000  magneticMoment: [ Abs: 0.02009  Tot: +0.02000 ]
SCF: Cycle: 10   F: -28.384507880246339   dF: -2.090e-08   |Residual|: 1.304e-04   |deigs|: 1.609e-04  t[s]:     56.54
	FillingsUpdate:  mu: -0.088115905  nElectrons: 9.000000  magneticMoment: [ Abs: 0.02013  Tot: +0.02000 ]
SCF: Cycle: 11   F: -28.384507846861844   dF: +3.338e-08   |Residual|: 1.090e-04   |deigs|: 2.749e-04  t[s]:     60.85
	FillingsUpdate:  mu: -0.087949333  nElectrons: 9.000000  magneticMoment: [ Abs: 0.02008  Tot: +0.02000 ]
SCF: Cycle: 12   F: -28.384507826898119   dF: +1.996e-08   |Residual|: 1.032e-04   |deigs|: 2.657e-04  t[s]:     65.16
	FillingsUpdate:  mu: -0.087772463  nElectrons: 9.000000  magneticMoment: [ Abs: 0.02010  Tot: +0.02000 ]
SCF: Cycle: 13   F: -28.384507692607365   dF: +1.343e-07   |Residual|: 1.002e-04   |deigs|: 2.176e-04  t[s]:     69.42
	FillingsUpdate:  mu: -0.087538457  nElectrons: 9.000000  magneticMoment: [ Abs: 0.02009  Tot: +0.02000 ]
SCF: Cycle: 14   F: -28.384508041811017   dF: -3.492e-07   |Residual|: 9.043e-05   |deigs|: 2.758e-04  t[s]:     73.78
	FillingsUpdate:  mu: -0.087473831  nElectrons: 9.000000  magneticMoment: [ Abs: 0.02012  Tot: +0.02000 ]
SCF: Cycle: 15   F: -28.384508411798286   dF: -3.700e-07   |Residual|: 7.903e-05   |deigs|: 1.235e-04  t[s]:     78.11
	FillingsUpdate:  mu: -0.087420614  nElectrons: 9.000000  magneticMoment: [ Abs: 0.02011  Tot: +0.02000 ]
SCF: Cycle: 16   F: -28.384508681121751   dF: -2.693e-07   |Residual|: 4.796e-05   |deigs|: 9.099e-05  t[s]:     82.46
	FillingsUpdate:  mu: -0.087356237  nElectrons: 9.000000  magneticMoment: [ Abs: 0.02006  Tot: +0.02000 ]
SCF: Cycle: 17   F: -28.384508793085043   dF: -1.120e-07   |Residual|: 3.289e-05   |deigs|: 9.750e-05  t[s]:     86.74
	FillingsUpdate:  mu: -0.087321508  nElectrons: 9.000000  magneticMoment: [ Abs: 0.02004  Tot: +0.02000 ]
SCF: Cycle: 18   F: -28.384508834105489   dF: -4.102e-08   |Residual|: 1.927e-05   |deigs|: 9.060e-05  t[s]:     90.99
	FillingsUpdate:  mu: -0.087321583  nElectrons: 9.000000  magneticMoment: [ Abs: 0.02003  Tot: +0.02000 ]
SCF: Cycle: 19   F: -28.384508855108852   dF: -2.100e-08   |Residual|: 1.166e-05   |deigs|: 6.198e-05  t[s]:     95.27
	FillingsUpdate:  mu: -0.087327811  nElectrons: 9.000000  magneticMoment: [ Abs: 0.02003  Tot: +0.02000 ]
SCF: Cycle: 20   F: -28.384508867578525   dF: -1.247e-08   |Residual|: 5.768e-06   |deigs|: 5.635e-05  t[s]:     99.56
	FillingsUpdate:  mu: -0.087327673  nElectrons: 9.000000  magneticMoment: [ Abs: 0.02003  Tot: +0.02000 ]
SCF: Cycle: 21   F: -28.384508872509706   dF: -4.931e-09   |Residual|: 3.671e-06   |deigs|: 4.272e-05  t[s]:    103.64
	FillingsUpdate:  mu: -0.087327004  nElectrons: 9.000000  magneticMoment: [ Abs: 0.02003  Tot: +0.02000 ]
SCF: Cycle: 22   F: -28.384508875210830   dF: -2.701e-09   |Residual|: 2.495e-06   |deigs|: 4.408e-05  t[s]:    107.71
SCF: Converged (|Delta E|<1.000000e-08 for 2 iters).


# Ionic positions in lattice coordinates:
ion K   0.000000000000000   0.000000000000000   0.000000000000000 0

# Forces in Lattice coordinates:
force K  -0.000000000000000   0.000000000000000   0.000000000000000 0

# Energy components:
   Eewald =      -12.0320174002217755
       EH =       10.7054688487323499
     Eloc =      -29.8995684702375257
      Enl =       -2.7720969970167881
   Epulay =       -0.0000000016982517
      Exc =       -4.2362090568238671
       KE =        9.8499147538806646
-------------------------------------
     Etot =      -28.3845083233851945
       TS =        0.0000005518256369
-------------------------------------
        F =      -28.3845088752108303

IonicMinimize: Iter:   0  F: -28.384508875210830  |grad|_K:  0.000e+00  t[s]:    107.97
IonicMinimize: Converged (|grad|_K<1.000000e-04).

#--- Lowdin population analysis ---
# oxidation-state K +0.026
# magnetic-moments K +0.019

End date and time: Sat Feb  5 23:45:22 2022  (Duration: 0-0:01:48.01)
Done!
