
*************** JDFTx 1.6.0 (git hash 42ebbcc2) ***************

Start date and time: Sat Feb  5 23:31:17 2022
Executable jdftx with command-line: -i Alkali.in
Running on hosts (process indices):  d-3-7-3 (0-18)
Divided in process groups (process indices):  0 (0)  1 (1)  2 (2)  3 (3)  4 (4)  5 (5)  6 (6)  7 (7)  8 (8)  9 (9)  10 (10)  11 (11)  12 (12)  13 (13)  14 (14)  15 (15)  16 (16)  17 (17)  18 (18)
Resource initialization completed at t[s]:      0.00
Run totals: 19 processes, 48 threads, 0 GPUs


Input parsed successfully to the following command list (including defaults):

basis kpoint-dependent
coords-type Lattice
core-overlap-check vector
coulomb-interaction Slab 001
davidson-band-ratio 1.1
dump End None
dump-name $INPUT.$VAR
elec-cutoff 20
elec-eigen-algo Davidson
elec-ex-corr gga-PBE
elec-initial-magnetization -0.960000 yes
elec-smearing Fermi 1e-05
electronic-minimize  \
	dirUpdateScheme      FletcherReeves \
	linminMethod         DirUpdateRecommended \
	nIterations          100 \
	history              15 \
	knormThreshold       0 \
	energyDiffThreshold  1e-08 \
	nEnergyDiff          2 \
	alphaTstart          1 \
	alphaTmin            1e-10 \
	updateTestStepSize   yes \
	alphaTreduceFactor   0.1 \
	alphaTincreaseFactor 3 \
	nAlphaAdjustMax      3 \
	wolfeEnergy          0.0001 \
	wolfeGradient        0.9 \
	fdTest               no
electronic-scf  \
	nIterations	10000 \
	energyDiffThreshold	1e-08 \
	residualThreshold	1e-07 \
	mixFraction	0.5 \
	qMetric	0.8 \
	history	10 \
	nEigSteps	2 \
	eigDiffThreshold	1e-08 \
	mixedVariable	Density \
	qKerker	0.8 \
	qKappa	-1 \
	verbose	no \
	mixFractionMag	1.5
exchange-regularization WignerSeitzTruncated
fluid None
fluid-ex-corr (null) lda-PZ
fluid-gummel-loop 10 1.000000e-05
fluid-minimize  \
	dirUpdateScheme      PolakRibiere \
	linminMethod         DirUpdateRecommended \
	nIterations          100 \
	history              15 \
	knormThreshold       0 \
	energyDiffThreshold  0 \
	nEnergyDiff          2 \
	alphaTstart          1 \
	alphaTmin            1e-10 \
	updateTestStepSize   yes \
	alphaTreduceFactor   0.1 \
	alphaTincreaseFactor 3 \
	nAlphaAdjustMax      3 \
	wolfeEnergy          0.0001 \
	wolfeGradient        0.9 \
	fdTest               no
fluid-solvent H2O 55.338 ScalarEOS \
	epsBulk 78.4 \
	pMol 0.92466 \
	epsInf 1.77 \
	Pvap 1.06736e-10 \
	sigmaBulk 4.62e-05 \
	Rvdw 2.61727 \
	Res 1.42 \
	tauNuc 343133 \
	poleEl 15 7 1
forces-output-coords Positions
ion K   0.000000000000000   0.000000000000000   0.000000000000000 0
ion-species SG15/$ID_ONCV_PBE.upf
ion-width 0
ionic-minimize  \
	dirUpdateScheme      L-BFGS \
	linminMethod         DirUpdateRecommended \
	nIterations          0 \
	history              15 \
	knormThreshold       0.0001 \
	energyDiffThreshold  1e-06 \
	nEnergyDiff          2 \
	alphaTstart          1 \
	alphaTmin            1e-10 \
	updateTestStepSize   yes \
	alphaTreduceFactor   0.1 \
	alphaTincreaseFactor 3 \
	nAlphaAdjustMax      3 \
	wolfeEnergy          0.0001 \
	wolfeGradient        0.9 \
	fdTest               no
kpoint   0.000000000000   0.000000000000   0.000000000000  1.00000000000000
kpoint-folding 12 12 1 
latt-move-scale 1 1 1
latt-scale 3 3 1 
lattice  \
	   4.727486978767153   -2.363743489383575    0.000000000000000  \
	  -0.000000000000000    4.094123819672498    0.000000000000000  \
	   0.000000000000000    0.000000000000000   40.000000000000000 
lattice-minimize  \
	dirUpdateScheme      L-BFGS \
	linminMethod         DirUpdateRecommended \
	nIterations          0 \
	history              15 \
	knormThreshold       0 \
	energyDiffThreshold  1e-06 \
	nEnergyDiff          2 \
	alphaTstart          1 \
	alphaTmin            1e-10 \
	updateTestStepSize   yes \
	alphaTreduceFactor   0.1 \
	alphaTincreaseFactor 3 \
	nAlphaAdjustMax      3 \
	wolfeEnergy          0.0001 \
	wolfeGradient        0.9 \
	fdTest               no
lcao-params -1 1e-06 1e-05
pcm-variant GLSSA13
spintype z-spin
subspace-rotation-factor 1 yes
symmetries automatic
symmetry-threshold 0.0001



---------- Setting up symmetries ----------

Found 24 point-group symmetries of the bravais lattice
Found 24 space-group symmetries with basis
Applied RMS atom displacement 0 bohrs to make symmetries exact.

---------- Initializing the Grid ----------
R = 
[      14.1825     -7.09123            0  ]
[            0      12.2824            0  ]
[            0            0           40  ]
unit cell volume = 6967.77
G =
[   0.443025   0.255781         -0  ]
[          0   0.511561         -0  ]
[         -0         -0    0.15708  ]
Minimum fftbox size, Smin = [  60  60  164  ]
Chosen fftbox size, S = [  60  60  168  ]

---------- Exchange Correlation functional ----------
Initalized PBE GGA exchange.
Initalized PBE GGA correlation.

---------- Setting up pseudopotentials ----------
Width of ionic core gaussian charges (only for fluid interactions / plotting) set to 0

Reading pseudopotential file '/home/gridsan/aligho/DFT/build-Nov24/pseudopotentials/SG15/K_ONCV_PBE.upf':
  'K' pseudopotential, 'PBE' functional
  Generated using ONCVPSP code by D. R. Hamann
  Author: Martin Schlipf and Francois Gygi  Date: 150915.
  9 valence electrons, 3 orbitals, 6 projectors, 2222 radial grid points, with lMax = 2
  Transforming local potential to a uniform radial grid of dG=0.02 with 1489 points.
  Transforming nonlocal projectors to a uniform radial grid of dG=0.02 with 432 points.
    3S    l: 0   occupation:  2.0   eigenvalue: -1.298836
    3P    l: 1   occupation:  6.0   eigenvalue: -0.691386
    4S    l: 0   occupation:  1.0   eigenvalue: -0.085223
  Transforming atomic orbitals to a uniform radial grid of dG=0.02 with 432 points.
  Core radius for overlap checks: 2.06 bohrs.
  Reading pulay file /home/gridsan/aligho/DFT/build-Nov24/pseudopotentials/SG15/K_ONCV_PBE.pulay ... using dE_dnG = -1.597219e-05 computed for Ecut = 20.

Initialized 1 species with 1 total atoms.

Folded 1 k-points by 12x12x1 to 144 k-points.

---------- Setting up k-points, bands, fillings ----------
Reduced to 19 k-points under symmetry. 
Computing the number of bands and number of electrons
Calculating initial fillings.
nElectrons:   9.000000   nBands: 6   nStates: 38

----- Setting up reduced wavefunction bases (one per k-point) -----
average nbasis = 29766.104 , ideal nbasis = 29766.845

---------- Setting up coulomb interaction ----------
Initialized slab truncation along lattice direction 001

---------- Setting up 2D ewald sum ----------
Optimum gaussian width for ewald sums = 7.873530 bohr.
Real space sums over 289 unit cells with max indices [  8  8  0  ]
Reciprocal space sums over 81 terms with max indices [  4  4  0  ]

---------- Allocating electronic variables ----------
Initializing wave functions:  linear combination of atomic orbitals
Note: number of bands (6) exceeds available atomic orbitals (5)
K pseudo-atom occupations:   s ( 2 1 )  p ( 6 )
	FillingsUpdate:  mu: -0.085583403  nElectrons: 9.000000  magneticMoment: [ Abs: 0.96000  Tot: -0.96000 ]
LCAOMinimize: Iter:   0  F: -28.3816191401310363  |grad|_K:  2.275e-06  alpha:  1.000e+00
	FillingsUpdate:  mu: -0.085583346  nElectrons: 9.000000  magneticMoment: [ Abs: 0.96000  Tot: -0.96000 ]
LCAOMinimize: Iter:   1  F: -28.3816191436680967  |grad|_K:  9.507e-09  alpha:  9.992e-01  linmin:  5.348e-03  cgtest: -6.644e-02  t[s]:      8.69
LCAOMinimize: 	Step increased F by 9.237056e-14, reducing alpha to 1.900371e-02.
LCAOMinimize: 	Step increased F by 1.172396e-13, reducing alpha to 1.900371e-03.
LCAOMinimize: 	Step increased F by 1.634248e-13, reducing alpha to 1.900371e-04.
LCAOMinimize: 	Step failed to reduce F after 3 attempts. Quitting step.
LCAOMinimize: 	Undoing step.
LCAOMinimize: 	Step failed: resetting search direction.
	FillingsUpdate:  mu: -0.085583346  nElectrons: 9.000000  magneticMoment: [ Abs: 0.96000  Tot: -0.96000 ]
LCAOMinimize: Iter:   2  F: -28.3816191436678444  |grad|_K:  9.491e-09  alpha:  1.900e-04
	FillingsUpdate:  mu: -0.085583347  nElectrons: 9.000000  magneticMoment: [ Abs: 0.96000  Tot: -0.96000 ]
LCAOMinimize: Iter:   3  F: -28.3816191436680683  |grad|_K:  7.444e-09  alpha:  2.138e-01  linmin: -6.968e-02  cgtest:  1.000e+00  t[s]:     17.54
LCAOMinimize: Encountered beta<0, resetting CG.
LCAOMinimize: 	Step increased F by 1.776357e-14, reducing alpha to 1.624966e-02.
LCAOMinimize: 	Step increased F by 1.136868e-13, reducing alpha to 1.624966e-03.
LCAOMinimize: 	Step increased F by 5.684342e-14, reducing alpha to 1.624966e-04.
LCAOMinimize: 	Step failed to reduce F after 3 attempts. Quitting step.
LCAOMinimize: 	Undoing step.
LCAOMinimize: 	Step failed along negative gradient direction.
LCAOMinimize: Probably at roundoff error limit. (Stopping)


---- Citations for features of the code used in this run ----

   Software package:
      R. Sundararaman, K. Letchworth-Weaver, K.A. Schwarz, D. Gunceler, Y. Ozhabes and T.A. Arias, 'JDFTx: software for joint density-functional theory', SoftwareX 6, 278 (2017)

   gga-PBE exchange-correlation functional:
      J.P. Perdew, K. Burke and M. Ernzerhof, Phys. Rev. Lett. 77, 3865 (1996)

   Pseudopotentials:
      M Schlipf and F Gygi, Comput. Phys. Commun. 196, 36 (2015)

   Truncated Coulomb potentials:
      R. Sundararaman and T.A. Arias, Phys. Rev. B 87, 165122 (2013)

This list may not be complete. Please suggest additional citations or
report any other bugs at https://github.com/shankar1729/jdftx/issues

Initialization completed successfully at t[s]:     24.00


-------- Electronic minimization -----------
Will mix electronic density at each iteration.
	FillingsUpdate:  mu: -0.085583347  nElectrons: 9.000000  magneticMoment: [ Abs: 0.96000  Tot: -0.96000 ]
	FillingsUpdate:  mu: -0.086177382  nElectrons: 9.000000  magneticMoment: [ Abs: 0.96000  Tot: -0.96000 ]
SCF: Cycle:  0   F: -28.382490899034977   dF: -8.718e-04   |Residual|: 2.893e-03   |deigs|: 1.725e-01  t[s]:     28.79
	FillingsUpdate:  mu: -0.085767740  nElectrons: 9.000000  magneticMoment: [ Abs: 0.96136  Tot: -0.96000 ]
SCF: Cycle:  1   F: -28.382509368377910   dF: -1.847e-05   |Residual|: 1.506e-03   |deigs|: 5.194e-03  t[s]:     32.51
	FillingsUpdate:  mu: -0.085326932  nElectrons: 9.000000  magneticMoment: [ Abs: 0.96203  Tot: -0.96000 ]
SCF: Cycle:  2   F: -28.382518480972294   dF: -9.113e-06   |Residual|: 1.197e-03   |deigs|: 4.059e-03  t[s]:     36.21
	FillingsUpdate:  mu: -0.085317201  nElectrons: 9.000000  magneticMoment: [ Abs: 0.96259  Tot: -0.96000 ]
SCF: Cycle:  3   F: -28.382530832424013   dF: -1.235e-05   |Residual|: 9.030e-04   |deigs|: 1.467e-03  t[s]:     40.01
	FillingsUpdate:  mu: -0.085688541  nElectrons: 9.000000  magneticMoment: [ Abs: 0.96220  Tot: -0.96000 ]
SCF: Cycle:  4   F: -28.382542785068228   dF: -1.195e-05   |Residual|: 6.397e-04   |deigs|: 1.071e-03  t[s]:     43.82
	FillingsUpdate:  mu: -0.086348113  nElectrons: 9.000000  magneticMoment: [ Abs: 0.96233  Tot: -0.96000 ]
SCF: Cycle:  5   F: -28.382553518152157   dF: -1.073e-05   |Residual|: 3.675e-04   |deigs|: 9.158e-04  t[s]:     47.70
	FillingsUpdate:  mu: -0.086694113  nElectrons: 9.000000  magneticMoment: [ Abs: 0.96204  Tot: -0.96000 ]
SCF: Cycle:  6   F: -28.382558766012956   dF: -5.248e-06   |Residual|: 2.580e-04   |deigs|: 1.922e-03  t[s]:     51.68
	FillingsUpdate:  mu: -0.086450178  nElectrons: 9.000000  magneticMoment: [ Abs: 0.96234  Tot: -0.96000 ]
SCF: Cycle:  7   F: -28.382560418129334   dF: -1.652e-06   |Residual|: 2.102e-04   |deigs|: 5.125e-04  t[s]:     55.72
	FillingsUpdate:  mu: -0.086180867  nElectrons: 9.000000  magneticMoment: [ Abs: 0.96247  Tot: -0.96000 ]
SCF: Cycle:  8   F: -28.382562346381285   dF: -1.928e-06   |Residual|: 1.540e-04   |deigs|: 3.922e-04  t[s]:     59.85
	FillingsUpdate:  mu: -0.086046256  nElectrons: 9.000000  magneticMoment: [ Abs: 0.96268  Tot: -0.96000 ]
SCF: Cycle:  9   F: -28.382562818070106   dF: -4.717e-07   |Residual|: 1.503e-04   |deigs|: 2.311e-04  t[s]:     64.01
	FillingsUpdate:  mu: -0.086042824  nElectrons: 9.000000  magneticMoment: [ Abs: 0.96241  Tot: -0.96000 ]
SCF: Cycle: 10   F: -28.382563532705181   dF: -7.146e-07   |Residual|: 1.199e-04   |deigs|: 2.590e-04  t[s]:     68.30
	FillingsUpdate:  mu: -0.086070484  nElectrons: 9.000000  magneticMoment: [ Abs: 0.96324  Tot: -0.96000 ]
SCF: Cycle: 11   F: -28.382562691183523   dF: +8.415e-07   |Residual|: 1.006e-04   |deigs|: 1.839e-04  t[s]:     72.56
	FillingsUpdate:  mu: -0.086127252  nElectrons: 9.000000  magneticMoment: [ Abs: 0.96281  Tot: -0.96000 ]
SCF: Cycle: 12   F: -28.382564212070246   dF: -1.521e-06   |Residual|: 7.790e-05   |deigs|: 1.895e-04  t[s]:     76.82
	FillingsUpdate:  mu: -0.086074141  nElectrons: 9.000000  magneticMoment: [ Abs: 0.96296  Tot: -0.96000 ]
SCF: Cycle: 13   F: -28.382565046774939   dF: -8.347e-07   |Residual|: 8.235e-05   |deigs|: 1.774e-04  t[s]:     80.99
	FillingsUpdate:  mu: -0.085941551  nElectrons: 9.000000  magneticMoment: [ Abs: 0.96299  Tot: -0.96000 ]
SCF: Cycle: 14   F: -28.382565072708587   dF: -2.593e-08   |Residual|: 8.617e-05   |deigs|: 2.839e-04  t[s]:     85.14
	FillingsUpdate:  mu: -0.085698287  nElectrons: 9.000000  magneticMoment: [ Abs: 0.96280  Tot: -0.96000 ]
SCF: Cycle: 15   F: -28.382565032991288   dF: +3.972e-08   |Residual|: 6.698e-05   |deigs|: 3.459e-04  t[s]:     89.39
	FillingsUpdate:  mu: -0.085558176  nElectrons: 9.000000  magneticMoment: [ Abs: 0.96265  Tot: -0.96000 ]
SCF: Cycle: 16   F: -28.382565187302678   dF: -1.543e-07   |Residual|: 5.699e-05   |deigs|: 1.901e-04  t[s]:     93.68
	FillingsUpdate:  mu: -0.085486954  nElectrons: 9.000000  magneticMoment: [ Abs: 0.96243  Tot: -0.96000 ]
SCF: Cycle: 17   F: -28.382565419952222   dF: -2.326e-07   |Residual|: 4.957e-05   |deigs|: 9.323e-05  t[s]:     97.90
	FillingsUpdate:  mu: -0.085505814  nElectrons: 9.000000  magneticMoment: [ Abs: 0.96218  Tot: -0.96000 ]
SCF: Cycle: 18   F: -28.382565604358021   dF: -1.844e-07   |Residual|: 3.923e-05   |deigs|: 7.434e-05  t[s]:    102.16
	FillingsUpdate:  mu: -0.085495240  nElectrons: 9.000000  magneticMoment: [ Abs: 0.96226  Tot: -0.96000 ]
SCF: Cycle: 19   F: -28.382565820791967   dF: -2.164e-07   |Residual|: 2.760e-05   |deigs|: 4.221e-05  t[s]:    106.39
	FillingsUpdate:  mu: -0.085505727  nElectrons: 9.000000  magneticMoment: [ Abs: 0.96223  Tot: -0.96000 ]
SCF: Cycle: 20   F: -28.382565900320582   dF: -7.953e-08   |Residual|: 1.562e-05   |deigs|: 4.550e-05  t[s]:    110.57
	FillingsUpdate:  mu: -0.085510472  nElectrons: 9.000000  magneticMoment: [ Abs: 0.96220  Tot: -0.96000 ]
SCF: Cycle: 21   F: -28.382565928863794   dF: -2.854e-08   |Residual|: 1.102e-05   |deigs|: 1.951e-05  t[s]:    114.71
	FillingsUpdate:  mu: -0.085512495  nElectrons: 9.000000  magneticMoment: [ Abs: 0.96221  Tot: -0.96000 ]
SCF: Cycle: 22   F: -28.382565937900349   dF: -9.037e-09   |Residual|: 8.898e-06   |deigs|: 1.035e-05  t[s]:    118.92
	FillingsUpdate:  mu: -0.085514633  nElectrons: 9.000000  magneticMoment: [ Abs: 0.96223  Tot: -0.96000 ]
SCF: Cycle: 23   F: -28.382565959291245   dF: -2.139e-08   |Residual|: 5.584e-06   |deigs|: 1.393e-05  t[s]:    123.20
	FillingsUpdate:  mu: -0.085513894  nElectrons: 9.000000  magneticMoment: [ Abs: 0.96222  Tot: -0.96000 ]
SCF: Cycle: 24   F: -28.382565964373974   dF: -5.083e-09   |Residual|: 3.715e-06   |deigs|: 7.032e-06  t[s]:    127.35
	FillingsUpdate:  mu: -0.085515204  nElectrons: 9.000000  magneticMoment: [ Abs: 0.96221  Tot: -0.96000 ]
SCF: Cycle: 25   F: -28.382565970615534   dF: -6.242e-09   |Residual|: 2.969e-06   |deigs|: 4.988e-06  t[s]:    131.62
SCF: Converged (|Delta E|<1.000000e-08 for 2 iters).


# Ionic positions in lattice coordinates:
ion K   0.000000000000000   0.000000000000000   0.000000000000000 0

# Forces in Lattice coordinates:
force K   0.000000000000000  -0.000000000000000   0.000000000000000 0

# Energy components:
   Eewald =      -12.0320174002217755
       EH =       10.7763782445180691
     Eloc =      -29.9781848254995502
      Enl =       -2.7685487711579140
   Epulay =       -0.0000000016982517
      Exc =       -4.2463494796272183
       KE =        9.8661567406111423
-------------------------------------
     Etot =      -28.3825654930755071
       TS =        0.0000004775400274
-------------------------------------
        F =      -28.3825659706155342

IonicMinimize: Iter:   0  F: -28.382565970615534  |grad|_K:  0.000e+00  t[s]:    131.87
IonicMinimize: Converged (|grad|_K<1.000000e-04).

#--- Lowdin population analysis ---
# oxidation-state K +0.017
# magnetic-moments K -0.943

End date and time: Sat Feb  5 23:33:29 2022  (Duration: 0-0:02:11.91)
Done!
