
*************** JDFTx 1.6.0 (git hash 42ebbcc2) ***************

Start date and time: Sat Feb  5 23:39:33 2022
Executable jdftx with command-line: -i Alkali.in
Running on hosts (process indices):  d-6-7-4 (0-18)
Divided in process groups (process indices):  0 (0)  1 (1)  2 (2)  3 (3)  4 (4)  5 (5)  6 (6)  7 (7)  8 (8)  9 (9)  10 (10)  11 (11)  12 (12)  13 (13)  14 (14)  15 (15)  16 (16)  17 (17)  18 (18)
Resource initialization completed at t[s]:      0.00
Run totals: 19 processes, 48 threads, 0 GPUs


Input parsed successfully to the following command list (including defaults):

basis kpoint-dependent
coords-type Lattice
core-overlap-check vector
coulomb-interaction Slab 001
davidson-band-ratio 1.1
dump End None
dump-name $INPUT.$VAR
elec-cutoff 20
elec-eigen-algo Davidson
elec-ex-corr gga-PBE
elec-initial-magnetization -0.420000 yes
elec-smearing Fermi 1e-05
electronic-minimize  \
	dirUpdateScheme      FletcherReeves \
	linminMethod         DirUpdateRecommended \
	nIterations          100 \
	history              15 \
	knormThreshold       0 \
	energyDiffThreshold  1e-08 \
	nEnergyDiff          2 \
	alphaTstart          1 \
	alphaTmin            1e-10 \
	updateTestStepSize   yes \
	alphaTreduceFactor   0.1 \
	alphaTincreaseFactor 3 \
	nAlphaAdjustMax      3 \
	wolfeEnergy          0.0001 \
	wolfeGradient        0.9 \
	fdTest               no
electronic-scf  \
	nIterations	10000 \
	energyDiffThreshold	1e-08 \
	residualThreshold	1e-07 \
	mixFraction	0.5 \
	qMetric	0.8 \
	history	10 \
	nEigSteps	2 \
	eigDiffThreshold	1e-08 \
	mixedVariable	Density \
	qKerker	0.8 \
	qKappa	-1 \
	verbose	no \
	mixFractionMag	1.5
exchange-regularization WignerSeitzTruncated
fluid None
fluid-ex-corr (null) lda-PZ
fluid-gummel-loop 10 1.000000e-05
fluid-minimize  \
	dirUpdateScheme      PolakRibiere \
	linminMethod         DirUpdateRecommended \
	nIterations          100 \
	history              15 \
	knormThreshold       0 \
	energyDiffThreshold  0 \
	nEnergyDiff          2 \
	alphaTstart          1 \
	alphaTmin            1e-10 \
	updateTestStepSize   yes \
	alphaTreduceFactor   0.1 \
	alphaTincreaseFactor 3 \
	nAlphaAdjustMax      3 \
	wolfeEnergy          0.0001 \
	wolfeGradient        0.9 \
	fdTest               no
fluid-solvent H2O 55.338 ScalarEOS \
	epsBulk 78.4 \
	pMol 0.92466 \
	epsInf 1.77 \
	Pvap 1.06736e-10 \
	sigmaBulk 4.62e-05 \
	Rvdw 2.61727 \
	Res 1.42 \
	tauNuc 343133 \
	poleEl 15 7 1
forces-output-coords Positions
ion K   0.000000000000000   0.000000000000000   0.000000000000000 0
ion-species SG15/$ID_ONCV_PBE.upf
ion-width 0
ionic-minimize  \
	dirUpdateScheme      L-BFGS \
	linminMethod         DirUpdateRecommended \
	nIterations          0 \
	history              15 \
	knormThreshold       0.0001 \
	energyDiffThreshold  1e-06 \
	nEnergyDiff          2 \
	alphaTstart          1 \
	alphaTmin            1e-10 \
	updateTestStepSize   yes \
	alphaTreduceFactor   0.1 \
	alphaTincreaseFactor 3 \
	nAlphaAdjustMax      3 \
	wolfeEnergy          0.0001 \
	wolfeGradient        0.9 \
	fdTest               no
kpoint   0.000000000000   0.000000000000   0.000000000000  1.00000000000000
kpoint-folding 12 12 1 
latt-move-scale 1 1 1
latt-scale 4 4 1 
lattice  \
	   4.727486978767153   -2.363743489383575    0.000000000000000  \
	  -0.000000000000000    4.094123819672498    0.000000000000000  \
	   0.000000000000000    0.000000000000000   40.000000000000000 
lattice-minimize  \
	dirUpdateScheme      L-BFGS \
	linminMethod         DirUpdateRecommended \
	nIterations          0 \
	history              15 \
	knormThreshold       0 \
	energyDiffThreshold  1e-06 \
	nEnergyDiff          2 \
	alphaTstart          1 \
	alphaTmin            1e-10 \
	updateTestStepSize   yes \
	alphaTreduceFactor   0.1 \
	alphaTincreaseFactor 3 \
	nAlphaAdjustMax      3 \
	wolfeEnergy          0.0001 \
	wolfeGradient        0.9 \
	fdTest               no
lcao-params -1 1e-06 1e-05
pcm-variant GLSSA13
spintype z-spin
subspace-rotation-factor 1 yes
symmetries automatic
symmetry-threshold 0.0001



---------- Setting up symmetries ----------

Found 24 point-group symmetries of the bravais lattice
Found 24 space-group symmetries with basis
Applied RMS atom displacement 0 bohrs to make symmetries exact.

---------- Initializing the Grid ----------
R = 
[      18.9099     -9.45497            0  ]
[            0      16.3765            0  ]
[            0            0           40  ]
unit cell volume = 12387.1
G =
[   0.332269   0.191835         -0  ]
[          0   0.383671         -0  ]
[         -0         -0    0.15708  ]
Minimum fftbox size, Smin = [  80  80  164  ]
Chosen fftbox size, S = [  80  80  168  ]

---------- Exchange Correlation functional ----------
Initalized PBE GGA exchange.
Initalized PBE GGA correlation.

---------- Setting up pseudopotentials ----------
Width of ionic core gaussian charges (only for fluid interactions / plotting) set to 0

Reading pseudopotential file '/home/gridsan/aligho/DFT/build-Nov24/pseudopotentials/SG15/K_ONCV_PBE.upf':
  'K' pseudopotential, 'PBE' functional
  Generated using ONCVPSP code by D. R. Hamann
  Author: Martin Schlipf and Francois Gygi  Date: 150915.
  9 valence electrons, 3 orbitals, 6 projectors, 2222 radial grid points, with lMax = 2
  Transforming local potential to a uniform radial grid of dG=0.02 with 1489 points.
  Transforming nonlocal projectors to a uniform radial grid of dG=0.02 with 432 points.
    3S    l: 0   occupation:  2.0   eigenvalue: -1.298836
    3P    l: 1   occupation:  6.0   eigenvalue: -0.691386
    4S    l: 0   occupation:  1.0   eigenvalue: -0.085223
  Transforming atomic orbitals to a uniform radial grid of dG=0.02 with 432 points.
  Core radius for overlap checks: 2.06 bohrs.
  Reading pulay file /home/gridsan/aligho/DFT/build-Nov24/pseudopotentials/SG15/K_ONCV_PBE.pulay ... using dE_dnG = -1.597219e-05 computed for Ecut = 20.

Initialized 1 species with 1 total atoms.

Folded 1 k-points by 12x12x1 to 144 k-points.

---------- Setting up k-points, bands, fillings ----------
Reduced to 19 k-points under symmetry. 
Computing the number of bands and number of electrons
Calculating initial fillings.
nElectrons:   9.000000   nBands: 6   nStates: 38

----- Setting up reduced wavefunction bases (one per k-point) -----
average nbasis = 52924.021 , ideal nbasis = 52918.836

---------- Setting up coulomb interaction ----------
Initialized slab truncation along lattice direction 001

---------- Setting up 2D ewald sum ----------
Optimum gaussian width for ewald sums = 10.498040 bohr.
Real space sums over 289 unit cells with max indices [  8  8  0  ]
Reciprocal space sums over 81 terms with max indices [  4  4  0  ]

---------- Allocating electronic variables ----------
Initializing wave functions:  linear combination of atomic orbitals
Note: number of bands (6) exceeds available atomic orbitals (5)
K pseudo-atom occupations:   s ( 2 1 )  p ( 6 )
	FillingsUpdate:  mu: -0.085681924  nElectrons: 9.000000  magneticMoment: [ Abs: 0.42000  Tot: -0.42000 ]
LCAOMinimize: Iter:   0  F: -28.3780650215180721  |grad|_K:  3.320e-06  alpha:  1.000e+00
	FillingsUpdate:  mu: -0.085681215  nElectrons: 9.000000  magneticMoment: [ Abs: 0.42000  Tot: -0.42000 ]
LCAOMinimize: Iter:   1  F: -28.3780650289793357  |grad|_K:  1.503e-08  alpha:  9.896e-01  linmin: -2.189e-03  cgtest:  2.210e-01  t[s]:     14.82
LCAOMinimize: Encountered beta<0, resetting CG.
LCAOMinimize: 	Wrong curvature in test step, increasing alphaT to 2.968712e+00.
	FillingsUpdate:  mu: -0.085681214  nElectrons: 9.000000  magneticMoment: [ Abs: 0.42000  Tot: -0.42000 ]
LCAOMinimize: Iter:   2  F: -28.3780650289797656  |grad|_K:  1.593e-10  alpha: -1.218e+00  linmin: -7.894e-03  cgtest:  9.750e-01  t[s]:     18.72
LCAOMinimize: Encountered beta<0, resetting CG.
LCAOMinimize: Converged (|Delta F|<1.000000e-06 for 2 iters).


---- Citations for features of the code used in this run ----

   Software package:
      R. Sundararaman, K. Letchworth-Weaver, K.A. Schwarz, D. Gunceler, Y. Ozhabes and T.A. Arias, 'JDFTx: software for joint density-functional theory', SoftwareX 6, 278 (2017)

   gga-PBE exchange-correlation functional:
      J.P. Perdew, K. Burke and M. Ernzerhof, Phys. Rev. Lett. 77, 3865 (1996)

   Pseudopotentials:
      M Schlipf and F Gygi, Comput. Phys. Commun. 196, 36 (2015)

   Truncated Coulomb potentials:
      R. Sundararaman and T.A. Arias, Phys. Rev. B 87, 165122 (2013)

This list may not be complete. Please suggest additional citations or
report any other bugs at https://github.com/shankar1729/jdftx/issues

Initialization completed successfully at t[s]:     18.97


-------- Electronic minimization -----------
Will mix electronic density at each iteration.
	FillingsUpdate:  mu: -0.085681214  nElectrons: 9.000000  magneticMoment: [ Abs: 0.42000  Tot: -0.42000 ]
	FillingsUpdate:  mu: -0.085762340  nElectrons: 9.000000  magneticMoment: [ Abs: 0.42000  Tot: -0.42000 ]
SCF: Cycle:  0   F: -28.378145097908956   dF: -8.007e-05   |Residual|: 9.654e-04   |deigs|: 1.744e-01  t[s]:     26.96
	FillingsUpdate:  mu: -0.085778452  nElectrons: 9.000000  magneticMoment: [ Abs: 0.42065  Tot: -0.42000 ]
SCF: Cycle:  1   F: -28.378146044281252   dF: -9.464e-07   |Residual|: 3.267e-04   |deigs|: 6.069e-03  t[s]:     33.27
	FillingsUpdate:  mu: -0.085792332  nElectrons: 9.000000  magneticMoment: [ Abs: 0.42076  Tot: -0.42000 ]
SCF: Cycle:  2   F: -28.378146263640328   dF: -2.194e-07   |Residual|: 2.203e-04   |deigs|: 1.882e-03  t[s]:     39.62
	FillingsUpdate:  mu: -0.085812004  nElectrons: 9.000000  magneticMoment: [ Abs: 0.42094  Tot: -0.42000 ]
SCF: Cycle:  3   F: -28.378146419975803   dF: -1.563e-07   |Residual|: 1.690e-04   |deigs|: 6.240e-04  t[s]:     46.17
	FillingsUpdate:  mu: -0.085836478  nElectrons: 9.000000  magneticMoment: [ Abs: 0.42090  Tot: -0.42000 ]
SCF: Cycle:  4   F: -28.378146642135601   dF: -2.222e-07   |Residual|: 1.211e-04   |deigs|: 5.702e-04  t[s]:     52.80
	FillingsUpdate:  mu: -0.085868218  nElectrons: 9.000000  magneticMoment: [ Abs: 0.42102  Tot: -0.42000 ]
SCF: Cycle:  5   F: -28.378146807025150   dF: -1.649e-07   |Residual|: 7.830e-05   |deigs|: 4.702e-04  t[s]:     59.60
	FillingsUpdate:  mu: -0.085869876  nElectrons: 9.000000  magneticMoment: [ Abs: 0.42099  Tot: -0.42000 ]
SCF: Cycle:  6   F: -28.378146908834577   dF: -1.018e-07   |Residual|: 5.205e-05   |deigs|: 4.697e-04  t[s]:     66.45
	FillingsUpdate:  mu: -0.085869198  nElectrons: 9.000000  magneticMoment: [ Abs: 0.42098  Tot: -0.42000 ]
SCF: Cycle:  7   F: -28.378146968972974   dF: -6.014e-08   |Residual|: 3.751e-05   |deigs|: 3.751e-04  t[s]:     73.38
	FillingsUpdate:  mu: -0.085858291  nElectrons: 9.000000  magneticMoment: [ Abs: 0.42096  Tot: -0.42000 ]
SCF: Cycle:  8   F: -28.378147003692824   dF: -3.472e-08   |Residual|: 3.011e-05   |deigs|: 1.833e-04  t[s]:     80.41
	FillingsUpdate:  mu: -0.085836623  nElectrons: 9.000000  magneticMoment: [ Abs: 0.42092  Tot: -0.42000 ]
SCF: Cycle:  9   F: -28.378147029058240   dF: -2.537e-08   |Residual|: 2.254e-05   |deigs|: 1.428e-04  t[s]:     87.57
	FillingsUpdate:  mu: -0.085821659  nElectrons: 9.000000  magneticMoment: [ Abs: 0.42091  Tot: -0.42000 ]
SCF: Cycle: 10   F: -28.378147031088812   dF: -2.031e-09   |Residual|: 2.091e-05   |deigs|: 1.214e-04  t[s]:     94.89
	FillingsUpdate:  mu: -0.085802960  nElectrons: 9.000000  magneticMoment: [ Abs: 0.42099  Tot: -0.42000 ]
SCF: Cycle: 11   F: -28.378147001388669   dF: +2.970e-08   |Residual|: 1.946e-05   |deigs|: 9.349e-05  t[s]:    102.16
	FillingsUpdate:  mu: -0.085779426  nElectrons: 9.000000  magneticMoment: [ Abs: 0.42109  Tot: -0.42000 ]
SCF: Cycle: 12   F: -28.378146932000696   dF: +6.939e-08   |Residual|: 1.722e-05   |deigs|: 8.526e-05  t[s]:    109.38
	FillingsUpdate:  mu: -0.085758075  nElectrons: 9.000000  magneticMoment: [ Abs: 0.42102  Tot: -0.42000 ]
SCF: Cycle: 13   F: -28.378146964059074   dF: -3.206e-08   |Residual|: 1.593e-05   |deigs|: 8.352e-05  t[s]:    116.51
	FillingsUpdate:  mu: -0.085742023  nElectrons: 9.000000  magneticMoment: [ Abs: 0.42101  Tot: -0.42000 ]
SCF: Cycle: 14   F: -28.378146946676868   dF: +1.738e-08   |Residual|: 1.447e-05   |deigs|: 7.796e-05  t[s]:    123.64
	FillingsUpdate:  mu: -0.085726862  nElectrons: 9.000000  magneticMoment: [ Abs: 0.42102  Tot: -0.42000 ]
SCF: Cycle: 15   F: -28.378147014754809   dF: -6.808e-08   |Residual|: 1.261e-05   |deigs|: 8.058e-05  t[s]:    130.97
	FillingsUpdate:  mu: -0.085709063  nElectrons: 9.000000  magneticMoment: [ Abs: 0.42099  Tot: -0.42000 ]
SCF: Cycle: 16   F: -28.378146985016198   dF: +2.974e-08   |Residual|: 1.242e-05   |deigs|: 8.585e-05  t[s]:    137.71
	FillingsUpdate:  mu: -0.085697068  nElectrons: 9.000000  magneticMoment: [ Abs: 0.42095  Tot: -0.42000 ]
SCF: Cycle: 17   F: -28.378146956357632   dF: +2.866e-08   |Residual|: 1.072e-05   |deigs|: 7.732e-05  t[s]:    144.59
	FillingsUpdate:  mu: -0.085688940  nElectrons: 9.000000  magneticMoment: [ Abs: 0.42094  Tot: -0.42000 ]
SCF: Cycle: 18   F: -28.378147060461771   dF: -1.041e-07   |Residual|: 7.716e-06   |deigs|: 5.918e-05  t[s]:    151.69
	FillingsUpdate:  mu: -0.085682210  nElectrons: 9.000000  magneticMoment: [ Abs: 0.42090  Tot: -0.42000 ]
SCF: Cycle: 19   F: -28.378147053541930   dF: +6.920e-09   |Residual|: 5.695e-06   |deigs|: 3.619e-05  t[s]:    158.27
	FillingsUpdate:  mu: -0.085678531  nElectrons: 9.000000  magneticMoment: [ Abs: 0.42092  Tot: -0.42000 ]
SCF: Cycle: 20   F: -28.378147078655623   dF: -2.511e-08   |Residual|: 3.746e-06   |deigs|: 2.071e-05  t[s]:    165.52
	FillingsUpdate:  mu: -0.085678297  nElectrons: 9.000000  magneticMoment: [ Abs: 0.42092  Tot: -0.42000 ]
SCF: Cycle: 21   F: -28.378147081490397   dF: -2.835e-09   |Residual|: 2.812e-06   |deigs|: 1.094e-05  t[s]:    171.97
	FillingsUpdate:  mu: -0.085678251  nElectrons: 9.000000  magneticMoment: [ Abs: 0.42091  Tot: -0.42000 ]
SCF: Cycle: 22   F: -28.378147082907141   dF: -1.417e-09   |Residual|: 2.038e-06   |deigs|: 5.901e-06  t[s]:    178.95
SCF: Converged (|Delta E|<1.000000e-08 for 2 iters).


# Ionic positions in lattice coordinates:
ion K   0.000000000000000   0.000000000000000   0.000000000000000 0

# Forces in Lattice coordinates:
force K  -0.000000000000000  -0.000000000000000   0.000000000000000 0

# Energy components:
   Eewald =       -9.0240130501663280
       EH =       13.7636631484031415
     Eloc =      -35.9731255584540079
      Enl =       -2.7672107341615169
   Epulay =        0.0000000066859396
      Exc =       -4.2402823244884313
       KE =        9.8628229280300310
-------------------------------------
     Etot =      -28.3781455841511736
       TS =        0.0000014987559659
-------------------------------------
        F =      -28.3781470829071409

IonicMinimize: Iter:   0  F: -28.378147082907141  |grad|_K:  0.000e+00  t[s]:    179.35
IonicMinimize: Converged (|grad|_K<1.000000e-04).

#--- Lowdin population analysis ---
# oxidation-state K +0.001
# magnetic-moments K -0.420

End date and time: Sat Feb  5 23:42:33 2022  (Duration: 0-0:02:59.41)
Done!
