
*************** JDFTx 1.6.0 (git hash 42ebbcc2) ***************

Start date and time: Sat Feb  5 23:39:42 2022
Executable jdftx with command-line: -i Alkali.in
Running on hosts (process indices):  d-4-2-2 (0-18)
Divided in process groups (process indices):  0 (0)  1 (1)  2 (2)  3 (3)  4 (4)  5 (5)  6 (6)  7 (7)  8 (8)  9 (9)  10 (10)  11 (11)  12 (12)  13 (13)  14 (14)  15 (15)  16 (16)  17 (17)  18 (18)
Resource initialization completed at t[s]:      0.00
Run totals: 19 processes, 48 threads, 0 GPUs


Input parsed successfully to the following command list (including defaults):

basis kpoint-dependent
coords-type Lattice
core-overlap-check vector
coulomb-interaction Slab 001
davidson-band-ratio 1.1
dump End None
dump-name $INPUT.$VAR
elec-cutoff 20
elec-eigen-algo Davidson
elec-ex-corr gga-PBE
elec-initial-magnetization -0.500000 yes
elec-smearing Fermi 1e-05
electronic-minimize  \
	dirUpdateScheme      FletcherReeves \
	linminMethod         DirUpdateRecommended \
	nIterations          100 \
	history              15 \
	knormThreshold       0 \
	energyDiffThreshold  1e-08 \
	nEnergyDiff          2 \
	alphaTstart          1 \
	alphaTmin            1e-10 \
	updateTestStepSize   yes \
	alphaTreduceFactor   0.1 \
	alphaTincreaseFactor 3 \
	nAlphaAdjustMax      3 \
	wolfeEnergy          0.0001 \
	wolfeGradient        0.9 \
	fdTest               no
electronic-scf  \
	nIterations	10000 \
	energyDiffThreshold	1e-08 \
	residualThreshold	1e-07 \
	mixFraction	0.5 \
	qMetric	0.8 \
	history	10 \
	nEigSteps	2 \
	eigDiffThreshold	1e-08 \
	mixedVariable	Density \
	qKerker	0.8 \
	qKappa	-1 \
	verbose	no \
	mixFractionMag	1.5
exchange-regularization WignerSeitzTruncated
fluid None
fluid-ex-corr (null) lda-PZ
fluid-gummel-loop 10 1.000000e-05
fluid-minimize  \
	dirUpdateScheme      PolakRibiere \
	linminMethod         DirUpdateRecommended \
	nIterations          100 \
	history              15 \
	knormThreshold       0 \
	energyDiffThreshold  0 \
	nEnergyDiff          2 \
	alphaTstart          1 \
	alphaTmin            1e-10 \
	updateTestStepSize   yes \
	alphaTreduceFactor   0.1 \
	alphaTincreaseFactor 3 \
	nAlphaAdjustMax      3 \
	wolfeEnergy          0.0001 \
	wolfeGradient        0.9 \
	fdTest               no
fluid-solvent H2O 55.338 ScalarEOS \
	epsBulk 78.4 \
	pMol 0.92466 \
	epsInf 1.77 \
	Pvap 1.06736e-10 \
	sigmaBulk 4.62e-05 \
	Rvdw 2.61727 \
	Res 1.42 \
	tauNuc 343133 \
	poleEl 15 7 1
forces-output-coords Positions
ion K   0.000000000000000   0.000000000000000   0.000000000000000 0
ion-species SG15/$ID_ONCV_PBE.upf
ion-width 0
ionic-minimize  \
	dirUpdateScheme      L-BFGS \
	linminMethod         DirUpdateRecommended \
	nIterations          0 \
	history              15 \
	knormThreshold       0.0001 \
	energyDiffThreshold  1e-06 \
	nEnergyDiff          2 \
	alphaTstart          1 \
	alphaTmin            1e-10 \
	updateTestStepSize   yes \
	alphaTreduceFactor   0.1 \
	alphaTincreaseFactor 3 \
	nAlphaAdjustMax      3 \
	wolfeEnergy          0.0001 \
	wolfeGradient        0.9 \
	fdTest               no
kpoint   0.000000000000   0.000000000000   0.000000000000  1.00000000000000
kpoint-folding 12 12 1 
latt-move-scale 1 1 1
latt-scale 4 4 1 
lattice  \
	   4.727486978767153   -2.363743489383575    0.000000000000000  \
	  -0.000000000000000    4.094123819672498    0.000000000000000  \
	   0.000000000000000    0.000000000000000   40.000000000000000 
lattice-minimize  \
	dirUpdateScheme      L-BFGS \
	linminMethod         DirUpdateRecommended \
	nIterations          0 \
	history              15 \
	knormThreshold       0 \
	energyDiffThreshold  1e-06 \
	nEnergyDiff          2 \
	alphaTstart          1 \
	alphaTmin            1e-10 \
	updateTestStepSize   yes \
	alphaTreduceFactor   0.1 \
	alphaTincreaseFactor 3 \
	nAlphaAdjustMax      3 \
	wolfeEnergy          0.0001 \
	wolfeGradient        0.9 \
	fdTest               no
lcao-params -1 1e-06 1e-05
pcm-variant GLSSA13
spintype z-spin
subspace-rotation-factor 1 yes
symmetries automatic
symmetry-threshold 0.0001



---------- Setting up symmetries ----------

Found 24 point-group symmetries of the bravais lattice
Found 24 space-group symmetries with basis
Applied RMS atom displacement 0 bohrs to make symmetries exact.

---------- Initializing the Grid ----------
R = 
[      18.9099     -9.45497            0  ]
[            0      16.3765            0  ]
[            0            0           40  ]
unit cell volume = 12387.1
G =
[   0.332269   0.191835         -0  ]
[          0   0.383671         -0  ]
[         -0         -0    0.15708  ]
Minimum fftbox size, Smin = [  80  80  164  ]
Chosen fftbox size, S = [  80  80  168  ]

---------- Exchange Correlation functional ----------
Initalized PBE GGA exchange.
Initalized PBE GGA correlation.

---------- Setting up pseudopotentials ----------
Width of ionic core gaussian charges (only for fluid interactions / plotting) set to 0

Reading pseudopotential file '/home/gridsan/aligho/DFT/build-Nov24/pseudopotentials/SG15/K_ONCV_PBE.upf':
  'K' pseudopotential, 'PBE' functional
  Generated using ONCVPSP code by D. R. Hamann
  Author: Martin Schlipf and Francois Gygi  Date: 150915.
  9 valence electrons, 3 orbitals, 6 projectors, 2222 radial grid points, with lMax = 2
  Transforming local potential to a uniform radial grid of dG=0.02 with 1489 points.
  Transforming nonlocal projectors to a uniform radial grid of dG=0.02 with 432 points.
    3S    l: 0   occupation:  2.0   eigenvalue: -1.298836
    3P    l: 1   occupation:  6.0   eigenvalue: -0.691386
    4S    l: 0   occupation:  1.0   eigenvalue: -0.085223
  Transforming atomic orbitals to a uniform radial grid of dG=0.02 with 432 points.
  Core radius for overlap checks: 2.06 bohrs.
  Reading pulay file /home/gridsan/aligho/DFT/build-Nov24/pseudopotentials/SG15/K_ONCV_PBE.pulay ... using dE_dnG = -1.597219e-05 computed for Ecut = 20.

Initialized 1 species with 1 total atoms.

Folded 1 k-points by 12x12x1 to 144 k-points.

---------- Setting up k-points, bands, fillings ----------
Reduced to 19 k-points under symmetry. 
Computing the number of bands and number of electrons
Calculating initial fillings.
nElectrons:   9.000000   nBands: 6   nStates: 38

----- Setting up reduced wavefunction bases (one per k-point) -----
average nbasis = 52924.021 , ideal nbasis = 52918.836

---------- Setting up coulomb interaction ----------
Initialized slab truncation along lattice direction 001

---------- Setting up 2D ewald sum ----------
Optimum gaussian width for ewald sums = 10.498040 bohr.
Real space sums over 289 unit cells with max indices [  8  8  0  ]
Reciprocal space sums over 81 terms with max indices [  4  4  0  ]

---------- Allocating electronic variables ----------
Initializing wave functions:  linear combination of atomic orbitals
Note: number of bands (6) exceeds available atomic orbitals (5)
K pseudo-atom occupations:   s ( 2 1 )  p ( 6 )
	FillingsUpdate:  mu: -0.085821693  nElectrons: 9.000000  magneticMoment: [ Abs: 0.50000  Tot: -0.50000 ]
LCAOMinimize: Iter:   0  F: -28.3783733720977160  |grad|_K:  3.087e-06  alpha:  1.000e+00
	FillingsUpdate:  mu: -0.085821029  nElectrons: 9.000000  magneticMoment: [ Abs: 0.50000  Tot: -0.50000 ]
LCAOMinimize: Iter:   1  F: -28.3783733785534835  |grad|_K:  1.437e-08  alpha:  9.902e-01  linmin: -1.532e-03  cgtest:  1.658e-01  t[s]:     15.27
LCAOMinimize: Encountered beta<0, resetting CG.
LCAOMinimize: 	Step increased F by 8.171241e-14, reducing alpha to 3.709948e-02.
	FillingsUpdate:  mu: -0.085821029  nElectrons: 9.000000  magneticMoment: [ Abs: 0.50000  Tot: -0.50000 ]
LCAOMinimize: Iter:   2  F: -28.3783733785535475  |grad|_K:  1.383e-08  alpha:  3.710e-02  linmin: -8.636e-03  cgtest:  1.000e+00  t[s]:     21.75
LCAOMinimize: Encountered beta<0, resetting CG.
LCAOMinimize: Converged (|Delta F|<1.000000e-06 for 2 iters).


---- Citations for features of the code used in this run ----

   Software package:
      R. Sundararaman, K. Letchworth-Weaver, K.A. Schwarz, D. Gunceler, Y. Ozhabes and T.A. Arias, 'JDFTx: software for joint density-functional theory', SoftwareX 6, 278 (2017)

   gga-PBE exchange-correlation functional:
      J.P. Perdew, K. Burke and M. Ernzerhof, Phys. Rev. Lett. 77, 3865 (1996)

   Pseudopotentials:
      M Schlipf and F Gygi, Comput. Phys. Commun. 196, 36 (2015)

   Truncated Coulomb potentials:
      R. Sundararaman and T.A. Arias, Phys. Rev. B 87, 165122 (2013)

This list may not be complete. Please suggest additional citations or
report any other bugs at https://github.com/shankar1729/jdftx/issues

Initialization completed successfully at t[s]:     22.03


-------- Electronic minimization -----------
Will mix electronic density at each iteration.
	FillingsUpdate:  mu: -0.085821029  nElectrons: 9.000000  magneticMoment: [ Abs: 0.50000  Tot: -0.50000 ]
	FillingsUpdate:  mu: -0.085906474  nElectrons: 9.000000  magneticMoment: [ Abs: 0.50000  Tot: -0.50000 ]
SCF: Cycle:  0   F: -28.378455105883024   dF: -8.173e-05   |Residual|: 1.110e-03   |deigs|: 1.733e-01  t[s]:     30.40
	FillingsUpdate:  mu: -0.085918377  nElectrons: 9.000000  magneticMoment: [ Abs: 0.50083  Tot: -0.50000 ]
SCF: Cycle:  1   F: -28.378456140792483   dF: -1.035e-06   |Residual|: 3.185e-04   |deigs|: 7.302e-03  t[s]:     36.92
	FillingsUpdate:  mu: -0.085919935  nElectrons: 9.000000  magneticMoment: [ Abs: 0.50093  Tot: -0.50000 ]
SCF: Cycle:  2   F: -28.378456369882663   dF: -2.291e-07   |Residual|: 1.909e-04   |deigs|: 1.805e-03  t[s]:     43.57
	FillingsUpdate:  mu: -0.085927169  nElectrons: 9.000000  magneticMoment: [ Abs: 0.50112  Tot: -0.50000 ]
SCF: Cycle:  3   F: -28.378456527667890   dF: -1.578e-07   |Residual|: 1.427e-04   |deigs|: 9.632e-04  t[s]:     50.41
	FillingsUpdate:  mu: -0.085927691  nElectrons: 9.000000  magneticMoment: [ Abs: 0.50109  Tot: -0.50000 ]
SCF: Cycle:  4   F: -28.378456703338585   dF: -1.757e-07   |Residual|: 1.080e-04   |deigs|: 1.655e-04  t[s]:     57.35
	FillingsUpdate:  mu: -0.085934278  nElectrons: 9.000000  magneticMoment: [ Abs: 0.50114  Tot: -0.50000 ]
SCF: Cycle:  5   F: -28.378456843555625   dF: -1.402e-07   |Residual|: 7.362e-05   |deigs|: 4.695e-04  t[s]:     64.33
	FillingsUpdate:  mu: -0.085926340  nElectrons: 9.000000  magneticMoment: [ Abs: 0.50112  Tot: -0.50000 ]
SCF: Cycle:  6   F: -28.378456933417340   dF: -8.986e-08   |Residual|: 5.054e-05   |deigs|: 4.263e-04  t[s]:     71.46
	FillingsUpdate:  mu: -0.085918699  nElectrons: 9.000000  magneticMoment: [ Abs: 0.50112  Tot: -0.50000 ]
SCF: Cycle:  7   F: -28.378456987818414   dF: -5.440e-08   |Residual|: 3.808e-05   |deigs|: 5.553e-04  t[s]:     78.75
	FillingsUpdate:  mu: -0.085908218  nElectrons: 9.000000  magneticMoment: [ Abs: 0.50110  Tot: -0.50000 ]
SCF: Cycle:  8   F: -28.378457020097322   dF: -3.228e-08   |Residual|: 3.129e-05   |deigs|: 2.250e-04  t[s]:     86.07
	FillingsUpdate:  mu: -0.085886933  nElectrons: 9.000000  magneticMoment: [ Abs: 0.50111  Tot: -0.50000 ]
SCF: Cycle:  9   F: -28.378457046895569   dF: -2.680e-08   |Residual|: 2.364e-05   |deigs|: 9.300e-05  t[s]:     93.56
	FillingsUpdate:  mu: -0.085873334  nElectrons: 9.000000  magneticMoment: [ Abs: 0.50110  Tot: -0.50000 ]
SCF: Cycle: 10   F: -28.378457048288414   dF: -1.393e-09   |Residual|: 2.142e-05   |deigs|: 1.361e-04  t[s]:    101.08
	FillingsUpdate:  mu: -0.085856713  nElectrons: 9.000000  magneticMoment: [ Abs: 0.50115  Tot: -0.50000 ]
SCF: Cycle: 11   F: -28.378457012196648   dF: +3.609e-08   |Residual|: 2.065e-05   |deigs|: 9.596e-05  t[s]:    108.75
	FillingsUpdate:  mu: -0.085832321  nElectrons: 9.000000  magneticMoment: [ Abs: 0.50126  Tot: -0.50000 ]
SCF: Cycle: 12   F: -28.378456873288567   dF: +1.389e-07   |Residual|: 1.881e-05   |deigs|: 6.996e-05  t[s]:    116.29
	FillingsUpdate:  mu: -0.085807845  nElectrons: 9.000000  magneticMoment: [ Abs: 0.50123  Tot: -0.50000 ]
SCF: Cycle: 13   F: -28.378456962790537   dF: -8.950e-08   |Residual|: 1.778e-05   |deigs|: 6.104e-05  t[s]:    123.50
	FillingsUpdate:  mu: -0.085782564  nElectrons: 9.000000  magneticMoment: [ Abs: 0.50125  Tot: -0.50000 ]
SCF: Cycle: 14   F: -28.378457017680134   dF: -5.489e-08   |Residual|: 1.563e-05   |deigs|: 7.713e-05  t[s]:    130.66
	FillingsUpdate:  mu: -0.085762330  nElectrons: 9.000000  magneticMoment: [ Abs: 0.50124  Tot: -0.50000 ]
SCF: Cycle: 15   F: -28.378456969271358   dF: +4.841e-08   |Residual|: 1.370e-05   |deigs|: 7.498e-05  t[s]:    137.80
	FillingsUpdate:  mu: -0.085742259  nElectrons: 9.000000  magneticMoment: [ Abs: 0.50118  Tot: -0.50000 ]
SCF: Cycle: 16   F: -28.378457017246671   dF: -4.798e-08   |Residual|: 1.226e-05   |deigs|: 6.497e-05  t[s]:    145.23
	FillingsUpdate:  mu: -0.085737227  nElectrons: 9.000000  magneticMoment: [ Abs: 0.50114  Tot: -0.50000 ]
SCF: Cycle: 17   F: -28.378457029780769   dF: -1.253e-08   |Residual|: 1.019e-05   |deigs|: 4.223e-05  t[s]:    152.31
	FillingsUpdate:  mu: -0.085730447  nElectrons: 9.000000  magneticMoment: [ Abs: 0.50114  Tot: -0.50000 ]
SCF: Cycle: 18   F: -28.378457051255644   dF: -2.147e-08   |Residual|: 7.670e-06   |deigs|: 2.640e-05  t[s]:    159.90
	FillingsUpdate:  mu: -0.085723826  nElectrons: 9.000000  magneticMoment: [ Abs: 0.50110  Tot: -0.50000 ]
SCF: Cycle: 19   F: -28.378457083686062   dF: -3.243e-08   |Residual|: 5.497e-06   |deigs|: 1.397e-05  t[s]:    167.22
	FillingsUpdate:  mu: -0.085722795  nElectrons: 9.000000  magneticMoment: [ Abs: 0.50110  Tot: -0.50000 ]
SCF: Cycle: 20   F: -28.378457100374007   dF: -1.669e-08   |Residual|: 4.198e-06   |deigs|: 6.358e-06  t[s]:    174.23
	FillingsUpdate:  mu: -0.085722573  nElectrons: 9.000000  magneticMoment: [ Abs: 0.50110  Tot: -0.50000 ]
SCF: Cycle: 21   F: -28.378457099777911   dF: +5.961e-10   |Residual|: 2.997e-06   |deigs|: 3.767e-06  t[s]:    181.34
	FillingsUpdate:  mu: -0.085722126  nElectrons: 9.000000  magneticMoment: [ Abs: 0.50110  Tot: -0.50000 ]
SCF: Cycle: 22   F: -28.378457105373744   dF: -5.596e-09   |Residual|: 2.062e-06   |deigs|: 1.778e-06  t[s]:    188.87
	FillingsUpdate:  mu: -0.085721617  nElectrons: 9.000000  magneticMoment: [ Abs: 0.50110  Tot: -0.50000 ]
SCF: Cycle: 23   F: -28.378457107659642   dF: -2.286e-09   |Residual|: 1.328e-06   |deigs|: 1.124e-06  t[s]:    195.90
SCF: Converged (|Delta E|<1.000000e-08 for 2 iters).


# Ionic positions in lattice coordinates:
ion K   0.000000000000000   0.000000000000000   0.000000000000000 0

# Forces in Lattice coordinates:
force K   0.000000000000000   0.000000000000000   0.000000000000000 0

# Energy components:
   Eewald =       -9.0240130501663280
       EH =       13.7672276793151038
     Eloc =      -35.9769528374219689
      Enl =       -2.7671451790360466
   Epulay =        0.0000000066859396
      Exc =       -4.2410010213326759
       KE =        9.8634288705790176
-------------------------------------
     Etot =      -28.3784555313769680
       TS =        0.0000015762826738
-------------------------------------
        F =      -28.3784571076596421

IonicMinimize: Iter:   0  F: -28.378457107659642  |grad|_K:  0.000e+00  t[s]:    196.32
IonicMinimize: Converged (|grad|_K<1.000000e-04).

#--- Lowdin population analysis ---
# oxidation-state K +0.001
# magnetic-moments K -0.500

End date and time: Sat Feb  5 23:42:59 2022  (Duration: 0-0:03:16.39)
Done!
