
*************** JDFTx 1.6.0 (git hash 42ebbcc2) ***************

Start date and time: Sat Feb  5 23:33:05 2022
Executable jdftx with command-line: -i Alkali.in
Running on hosts (process indices):  d-16-8-3 (0-18)
Divided in process groups (process indices):  0 (0)  1 (1)  2 (2)  3 (3)  4 (4)  5 (5)  6 (6)  7 (7)  8 (8)  9 (9)  10 (10)  11 (11)  12 (12)  13 (13)  14 (14)  15 (15)  16 (16)  17 (17)  18 (18)
Resource initialization completed at t[s]:      0.00
Run totals: 19 processes, 48 threads, 0 GPUs


Input parsed successfully to the following command list (including defaults):

basis kpoint-dependent
coords-type Lattice
core-overlap-check vector
coulomb-interaction Slab 001
davidson-band-ratio 1.1
dump End None
dump-name $INPUT.$VAR
elec-cutoff 20
elec-eigen-algo Davidson
elec-ex-corr gga-PBE
elec-initial-magnetization -0.600000 yes
elec-smearing Fermi 1e-05
electronic-minimize  \
	dirUpdateScheme      FletcherReeves \
	linminMethod         DirUpdateRecommended \
	nIterations          100 \
	history              15 \
	knormThreshold       0 \
	energyDiffThreshold  1e-08 \
	nEnergyDiff          2 \
	alphaTstart          1 \
	alphaTmin            1e-10 \
	updateTestStepSize   yes \
	alphaTreduceFactor   0.1 \
	alphaTincreaseFactor 3 \
	nAlphaAdjustMax      3 \
	wolfeEnergy          0.0001 \
	wolfeGradient        0.9 \
	fdTest               no
electronic-scf  \
	nIterations	10000 \
	energyDiffThreshold	1e-08 \
	residualThreshold	1e-07 \
	mixFraction	0.5 \
	qMetric	0.8 \
	history	10 \
	nEigSteps	2 \
	eigDiffThreshold	1e-08 \
	mixedVariable	Density \
	qKerker	0.8 \
	qKappa	-1 \
	verbose	no \
	mixFractionMag	1.5
exchange-regularization WignerSeitzTruncated
fluid None
fluid-ex-corr (null) lda-PZ
fluid-gummel-loop 10 1.000000e-05
fluid-minimize  \
	dirUpdateScheme      PolakRibiere \
	linminMethod         DirUpdateRecommended \
	nIterations          100 \
	history              15 \
	knormThreshold       0 \
	energyDiffThreshold  0 \
	nEnergyDiff          2 \
	alphaTstart          1 \
	alphaTmin            1e-10 \
	updateTestStepSize   yes \
	alphaTreduceFactor   0.1 \
	alphaTincreaseFactor 3 \
	nAlphaAdjustMax      3 \
	wolfeEnergy          0.0001 \
	wolfeGradient        0.9 \
	fdTest               no
fluid-solvent H2O 55.338 ScalarEOS \
	epsBulk 78.4 \
	pMol 0.92466 \
	epsInf 1.77 \
	Pvap 1.06736e-10 \
	sigmaBulk 4.62e-05 \
	Rvdw 2.61727 \
	Res 1.42 \
	tauNuc 343133 \
	poleEl 15 7 1
forces-output-coords Positions
ion K   0.000000000000000   0.000000000000000   0.000000000000000 0
ion-species SG15/$ID_ONCV_PBE.upf
ion-width 0
ionic-minimize  \
	dirUpdateScheme      L-BFGS \
	linminMethod         DirUpdateRecommended \
	nIterations          0 \
	history              15 \
	knormThreshold       0.0001 \
	energyDiffThreshold  1e-06 \
	nEnergyDiff          2 \
	alphaTstart          1 \
	alphaTmin            1e-10 \
	updateTestStepSize   yes \
	alphaTreduceFactor   0.1 \
	alphaTincreaseFactor 3 \
	nAlphaAdjustMax      3 \
	wolfeEnergy          0.0001 \
	wolfeGradient        0.9 \
	fdTest               no
kpoint   0.000000000000   0.000000000000   0.000000000000  1.00000000000000
kpoint-folding 12 12 1 
latt-move-scale 1 1 1
latt-scale 4 4 1 
lattice  \
	   4.727486978767153   -2.363743489383575    0.000000000000000  \
	  -0.000000000000000    4.094123819672498    0.000000000000000  \
	   0.000000000000000    0.000000000000000   40.000000000000000 
lattice-minimize  \
	dirUpdateScheme      L-BFGS \
	linminMethod         DirUpdateRecommended \
	nIterations          0 \
	history              15 \
	knormThreshold       0 \
	energyDiffThreshold  1e-06 \
	nEnergyDiff          2 \
	alphaTstart          1 \
	alphaTmin            1e-10 \
	updateTestStepSize   yes \
	alphaTreduceFactor   0.1 \
	alphaTincreaseFactor 3 \
	nAlphaAdjustMax      3 \
	wolfeEnergy          0.0001 \
	wolfeGradient        0.9 \
	fdTest               no
lcao-params -1 1e-06 1e-05
pcm-variant GLSSA13
spintype z-spin
subspace-rotation-factor 1 yes
symmetries automatic
symmetry-threshold 0.0001



---------- Setting up symmetries ----------

Found 24 point-group symmetries of the bravais lattice
Found 24 space-group symmetries with basis
Applied RMS atom displacement 0 bohrs to make symmetries exact.

---------- Initializing the Grid ----------
R = 
[      18.9099     -9.45497            0  ]
[            0      16.3765            0  ]
[            0            0           40  ]
unit cell volume = 12387.1
G =
[   0.332269   0.191835         -0  ]
[          0   0.383671         -0  ]
[         -0         -0    0.15708  ]
Minimum fftbox size, Smin = [  80  80  164  ]
Chosen fftbox size, S = [  80  80  168  ]

---------- Exchange Correlation functional ----------
Initalized PBE GGA exchange.
Initalized PBE GGA correlation.

---------- Setting up pseudopotentials ----------
Width of ionic core gaussian charges (only for fluid interactions / plotting) set to 0

Reading pseudopotential file '/home/gridsan/aligho/DFT/build-Nov24/pseudopotentials/SG15/K_ONCV_PBE.upf':
  'K' pseudopotential, 'PBE' functional
  Generated using ONCVPSP code by D. R. Hamann
  Author: Martin Schlipf and Francois Gygi  Date: 150915.
  9 valence electrons, 3 orbitals, 6 projectors, 2222 radial grid points, with lMax = 2
  Transforming local potential to a uniform radial grid of dG=0.02 with 1489 points.
  Transforming nonlocal projectors to a uniform radial grid of dG=0.02 with 432 points.
    3S    l: 0   occupation:  2.0   eigenvalue: -1.298836
    3P    l: 1   occupation:  6.0   eigenvalue: -0.691386
    4S    l: 0   occupation:  1.0   eigenvalue: -0.085223
  Transforming atomic orbitals to a uniform radial grid of dG=0.02 with 432 points.
  Core radius for overlap checks: 2.06 bohrs.
  Reading pulay file /home/gridsan/aligho/DFT/build-Nov24/pseudopotentials/SG15/K_ONCV_PBE.pulay ... using dE_dnG = -1.597219e-05 computed for Ecut = 20.

Initialized 1 species with 1 total atoms.

Folded 1 k-points by 12x12x1 to 144 k-points.

---------- Setting up k-points, bands, fillings ----------
Reduced to 19 k-points under symmetry. 
Computing the number of bands and number of electrons
Calculating initial fillings.
nElectrons:   9.000000   nBands: 6   nStates: 38

----- Setting up reduced wavefunction bases (one per k-point) -----
average nbasis = 52924.021 , ideal nbasis = 52918.836

---------- Setting up coulomb interaction ----------
Initialized slab truncation along lattice direction 001

---------- Setting up 2D ewald sum ----------
Optimum gaussian width for ewald sums = 10.498040 bohr.
Real space sums over 289 unit cells with max indices [  8  8  0  ]
Reciprocal space sums over 81 terms with max indices [  4  4  0  ]

---------- Allocating electronic variables ----------
Initializing wave functions:  linear combination of atomic orbitals
Note: number of bands (6) exceeds available atomic orbitals (5)
K pseudo-atom occupations:   s ( 2 1 )  p ( 6 )
	FillingsUpdate:  mu: -0.085806077  nElectrons: 9.000000  magneticMoment: [ Abs: 0.60000  Tot: -0.60000 ]
LCAOMinimize: Iter:   0  F: -28.3788226210214205  |grad|_K:  2.692e-06  alpha:  1.000e+00
	FillingsUpdate:  mu: -0.085805497  nElectrons: 9.000000  magneticMoment: [ Abs: 0.60000  Tot: -0.60000 ]
LCAOMinimize: Iter:   1  F: -28.3788226259325924  |grad|_K:  1.312e-08  alpha:  9.909e-01  linmin: -1.734e-03  cgtest:  1.397e-01  t[s]:     14.93
LCAOMinimize: Encountered beta<0, resetting CG.
LCAOMinimize: 	Wrong curvature in test step, increasing alphaT to 2.972627e+00.
	FillingsUpdate:  mu: -0.085805497  nElectrons: 9.000000  magneticMoment: [ Abs: 0.60000  Tot: -0.60000 ]
LCAOMinimize: Iter:   2  F: -28.3788226259328624  |grad|_K:  1.170e-10  alpha: -3.253e+00  linmin: -1.284e-02  cgtest:  9.044e-01  t[s]:     18.80
LCAOMinimize: Encountered beta<0, resetting CG.
LCAOMinimize: Converged (|Delta F|<1.000000e-06 for 2 iters).


---- Citations for features of the code used in this run ----

   Software package:
      R. Sundararaman, K. Letchworth-Weaver, K.A. Schwarz, D. Gunceler, Y. Ozhabes and T.A. Arias, 'JDFTx: software for joint density-functional theory', SoftwareX 6, 278 (2017)

   gga-PBE exchange-correlation functional:
      J.P. Perdew, K. Burke and M. Ernzerhof, Phys. Rev. Lett. 77, 3865 (1996)

   Pseudopotentials:
      M Schlipf and F Gygi, Comput. Phys. Commun. 196, 36 (2015)

   Truncated Coulomb potentials:
      R. Sundararaman and T.A. Arias, Phys. Rev. B 87, 165122 (2013)

This list may not be complete. Please suggest additional citations or
report any other bugs at https://github.com/shankar1729/jdftx/issues

Initialization completed successfully at t[s]:     19.05


-------- Electronic minimization -----------
Will mix electronic density at each iteration.
	FillingsUpdate:  mu: -0.085805497  nElectrons: 9.000000  magneticMoment: [ Abs: 0.60000  Tot: -0.60000 ]
	FillingsUpdate:  mu: -0.085900109  nElectrons: 9.000000  magneticMoment: [ Abs: 0.60000  Tot: -0.60000 ]
SCF: Cycle:  0   F: -28.378909196249598   dF: -8.657e-05   |Residual|: 1.307e-03   |deigs|: 1.713e-01  t[s]:     27.12
	FillingsUpdate:  mu: -0.085911225  nElectrons: 9.000000  magneticMoment: [ Abs: 0.60109  Tot: -0.60000 ]
SCF: Cycle:  1   F: -28.378910422625562   dF: -1.226e-06   |Residual|: 3.348e-04   |deigs|: 9.337e-03  t[s]:     33.46
	FillingsUpdate:  mu: -0.085893503  nElectrons: 9.000000  magneticMoment: [ Abs: 0.60117  Tot: -0.60000 ]
SCF: Cycle:  2   F: -28.378910707230148   dF: -2.846e-07   |Residual|: 1.861e-04   |deigs|: 1.310e-03  t[s]:     39.93
	FillingsUpdate:  mu: -0.085885855  nElectrons: 9.000000  magneticMoment: [ Abs: 0.60138  Tot: -0.60000 ]
SCF: Cycle:  3   F: -28.378910888640970   dF: -1.814e-07   |Residual|: 1.345e-04   |deigs|: 9.071e-04  t[s]:     46.50
	FillingsUpdate:  mu: -0.085860563  nElectrons: 9.000000  magneticMoment: [ Abs: 0.60135  Tot: -0.60000 ]
SCF: Cycle:  4   F: -28.378911044418800   dF: -1.558e-07   |Residual|: 1.014e-04   |deigs|: 1.721e-04  t[s]:     53.16
	FillingsUpdate:  mu: -0.085829752  nElectrons: 9.000000  magneticMoment: [ Abs: 0.60138  Tot: -0.60000 ]
SCF: Cycle:  5   F: -28.378911146614957   dF: -1.022e-07   |Residual|: 6.990e-05   |deigs|: 3.167e-04  t[s]:     59.90
	FillingsUpdate:  mu: -0.085796267  nElectrons: 9.000000  magneticMoment: [ Abs: 0.60134  Tot: -0.60000 ]
SCF: Cycle:  6   F: -28.378911204732837   dF: -5.812e-08   |Residual|: 5.202e-05   |deigs|: 4.378e-04  t[s]:     66.81
	FillingsUpdate:  mu: -0.085773928  nElectrons: 9.000000  magneticMoment: [ Abs: 0.60135  Tot: -0.60000 ]
SCF: Cycle:  7   F: -28.378911254978220   dF: -5.025e-08   |Residual|: 4.276e-05   |deigs|: 5.152e-04  t[s]:     73.81
	FillingsUpdate:  mu: -0.085759791  nElectrons: 9.000000  magneticMoment: [ Abs: 0.60135  Tot: -0.60000 ]
SCF: Cycle:  8   F: -28.378911290297768   dF: -3.532e-08   |Residual|: 3.653e-05   |deigs|: 3.847e-04  t[s]:     80.89
	FillingsUpdate:  mu: -0.085741149  nElectrons: 9.000000  magneticMoment: [ Abs: 0.60134  Tot: -0.60000 ]
SCF: Cycle:  9   F: -28.378911317096936   dF: -2.680e-08   |Residual|: 2.853e-05   |deigs|: 8.536e-05  t[s]:     88.14
	FillingsUpdate:  mu: -0.085730013  nElectrons: 9.000000  magneticMoment: [ Abs: 0.60135  Tot: -0.60000 ]
SCF: Cycle: 10   F: -28.378911321022095   dF: -3.925e-09   |Residual|: 2.414e-05   |deigs|: 3.984e-05  t[s]:     95.43
	FillingsUpdate:  mu: -0.085717463  nElectrons: 9.000000  magneticMoment: [ Abs: 0.60138  Tot: -0.60000 ]
SCF: Cycle: 11   F: -28.378911302321757   dF: +1.870e-08   |Residual|: 2.161e-05   |deigs|: 3.942e-05  t[s]:    102.77
	FillingsUpdate:  mu: -0.085697586  nElectrons: 9.000000  magneticMoment: [ Abs: 0.60146  Tot: -0.60000 ]
SCF: Cycle: 12   F: -28.378911100395886   dF: +2.019e-07   |Residual|: 1.976e-05   |deigs|: 5.976e-05  t[s]:    110.16
	FillingsUpdate:  mu: -0.085673157  nElectrons: 9.000000  magneticMoment: [ Abs: 0.60149  Tot: -0.60000 ]
SCF: Cycle: 13   F: -28.378911214268435   dF: -1.139e-07   |Residual|: 1.923e-05   |deigs|: 7.953e-05  t[s]:    117.32
	FillingsUpdate:  mu: -0.085641267  nElectrons: 9.000000  magneticMoment: [ Abs: 0.60152  Tot: -0.60000 ]
SCF: Cycle: 14   F: -28.378911174110350   dF: +4.016e-08   |Residual|: 1.856e-05   |deigs|: 7.685e-05  t[s]:    124.45
	FillingsUpdate:  mu: -0.085606281  nElectrons: 9.000000  magneticMoment: [ Abs: 0.60151  Tot: -0.60000 ]
SCF: Cycle: 15   F: -28.378911215996816   dF: -4.189e-08   |Residual|: 1.594e-05   |deigs|: 6.925e-05  t[s]:    131.78
	FillingsUpdate:  mu: -0.085579871  nElectrons: 9.000000  magneticMoment: [ Abs: 0.60143  Tot: -0.60000 ]
SCF: Cycle: 16   F: -28.378911294847526   dF: -7.885e-08   |Residual|: 1.329e-05   |deigs|: 4.865e-05  t[s]:    139.10
	FillingsUpdate:  mu: -0.085575791  nElectrons: 9.000000  magneticMoment: [ Abs: 0.60140  Tot: -0.60000 ]
SCF: Cycle: 17   F: -28.378911290617502   dF: +4.230e-09   |Residual|: 1.041e-05   |deigs|: 2.460e-05  t[s]:    146.37
	FillingsUpdate:  mu: -0.085570312  nElectrons: 9.000000  magneticMoment: [ Abs: 0.60140  Tot: -0.60000 ]
SCF: Cycle: 18   F: -28.378911340099126   dF: -4.948e-08   |Residual|: 6.672e-06   |deigs|: 1.920e-05  t[s]:    153.69
	FillingsUpdate:  mu: -0.085566424  nElectrons: 9.000000  magneticMoment: [ Abs: 0.60136  Tot: -0.60000 ]
SCF: Cycle: 19   F: -28.378911352479168   dF: -1.238e-08   |Residual|: 4.865e-06   |deigs|: 8.285e-06  t[s]:    160.36
	FillingsUpdate:  mu: -0.085565739  nElectrons: 9.000000  magneticMoment: [ Abs: 0.60136  Tot: -0.60000 ]
SCF: Cycle: 20   F: -28.378911384170365   dF: -3.169e-08   |Residual|: 3.606e-06   |deigs|: 3.848e-06  t[s]:    167.46
	FillingsUpdate:  mu: -0.085566783  nElectrons: 9.000000  magneticMoment: [ Abs: 0.60136  Tot: -0.60000 ]
SCF: Cycle: 21   F: -28.378911384016110   dF: +1.543e-10   |Residual|: 2.933e-06   |deigs|: 3.449e-06  t[s]:    174.08
	FillingsUpdate:  mu: -0.085566557  nElectrons: 9.000000  magneticMoment: [ Abs: 0.60136  Tot: -0.60000 ]
SCF: Cycle: 22   F: -28.378911381214770   dF: +2.801e-09   |Residual|: 2.365e-06   |deigs|: 2.173e-06  t[s]:    181.34
	FillingsUpdate:  mu: -0.085566422  nElectrons: 9.000000  magneticMoment: [ Abs: 0.60136  Tot: -0.60000 ]
SCF: Cycle: 23   F: -28.378911387555014   dF: -6.340e-09   |Residual|: 1.595e-06   |deigs|: 2.242e-06  t[s]:    188.19
	FillingsUpdate:  mu: -0.085566282  nElectrons: 9.000000  magneticMoment: [ Abs: 0.60135  Tot: -0.60000 ]
SCF: Cycle: 24   F: -28.378911386948730   dF: +6.063e-10   |Residual|: 1.290e-06   |deigs|: 2.976e-06  t[s]:    194.85
	FillingsUpdate:  mu: -0.085566083  nElectrons: 9.000000  magneticMoment: [ Abs: 0.60135  Tot: -0.60000 ]
SCF: Cycle: 25   F: -28.378911387469458   dF: -5.207e-10   |Residual|: 9.459e-07   |deigs|: 3.917e-06  t[s]:    201.63
	FillingsUpdate:  mu: -0.085567214  nElectrons: 9.000000  magneticMoment: [ Abs: 0.60135  Tot: -0.60000 ]
SCF: Cycle: 26   F: -28.378911388417521   dF: -9.481e-10   |Residual|: 3.904e-07   |deigs|: 5.488e-06  t[s]:    208.42
SCF: Converged (|Delta E|<1.000000e-08 for 2 iters).


# Ionic positions in lattice coordinates:
ion K   0.000000000000000   0.000000000000000   0.000000000000000 0

# Forces in Lattice coordinates:
force K  -0.000000000000000   0.000000000000000   0.000000000000000 0

# Energy components:
   Eewald =       -9.0240130501663280
       EH =       13.7725256025905232
     Eloc =      -35.9826423003672744
      Enl =       -2.7670444210452021
   Epulay =        0.0000000066859396
      Exc =       -4.2420759258694174
       KE =        9.8643402837670990
-------------------------------------
     Etot =      -28.3789098044046568
       TS =        0.0000015840128628
-------------------------------------
        F =      -28.3789113884175208

IonicMinimize: Iter:   0  F: -28.378911388417521  |grad|_K:  0.000e+00  t[s]:    208.83
IonicMinimize: Converged (|grad|_K<1.000000e-04).

#--- Lowdin population analysis ---
# oxidation-state K +0.001
# magnetic-moments K -0.600

End date and time: Sat Feb  5 23:36:34 2022  (Duration: 0-0:03:28.89)
Done!
