
*************** JDFTx 1.6.0 (git hash 42ebbcc2) ***************

Start date and time: Sat Feb  5 23:45:23 2022
Executable jdftx with command-line: -i Alkali.in
Running on hosts (process indices):  d-16-1-2 (0-18)
Divided in process groups (process indices):  0 (0)  1 (1)  2 (2)  3 (3)  4 (4)  5 (5)  6 (6)  7 (7)  8 (8)  9 (9)  10 (10)  11 (11)  12 (12)  13 (13)  14 (14)  15 (15)  16 (16)  17 (17)  18 (18)
Resource initialization completed at t[s]:      0.00
Run totals: 19 processes, 48 threads, 0 GPUs


Input parsed successfully to the following command list (including defaults):

basis kpoint-dependent
coords-type Lattice
core-overlap-check vector
coulomb-interaction Slab 001
davidson-band-ratio 1.1
dump End None
dump-name $INPUT.$VAR
elec-cutoff 20
elec-eigen-algo Davidson
elec-ex-corr gga-PBE
elec-initial-magnetization 0.040000 yes
elec-smearing Fermi 1e-05
electronic-minimize  \
	dirUpdateScheme      FletcherReeves \
	linminMethod         DirUpdateRecommended \
	nIterations          100 \
	history              15 \
	knormThreshold       0 \
	energyDiffThreshold  1e-08 \
	nEnergyDiff          2 \
	alphaTstart          1 \
	alphaTmin            1e-10 \
	updateTestStepSize   yes \
	alphaTreduceFactor   0.1 \
	alphaTincreaseFactor 3 \
	nAlphaAdjustMax      3 \
	wolfeEnergy          0.0001 \
	wolfeGradient        0.9 \
	fdTest               no
electronic-scf  \
	nIterations	10000 \
	energyDiffThreshold	1e-08 \
	residualThreshold	1e-07 \
	mixFraction	0.5 \
	qMetric	0.8 \
	history	10 \
	nEigSteps	2 \
	eigDiffThreshold	1e-08 \
	mixedVariable	Density \
	qKerker	0.8 \
	qKappa	-1 \
	verbose	no \
	mixFractionMag	1.5
exchange-regularization WignerSeitzTruncated
fluid None
fluid-ex-corr (null) lda-PZ
fluid-gummel-loop 10 1.000000e-05
fluid-minimize  \
	dirUpdateScheme      PolakRibiere \
	linminMethod         DirUpdateRecommended \
	nIterations          100 \
	history              15 \
	knormThreshold       0 \
	energyDiffThreshold  0 \
	nEnergyDiff          2 \
	alphaTstart          1 \
	alphaTmin            1e-10 \
	updateTestStepSize   yes \
	alphaTreduceFactor   0.1 \
	alphaTincreaseFactor 3 \
	nAlphaAdjustMax      3 \
	wolfeEnergy          0.0001 \
	wolfeGradient        0.9 \
	fdTest               no
fluid-solvent H2O 55.338 ScalarEOS \
	epsBulk 78.4 \
	pMol 0.92466 \
	epsInf 1.77 \
	Pvap 1.06736e-10 \
	sigmaBulk 4.62e-05 \
	Rvdw 2.61727 \
	Res 1.42 \
	tauNuc 343133 \
	poleEl 15 7 1
forces-output-coords Positions
ion K   0.000000000000000   0.000000000000000   0.000000000000000 0
ion-species SG15/$ID_ONCV_PBE.upf
ion-width 0
ionic-minimize  \
	dirUpdateScheme      L-BFGS \
	linminMethod         DirUpdateRecommended \
	nIterations          0 \
	history              15 \
	knormThreshold       0.0001 \
	energyDiffThreshold  1e-06 \
	nEnergyDiff          2 \
	alphaTstart          1 \
	alphaTmin            1e-10 \
	updateTestStepSize   yes \
	alphaTreduceFactor   0.1 \
	alphaTincreaseFactor 3 \
	nAlphaAdjustMax      3 \
	wolfeEnergy          0.0001 \
	wolfeGradient        0.9 \
	fdTest               no
kpoint   0.000000000000   0.000000000000   0.000000000000  1.00000000000000
kpoint-folding 12 12 1 
latt-move-scale 1 1 1
latt-scale 4 4 1 
lattice  \
	   4.727486978767153   -2.363743489383575    0.000000000000000  \
	  -0.000000000000000    4.094123819672498    0.000000000000000  \
	   0.000000000000000    0.000000000000000   40.000000000000000 
lattice-minimize  \
	dirUpdateScheme      L-BFGS \
	linminMethod         DirUpdateRecommended \
	nIterations          0 \
	history              15 \
	knormThreshold       0 \
	energyDiffThreshold  1e-06 \
	nEnergyDiff          2 \
	alphaTstart          1 \
	alphaTmin            1e-10 \
	updateTestStepSize   yes \
	alphaTreduceFactor   0.1 \
	alphaTincreaseFactor 3 \
	nAlphaAdjustMax      3 \
	wolfeEnergy          0.0001 \
	wolfeGradient        0.9 \
	fdTest               no
lcao-params -1 1e-06 1e-05
pcm-variant GLSSA13
spintype z-spin
subspace-rotation-factor 1 yes
symmetries automatic
symmetry-threshold 0.0001



---------- Setting up symmetries ----------

Found 24 point-group symmetries of the bravais lattice
Found 24 space-group symmetries with basis
Applied RMS atom displacement 0 bohrs to make symmetries exact.

---------- Initializing the Grid ----------
R = 
[      18.9099     -9.45497            0  ]
[            0      16.3765            0  ]
[            0            0           40  ]
unit cell volume = 12387.1
G =
[   0.332269   0.191835         -0  ]
[          0   0.383671         -0  ]
[         -0         -0    0.15708  ]
Minimum fftbox size, Smin = [  80  80  164  ]
Chosen fftbox size, S = [  80  80  168  ]

---------- Exchange Correlation functional ----------
Initalized PBE GGA exchange.
Initalized PBE GGA correlation.

---------- Setting up pseudopotentials ----------
Width of ionic core gaussian charges (only for fluid interactions / plotting) set to 0

Reading pseudopotential file '/home/gridsan/aligho/DFT/build-Nov24/pseudopotentials/SG15/K_ONCV_PBE.upf':
  'K' pseudopotential, 'PBE' functional
  Generated using ONCVPSP code by D. R. Hamann
  Author: Martin Schlipf and Francois Gygi  Date: 150915.
  9 valence electrons, 3 orbitals, 6 projectors, 2222 radial grid points, with lMax = 2
  Transforming local potential to a uniform radial grid of dG=0.02 with 1489 points.
  Transforming nonlocal projectors to a uniform radial grid of dG=0.02 with 432 points.
    3S    l: 0   occupation:  2.0   eigenvalue: -1.298836
    3P    l: 1   occupation:  6.0   eigenvalue: -0.691386
    4S    l: 0   occupation:  1.0   eigenvalue: -0.085223
  Transforming atomic orbitals to a uniform radial grid of dG=0.02 with 432 points.
  Core radius for overlap checks: 2.06 bohrs.
  Reading pulay file /home/gridsan/aligho/DFT/build-Nov24/pseudopotentials/SG15/K_ONCV_PBE.pulay ... using dE_dnG = -1.597219e-05 computed for Ecut = 20.

Initialized 1 species with 1 total atoms.

Folded 1 k-points by 12x12x1 to 144 k-points.

---------- Setting up k-points, bands, fillings ----------
Reduced to 19 k-points under symmetry. 
Computing the number of bands and number of electrons
Calculating initial fillings.
nElectrons:   9.000000   nBands: 6   nStates: 38

----- Setting up reduced wavefunction bases (one per k-point) -----
average nbasis = 52924.021 , ideal nbasis = 52918.836

---------- Setting up coulomb interaction ----------
Initialized slab truncation along lattice direction 001

---------- Setting up 2D ewald sum ----------
Optimum gaussian width for ewald sums = 10.498040 bohr.
Real space sums over 289 unit cells with max indices [  8  8  0  ]
Reciprocal space sums over 81 terms with max indices [  4  4  0  ]

---------- Allocating electronic variables ----------
Initializing wave functions:  linear combination of atomic orbitals
Note: number of bands (6) exceeds available atomic orbitals (5)
K pseudo-atom occupations:   s ( 2 1 )  p ( 6 )
	FillingsUpdate:  mu: -0.085766404  nElectrons: 9.000000  magneticMoment: [ Abs: 0.04000  Tot: +0.04000 ]
LCAOMinimize: Iter:   0  F: -28.3773388886489677  |grad|_K:  3.909e-06  alpha:  1.000e+00
	FillingsUpdate:  mu: -0.085765608  nElectrons: 9.000000  magneticMoment: [ Abs: 0.04000  Tot: +0.04000 ]
LCAOMinimize: Iter:   1  F: -28.3773388989801063  |grad|_K:  1.637e-08  alpha:  9.886e-01  linmin: -6.887e-03  cgtest:  2.971e-01  t[s]:     15.00
LCAOMinimize: Encountered beta<0, resetting CG.
	FillingsUpdate:  mu: -0.085765607  nElectrons: 9.000000  magneticMoment: [ Abs: 0.04000  Tot: +0.04000 ]
LCAOMinimize: Iter:   2  F: -28.3773388989803053  |grad|_K:  2.139e-09  alpha:  8.696e-01  linmin: -1.442e-02  cgtest:  1.000e+00  t[s]:     19.00
LCAOMinimize: Encountered beta<0, resetting CG.
LCAOMinimize: Converged (|Delta F|<1.000000e-06 for 2 iters).


---- Citations for features of the code used in this run ----

   Software package:
      R. Sundararaman, K. Letchworth-Weaver, K.A. Schwarz, D. Gunceler, Y. Ozhabes and T.A. Arias, 'JDFTx: software for joint density-functional theory', SoftwareX 6, 278 (2017)

   gga-PBE exchange-correlation functional:
      J.P. Perdew, K. Burke and M. Ernzerhof, Phys. Rev. Lett. 77, 3865 (1996)

   Pseudopotentials:
      M Schlipf and F Gygi, Comput. Phys. Commun. 196, 36 (2015)

   Truncated Coulomb potentials:
      R. Sundararaman and T.A. Arias, Phys. Rev. B 87, 165122 (2013)

This list may not be complete. Please suggest additional citations or
report any other bugs at https://github.com/shankar1729/jdftx/issues

Initialization completed successfully at t[s]:     19.25


-------- Electronic minimization -----------
Will mix electronic density at each iteration.
	FillingsUpdate:  mu: -0.085765607  nElectrons: 9.000000  magneticMoment: [ Abs: 0.04000  Tot: +0.04000 ]
	FillingsUpdate:  mu: -0.085835865  nElectrons: 9.000000  magneticMoment: [ Abs: 0.04000  Tot: +0.04000 ]
SCF: Cycle:  0   F: -28.377421235110582   dF: -8.234e-05   |Residual|: 5.243e-04   |deigs|: 1.764e-01  t[s]:     27.36
	FillingsUpdate:  mu: -0.085875578  nElectrons: 9.000000  magneticMoment: [ Abs: 0.04005  Tot: +0.04000 ]
SCF: Cycle:  1   F: -28.377421934659267   dF: -6.995e-07   |Residual|: 4.123e-04   |deigs|: 4.360e-03  t[s]:     33.71
	FillingsUpdate:  mu: -0.085975881  nElectrons: 9.000000  magneticMoment: [ Abs: 0.04013  Tot: +0.04000 ]
SCF: Cycle:  2   F: -28.377422318323550   dF: -3.837e-07   |Residual|: 2.863e-04   |deigs|: 1.547e-03  t[s]:     40.15
	FillingsUpdate:  mu: -0.086063191  nElectrons: 9.000000  magneticMoment: [ Abs: 0.04011  Tot: +0.04000 ]
SCF: Cycle:  3   F: -28.377422692967382   dF: -3.746e-07   |Residual|: 1.890e-04   |deigs|: 7.164e-04  t[s]:     46.80
	FillingsUpdate:  mu: -0.086153093  nElectrons: 9.000000  magneticMoment: [ Abs: 0.04012  Tot: +0.04000 ]
SCF: Cycle:  4   F: -28.377422994489908   dF: -3.015e-07   |Residual|: 1.292e-04   |deigs|: 7.472e-04  t[s]:     53.45
	FillingsUpdate:  mu: -0.086166191  nElectrons: 9.000000  magneticMoment: [ Abs: 0.04016  Tot: +0.04000 ]
SCF: Cycle:  5   F: -28.377423172286196   dF: -1.778e-07   |Residual|: 9.131e-05   |deigs|: 5.337e-04  t[s]:     60.33
	FillingsUpdate:  mu: -0.086161634  nElectrons: 9.000000  magneticMoment: [ Abs: 0.04011  Tot: +0.04000 ]
SCF: Cycle:  6   F: -28.377423325097425   dF: -1.528e-07   |Residual|: 5.798e-05   |deigs|: 4.848e-04  t[s]:     67.27
	FillingsUpdate:  mu: -0.086153320  nElectrons: 9.000000  magneticMoment: [ Abs: 0.04011  Tot: +0.04000 ]
SCF: Cycle:  7   F: -28.377423377490075   dF: -5.239e-08   |Residual|: 4.023e-05   |deigs|: 3.582e-04  t[s]:     74.35
	FillingsUpdate:  mu: -0.086134993  nElectrons: 9.000000  magneticMoment: [ Abs: 0.04010  Tot: +0.04000 ]
SCF: Cycle:  8   F: -28.377423412936853   dF: -3.545e-08   |Residual|: 2.561e-05   |deigs|: 1.904e-04  t[s]:     81.49
	FillingsUpdate:  mu: -0.086127844  nElectrons: 9.000000  magneticMoment: [ Abs: 0.04009  Tot: +0.04000 ]
SCF: Cycle:  9   F: -28.377423424943792   dF: -1.201e-08   |Residual|: 2.189e-05   |deigs|: 1.104e-04  t[s]:     88.71
	FillingsUpdate:  mu: -0.086114370  nElectrons: 9.000000  magneticMoment: [ Abs: 0.04012  Tot: +0.04000 ]
SCF: Cycle: 10   F: -28.377423435575484   dF: -1.063e-08   |Residual|: 1.692e-05   |deigs|: 7.496e-05  t[s]:     96.04
	FillingsUpdate:  mu: -0.086098596  nElectrons: 9.000000  magneticMoment: [ Abs: 0.04011  Tot: +0.04000 ]
SCF: Cycle: 11   F: -28.377423435514562   dF: +6.092e-11   |Residual|: 1.686e-05   |deigs|: 4.298e-05  t[s]:    103.42
	FillingsUpdate:  mu: -0.086086448  nElectrons: 9.000000  magneticMoment: [ Abs: 0.04010  Tot: +0.04000 ]
SCF: Cycle: 12   F: -28.377423422966714   dF: +1.255e-08   |Residual|: 1.478e-05   |deigs|: 2.530e-05  t[s]:    110.77
	FillingsUpdate:  mu: -0.086071657  nElectrons: 9.000000  magneticMoment: [ Abs: 0.04010  Tot: +0.04000 ]
SCF: Cycle: 13   F: -28.377423426185342   dF: -3.219e-09   |Residual|: 1.317e-05   |deigs|: 1.871e-05  t[s]:    118.20
	FillingsUpdate:  mu: -0.086058578  nElectrons: 9.000000  magneticMoment: [ Abs: 0.04009  Tot: +0.04000 ]
SCF: Cycle: 14   F: -28.377423425559460   dF: +6.259e-10   |Residual|: 1.280e-05   |deigs|: 1.732e-05  t[s]:    125.63
	FillingsUpdate:  mu: -0.086039249  nElectrons: 9.000000  magneticMoment: [ Abs: 0.04011  Tot: +0.04000 ]
SCF: Cycle: 15   F: -28.377423425044551   dF: +5.149e-10   |Residual|: 1.170e-05   |deigs|: 2.538e-05  t[s]:    133.00
	FillingsUpdate:  mu: -0.086029117  nElectrons: 9.000000  magneticMoment: [ Abs: 0.04010  Tot: +0.04000 ]
SCF: Cycle: 16   F: -28.377423413257549   dF: +1.179e-08   |Residual|: 1.110e-05   |deigs|: 2.635e-05  t[s]:    140.37
	FillingsUpdate:  mu: -0.086018235  nElectrons: 9.000000  magneticMoment: [ Abs: 0.04009  Tot: +0.04000 ]
SCF: Cycle: 17   F: -28.377423420607190   dF: -7.350e-09   |Residual|: 9.001e-06   |deigs|: 4.928e-05  t[s]:    147.66
	FillingsUpdate:  mu: -0.086010968  nElectrons: 9.000000  magneticMoment: [ Abs: 0.04010  Tot: +0.04000 ]
SCF: Cycle: 18   F: -28.377423407958492   dF: +1.265e-08   |Residual|: 7.449e-06   |deigs|: 7.467e-05  t[s]:    155.00
	FillingsUpdate:  mu: -0.086006501  nElectrons: 9.000000  magneticMoment: [ Abs: 0.04009  Tot: +0.04000 ]
SCF: Cycle: 19   F: -28.377423443458316   dF: -3.550e-08   |Residual|: 5.960e-06   |deigs|: 8.490e-05  t[s]:    162.21
	FillingsUpdate:  mu: -0.086003214  nElectrons: 9.000000  magneticMoment: [ Abs: 0.04009  Tot: +0.04000 ]
SCF: Cycle: 20   F: -28.377423457603783   dF: -1.415e-08   |Residual|: 4.170e-06   |deigs|: 6.880e-05  t[s]:    169.05
	FillingsUpdate:  mu: -0.086001439  nElectrons: 9.000000  magneticMoment: [ Abs: 0.04009  Tot: +0.04000 ]
SCF: Cycle: 21   F: -28.377423463193765   dF: -5.590e-09   |Residual|: 3.121e-06   |deigs|: 4.442e-05  t[s]:    175.95
	FillingsUpdate:  mu: -0.085999606  nElectrons: 9.000000  magneticMoment: [ Abs: 0.04008  Tot: +0.04000 ]
SCF: Cycle: 22   F: -28.377423465888821   dF: -2.695e-09   |Residual|: 2.432e-06   |deigs|: 2.598e-05  t[s]:    182.77
SCF: Converged (|Delta E|<1.000000e-08 for 2 iters).


# Ionic positions in lattice coordinates:
ion K   0.000000000000000   0.000000000000000   0.000000000000000 0

# Forces in Lattice coordinates:
force K  -0.000000000000000   0.000000000000000   0.000000000000000 0

# Energy components:
   Eewald =       -9.0240130501663280
       EH =       13.7545380972417259
     Eloc =      -35.9633307870038195
      Enl =       -2.7673883113531677
   Epulay =        0.0000000066859396
      Exc =       -4.2385254488200692
       KE =        9.8612969137467488
-------------------------------------
     Etot =      -28.3774225796689734
       TS =        0.0000008862198479
-------------------------------------
        F =      -28.3774234658888211

IonicMinimize: Iter:   0  F: -28.377423465888821  |grad|_K:  0.000e+00  t[s]:    183.18
IonicMinimize: Converged (|grad|_K<1.000000e-04).

#--- Lowdin population analysis ---
# oxidation-state K +0.001
# magnetic-moments K +0.040

End date and time: Sat Feb  5 23:48:26 2022  (Duration: 0-0:03:03.25)
Done!
