
*************** JDFTx 1.6.0 (git hash 42ebbcc2) ***************

Start date and time: Sat Feb  5 23:46:02 2022
Executable jdftx with command-line: -i Alkali.in
Running on hosts (process indices):  d-16-5-2 (0-18)
Divided in process groups (process indices):  0 (0)  1 (1)  2 (2)  3 (3)  4 (4)  5 (5)  6 (6)  7 (7)  8 (8)  9 (9)  10 (10)  11 (11)  12 (12)  13 (13)  14 (14)  15 (15)  16 (16)  17 (17)  18 (18)
Resource initialization completed at t[s]:      0.00
Run totals: 19 processes, 48 threads, 0 GPUs


Input parsed successfully to the following command list (including defaults):

basis kpoint-dependent
coords-type Lattice
core-overlap-check vector
coulomb-interaction Slab 001
davidson-band-ratio 1.1
dump End None
dump-name $INPUT.$VAR
elec-cutoff 20
elec-eigen-algo Davidson
elec-ex-corr gga-PBE
elec-initial-magnetization 0.260000 yes
elec-smearing Fermi 1e-05
electronic-minimize  \
	dirUpdateScheme      FletcherReeves \
	linminMethod         DirUpdateRecommended \
	nIterations          100 \
	history              15 \
	knormThreshold       0 \
	energyDiffThreshold  1e-08 \
	nEnergyDiff          2 \
	alphaTstart          1 \
	alphaTmin            1e-10 \
	updateTestStepSize   yes \
	alphaTreduceFactor   0.1 \
	alphaTincreaseFactor 3 \
	nAlphaAdjustMax      3 \
	wolfeEnergy          0.0001 \
	wolfeGradient        0.9 \
	fdTest               no
electronic-scf  \
	nIterations	10000 \
	energyDiffThreshold	1e-08 \
	residualThreshold	1e-07 \
	mixFraction	0.5 \
	qMetric	0.8 \
	history	10 \
	nEigSteps	2 \
	eigDiffThreshold	1e-08 \
	mixedVariable	Density \
	qKerker	0.8 \
	qKappa	-1 \
	verbose	no \
	mixFractionMag	1.5
exchange-regularization WignerSeitzTruncated
fluid None
fluid-ex-corr (null) lda-PZ
fluid-gummel-loop 10 1.000000e-05
fluid-minimize  \
	dirUpdateScheme      PolakRibiere \
	linminMethod         DirUpdateRecommended \
	nIterations          100 \
	history              15 \
	knormThreshold       0 \
	energyDiffThreshold  0 \
	nEnergyDiff          2 \
	alphaTstart          1 \
	alphaTmin            1e-10 \
	updateTestStepSize   yes \
	alphaTreduceFactor   0.1 \
	alphaTincreaseFactor 3 \
	nAlphaAdjustMax      3 \
	wolfeEnergy          0.0001 \
	wolfeGradient        0.9 \
	fdTest               no
fluid-solvent H2O 55.338 ScalarEOS \
	epsBulk 78.4 \
	pMol 0.92466 \
	epsInf 1.77 \
	Pvap 1.06736e-10 \
	sigmaBulk 4.62e-05 \
	Rvdw 2.61727 \
	Res 1.42 \
	tauNuc 343133 \
	poleEl 15 7 1
forces-output-coords Positions
ion K   0.000000000000000   0.000000000000000   0.000000000000000 0
ion-species SG15/$ID_ONCV_PBE.upf
ion-width 0
ionic-minimize  \
	dirUpdateScheme      L-BFGS \
	linminMethod         DirUpdateRecommended \
	nIterations          0 \
	history              15 \
	knormThreshold       0.0001 \
	energyDiffThreshold  1e-06 \
	nEnergyDiff          2 \
	alphaTstart          1 \
	alphaTmin            1e-10 \
	updateTestStepSize   yes \
	alphaTreduceFactor   0.1 \
	alphaTincreaseFactor 3 \
	nAlphaAdjustMax      3 \
	wolfeEnergy          0.0001 \
	wolfeGradient        0.9 \
	fdTest               no
kpoint   0.000000000000   0.000000000000   0.000000000000  1.00000000000000
kpoint-folding 12 12 1 
latt-move-scale 1 1 1
latt-scale 4 4 1 
lattice  \
	   4.727486978767153   -2.363743489383575    0.000000000000000  \
	  -0.000000000000000    4.094123819672498    0.000000000000000  \
	   0.000000000000000    0.000000000000000   40.000000000000000 
lattice-minimize  \
	dirUpdateScheme      L-BFGS \
	linminMethod         DirUpdateRecommended \
	nIterations          0 \
	history              15 \
	knormThreshold       0 \
	energyDiffThreshold  1e-06 \
	nEnergyDiff          2 \
	alphaTstart          1 \
	alphaTmin            1e-10 \
	updateTestStepSize   yes \
	alphaTreduceFactor   0.1 \
	alphaTincreaseFactor 3 \
	nAlphaAdjustMax      3 \
	wolfeEnergy          0.0001 \
	wolfeGradient        0.9 \
	fdTest               no
lcao-params -1 1e-06 1e-05
pcm-variant GLSSA13
spintype z-spin
subspace-rotation-factor 1 yes
symmetries automatic
symmetry-threshold 0.0001



---------- Setting up symmetries ----------

Found 24 point-group symmetries of the bravais lattice
Found 24 space-group symmetries with basis
Applied RMS atom displacement 0 bohrs to make symmetries exact.

---------- Initializing the Grid ----------
R = 
[      18.9099     -9.45497            0  ]
[            0      16.3765            0  ]
[            0            0           40  ]
unit cell volume = 12387.1
G =
[   0.332269   0.191835         -0  ]
[          0   0.383671         -0  ]
[         -0         -0    0.15708  ]
Minimum fftbox size, Smin = [  80  80  164  ]
Chosen fftbox size, S = [  80  80  168  ]

---------- Exchange Correlation functional ----------
Initalized PBE GGA exchange.
Initalized PBE GGA correlation.

---------- Setting up pseudopotentials ----------
Width of ionic core gaussian charges (only for fluid interactions / plotting) set to 0

Reading pseudopotential file '/home/gridsan/aligho/DFT/build-Nov24/pseudopotentials/SG15/K_ONCV_PBE.upf':
  'K' pseudopotential, 'PBE' functional
  Generated using ONCVPSP code by D. R. Hamann
  Author: Martin Schlipf and Francois Gygi  Date: 150915.
  9 valence electrons, 3 orbitals, 6 projectors, 2222 radial grid points, with lMax = 2
  Transforming local potential to a uniform radial grid of dG=0.02 with 1489 points.
  Transforming nonlocal projectors to a uniform radial grid of dG=0.02 with 432 points.
    3S    l: 0   occupation:  2.0   eigenvalue: -1.298836
    3P    l: 1   occupation:  6.0   eigenvalue: -0.691386
    4S    l: 0   occupation:  1.0   eigenvalue: -0.085223
  Transforming atomic orbitals to a uniform radial grid of dG=0.02 with 432 points.
  Core radius for overlap checks: 2.06 bohrs.
  Reading pulay file /home/gridsan/aligho/DFT/build-Nov24/pseudopotentials/SG15/K_ONCV_PBE.pulay ... using dE_dnG = -1.597219e-05 computed for Ecut = 20.

Initialized 1 species with 1 total atoms.

Folded 1 k-points by 12x12x1 to 144 k-points.

---------- Setting up k-points, bands, fillings ----------
Reduced to 19 k-points under symmetry. 
Computing the number of bands and number of electrons
Calculating initial fillings.
nElectrons:   9.000000   nBands: 6   nStates: 38

----- Setting up reduced wavefunction bases (one per k-point) -----
average nbasis = 52924.021 , ideal nbasis = 52918.836

---------- Setting up coulomb interaction ----------
Initialized slab truncation along lattice direction 001

---------- Setting up 2D ewald sum ----------
Optimum gaussian width for ewald sums = 10.498040 bohr.
Real space sums over 289 unit cells with max indices [  8  8  0  ]
Reciprocal space sums over 81 terms with max indices [  4  4  0  ]

---------- Allocating electronic variables ----------
Initializing wave functions:  linear combination of atomic orbitals
Note: number of bands (6) exceeds available atomic orbitals (5)
K pseudo-atom occupations:   s ( 2 1 )  p ( 6 )
	FillingsUpdate:  mu: -0.085917683  nElectrons: 9.000000  magneticMoment: [ Abs: 0.26000  Tot: +0.26000 ]
LCAOMinimize: Iter:   0  F: -28.3776252154231159  |grad|_K:  3.768e-06  alpha:  1.000e+00
	FillingsUpdate:  mu: -0.085916936  nElectrons: 9.000000  magneticMoment: [ Abs: 0.26000  Tot: +0.26000 ]
LCAOMinimize: Iter:   1  F: -28.3776252250308794  |grad|_K:  1.687e-08  alpha:  9.892e-01  linmin: -5.943e-03  cgtest:  2.492e-01  t[s]:     15.18
LCAOMinimize: Encountered beta<0, resetting CG.
	FillingsUpdate:  mu: -0.085916935  nElectrons: 9.000000  magneticMoment: [ Abs: 0.26000  Tot: +0.26000 ]
LCAOMinimize: Iter:   2  F: -28.3776252250311281  |grad|_K:  1.548e-09  alpha:  9.083e-01  linmin: -1.741e-02  cgtest:  9.998e-01  t[s]:     19.24
LCAOMinimize: Encountered beta<0, resetting CG.
LCAOMinimize: Converged (|Delta F|<1.000000e-06 for 2 iters).


---- Citations for features of the code used in this run ----

   Software package:
      R. Sundararaman, K. Letchworth-Weaver, K.A. Schwarz, D. Gunceler, Y. Ozhabes and T.A. Arias, 'JDFTx: software for joint density-functional theory', SoftwareX 6, 278 (2017)

   gga-PBE exchange-correlation functional:
      J.P. Perdew, K. Burke and M. Ernzerhof, Phys. Rev. Lett. 77, 3865 (1996)

   Pseudopotentials:
      M Schlipf and F Gygi, Comput. Phys. Commun. 196, 36 (2015)

   Truncated Coulomb potentials:
      R. Sundararaman and T.A. Arias, Phys. Rev. B 87, 165122 (2013)

This list may not be complete. Please suggest additional citations or
report any other bugs at https://github.com/shankar1729/jdftx/issues

Initialization completed successfully at t[s]:     19.50


-------- Electronic minimization -----------
Will mix electronic density at each iteration.
	FillingsUpdate:  mu: -0.085916935  nElectrons: 9.000000  magneticMoment: [ Abs: 0.26000  Tot: +0.26000 ]
	FillingsUpdate:  mu: -0.085990718  nElectrons: 9.000000  magneticMoment: [ Abs: 0.26000  Tot: +0.26000 ]
SCF: Cycle:  0   F: -28.377705813782754   dF: -8.059e-05   |Residual|: 7.239e-04   |deigs|: 1.756e-01  t[s]:     27.78
	FillingsUpdate:  mu: -0.086020069  nElectrons: 9.000000  magneticMoment: [ Abs: 0.26036  Tot: +0.26000 ]
SCF: Cycle:  1   F: -28.377706771376324   dF: -9.576e-07   |Residual|: 3.741e-04   |deigs|: 4.901e-03  t[s]:     34.32
	FillingsUpdate:  mu: -0.086053313  nElectrons: 9.000000  magneticMoment: [ Abs: 0.26046  Tot: +0.26000 ]
SCF: Cycle:  2   F: -28.377707034270156   dF: -2.629e-07   |Residual|: 2.915e-04   |deigs|: 1.753e-03  t[s]:     40.91
	FillingsUpdate:  mu: -0.086108958  nElectrons: 9.000000  magneticMoment: [ Abs: 0.26063  Tot: +0.26000 ]
SCF: Cycle:  3   F: -28.377707261724417   dF: -2.275e-07   |Residual|: 2.130e-04   |deigs|: 3.216e-04  t[s]:     47.63
	FillingsUpdate:  mu: -0.086187610  nElectrons: 9.000000  magneticMoment: [ Abs: 0.26061  Tot: +0.26000 ]
SCF: Cycle:  4   F: -28.377707584731965   dF: -3.230e-07   |Residual|: 1.328e-04   |deigs|: 5.459e-04  t[s]:     54.44
	FillingsUpdate:  mu: -0.086236811  nElectrons: 9.000000  magneticMoment: [ Abs: 0.26076  Tot: +0.26000 ]
SCF: Cycle:  5   F: -28.377707777053249   dF: -1.923e-07   |Residual|: 9.106e-05   |deigs|: 5.992e-04  t[s]:     61.34
	FillingsUpdate:  mu: -0.086238613  nElectrons: 9.000000  magneticMoment: [ Abs: 0.26069  Tot: +0.26000 ]
SCF: Cycle:  6   F: -28.377707900576457   dF: -1.235e-07   |Residual|: 5.877e-05   |deigs|: 6.047e-04  t[s]:     68.42
	FillingsUpdate:  mu: -0.086235835  nElectrons: 9.000000  magneticMoment: [ Abs: 0.26065  Tot: +0.26000 ]
SCF: Cycle:  7   F: -28.377707976716191   dF: -7.614e-08   |Residual|: 4.225e-05   |deigs|: 5.018e-04  t[s]:     75.53
	FillingsUpdate:  mu: -0.086224498  nElectrons: 9.000000  magneticMoment: [ Abs: 0.26063  Tot: +0.26000 ]
SCF: Cycle:  8   F: -28.377708015217816   dF: -3.850e-08   |Residual|: 3.130e-05   |deigs|: 3.182e-04  t[s]:     82.81
	FillingsUpdate:  mu: -0.086205416  nElectrons: 9.000000  magneticMoment: [ Abs: 0.26057  Tot: +0.26000 ]
SCF: Cycle:  9   F: -28.377708039419741   dF: -2.420e-08   |Residual|: 2.225e-05   |deigs|: 1.997e-04  t[s]:     90.21
	FillingsUpdate:  mu: -0.086194196  nElectrons: 9.000000  magneticMoment: [ Abs: 0.26056  Tot: +0.26000 ]
SCF: Cycle: 10   F: -28.377708040119895   dF: -7.002e-10   |Residual|: 2.025e-05   |deigs|: 1.151e-04  t[s]:     97.73
	FillingsUpdate:  mu: -0.086179190  nElectrons: 9.000000  magneticMoment: [ Abs: 0.26064  Tot: +0.26000 ]
SCF: Cycle: 11   F: -28.377708011054395   dF: +2.907e-08   |Residual|: 1.836e-05   |deigs|: 8.854e-05  t[s]:    105.25
	FillingsUpdate:  mu: -0.086162668  nElectrons: 9.000000  magneticMoment: [ Abs: 0.26067  Tot: +0.26000 ]
SCF: Cycle: 12   F: -28.377708021500030   dF: -1.045e-08   |Residual|: 1.634e-05   |deigs|: 8.475e-05  t[s]:    112.70
	FillingsUpdate:  mu: -0.086144529  nElectrons: 9.000000  magneticMoment: [ Abs: 0.26061  Tot: +0.26000 ]
SCF: Cycle: 13   F: -28.377708006407651   dF: +1.509e-08   |Residual|: 1.481e-05   |deigs|: 6.798e-05  t[s]:    120.16
	FillingsUpdate:  mu: -0.086132596  nElectrons: 9.000000  magneticMoment: [ Abs: 0.26060  Tot: +0.26000 ]
SCF: Cycle: 14   F: -28.377707986358107   dF: +2.005e-08   |Residual|: 1.340e-05   |deigs|: 4.638e-05  t[s]:    127.70
	FillingsUpdate:  mu: -0.086114300  nElectrons: 9.000000  magneticMoment: [ Abs: 0.26060  Tot: +0.26000 ]
SCF: Cycle: 15   F: -28.377708005394293   dF: -1.904e-08   |Residual|: 1.224e-05   |deigs|: 3.769e-05  t[s]:    135.21
	FillingsUpdate:  mu: -0.086095705  nElectrons: 9.000000  magneticMoment: [ Abs: 0.26058  Tot: +0.26000 ]
SCF: Cycle: 16   F: -28.377708029566676   dF: -2.417e-08   |Residual|: 1.150e-05   |deigs|: 4.862e-05  t[s]:    142.63
	FillingsUpdate:  mu: -0.086082710  nElectrons: 9.000000  magneticMoment: [ Abs: 0.26057  Tot: +0.26000 ]
SCF: Cycle: 17   F: -28.377707975163986   dF: +5.440e-08   |Residual|: 1.071e-05   |deigs|: 8.222e-05  t[s]:    149.90
	FillingsUpdate:  mu: -0.086074378  nElectrons: 9.000000  magneticMoment: [ Abs: 0.26056  Tot: +0.26000 ]
SCF: Cycle: 18   F: -28.377708074360427   dF: -9.920e-08   |Residual|: 8.141e-06   |deigs|: 8.835e-05  t[s]:    156.86
	FillingsUpdate:  mu: -0.086069428  nElectrons: 9.000000  magneticMoment: [ Abs: 0.26055  Tot: +0.26000 ]
SCF: Cycle: 19   F: -28.377708064821618   dF: +9.539e-09   |Residual|: 6.132e-06   |deigs|: 7.904e-05  t[s]:    163.59
	FillingsUpdate:  mu: -0.086065914  nElectrons: 9.000000  magneticMoment: [ Abs: 0.26056  Tot: +0.26000 ]
SCF: Cycle: 20   F: -28.377708078187791   dF: -1.337e-08   |Residual|: 4.683e-06   |deigs|: 5.016e-05  t[s]:    171.08
	FillingsUpdate:  mu: -0.086064883  nElectrons: 9.000000  magneticMoment: [ Abs: 0.26055  Tot: +0.26000 ]
SCF: Cycle: 21   F: -28.377708086042862   dF: -7.855e-09   |Residual|: 3.642e-06   |deigs|: 2.760e-05  t[s]:    178.01
	FillingsUpdate:  mu: -0.086063542  nElectrons: 9.000000  magneticMoment: [ Abs: 0.26055  Tot: +0.26000 ]
SCF: Cycle: 22   F: -28.377708086870108   dF: -8.272e-10   |Residual|: 2.599e-06   |deigs|: 1.404e-05  t[s]:    184.97
SCF: Converged (|Delta E|<1.000000e-08 for 2 iters).


# Ionic positions in lattice coordinates:
ion K   0.000000000000000   0.000000000000000   0.000000000000000 0

# Forces in Lattice coordinates:
force K   0.000000000000000   0.000000000000000   0.000000000000000 0

# Energy components:
   Eewald =       -9.0240130501663280
       EH =       13.7578037478825941
     Eloc =      -35.9668350633864335
      Enl =       -2.7673285368379483
   Epulay =        0.0000000066859396
      Exc =       -4.2391684261486624
       KE =        9.8618336561503206
-------------------------------------
     Etot =      -28.3777076658205267
       TS =        0.0000004210495826
-------------------------------------
        F =      -28.3777080868701077

IonicMinimize: Iter:   0  F: -28.377708086870108  |grad|_K:  0.000e+00  t[s]:    185.39
IonicMinimize: Converged (|grad|_K<1.000000e-04).

#--- Lowdin population analysis ---
# oxidation-state K +0.001
# magnetic-moments K +0.260

End date and time: Sat Feb  5 23:49:08 2022  (Duration: 0-0:03:05.46)
Done!
