
*************** JDFTx 1.6.0 (git hash 42ebbcc2) ***************

Start date and time: Sat Feb  5 23:38:54 2022
Executable jdftx with command-line: -i Alkali.in
Running on hosts (process indices):  d-3-4-2 (0-18)
Divided in process groups (process indices):  0 (0)  1 (1)  2 (2)  3 (3)  4 (4)  5 (5)  6 (6)  7 (7)  8 (8)  9 (9)  10 (10)  11 (11)  12 (12)  13 (13)  14 (14)  15 (15)  16 (16)  17 (17)  18 (18)
Resource initialization completed at t[s]:      0.00
Run totals: 19 processes, 48 threads, 0 GPUs


Input parsed successfully to the following command list (including defaults):

basis kpoint-dependent
coords-type Lattice
core-overlap-check vector
coulomb-interaction Slab 001
davidson-band-ratio 1.1
dump End None
dump-name $INPUT.$VAR
elec-cutoff 20
elec-eigen-algo Davidson
elec-ex-corr gga-PBE
elec-initial-magnetization -0.540000 yes
elec-smearing Fermi 1e-05
electronic-minimize  \
	dirUpdateScheme      FletcherReeves \
	linminMethod         DirUpdateRecommended \
	nIterations          100 \
	history              15 \
	knormThreshold       0 \
	energyDiffThreshold  1e-08 \
	nEnergyDiff          2 \
	alphaTstart          1 \
	alphaTmin            1e-10 \
	updateTestStepSize   yes \
	alphaTreduceFactor   0.1 \
	alphaTincreaseFactor 3 \
	nAlphaAdjustMax      3 \
	wolfeEnergy          0.0001 \
	wolfeGradient        0.9 \
	fdTest               no
electronic-scf  \
	nIterations	10000 \
	energyDiffThreshold	1e-08 \
	residualThreshold	1e-07 \
	mixFraction	0.5 \
	qMetric	0.8 \
	history	10 \
	nEigSteps	2 \
	eigDiffThreshold	1e-08 \
	mixedVariable	Density \
	qKerker	0.8 \
	qKappa	-1 \
	verbose	no \
	mixFractionMag	1.5
exchange-regularization WignerSeitzTruncated
fluid None
fluid-ex-corr (null) lda-PZ
fluid-gummel-loop 10 1.000000e-05
fluid-minimize  \
	dirUpdateScheme      PolakRibiere \
	linminMethod         DirUpdateRecommended \
	nIterations          100 \
	history              15 \
	knormThreshold       0 \
	energyDiffThreshold  0 \
	nEnergyDiff          2 \
	alphaTstart          1 \
	alphaTmin            1e-10 \
	updateTestStepSize   yes \
	alphaTreduceFactor   0.1 \
	alphaTincreaseFactor 3 \
	nAlphaAdjustMax      3 \
	wolfeEnergy          0.0001 \
	wolfeGradient        0.9 \
	fdTest               no
fluid-solvent H2O 55.338 ScalarEOS \
	epsBulk 78.4 \
	pMol 0.92466 \
	epsInf 1.77 \
	Pvap 1.06736e-10 \
	sigmaBulk 4.62e-05 \
	Rvdw 2.61727 \
	Res 1.42 \
	tauNuc 343133 \
	poleEl 15 7 1
forces-output-coords Positions
ion K   0.000000000000000   0.000000000000000   0.000000000000000 0
ion-species SG15/$ID_ONCV_PBE.upf
ion-width 0
ionic-minimize  \
	dirUpdateScheme      L-BFGS \
	linminMethod         DirUpdateRecommended \
	nIterations          0 \
	history              15 \
	knormThreshold       0.0001 \
	energyDiffThreshold  1e-06 \
	nEnergyDiff          2 \
	alphaTstart          1 \
	alphaTmin            1e-10 \
	updateTestStepSize   yes \
	alphaTreduceFactor   0.1 \
	alphaTincreaseFactor 3 \
	nAlphaAdjustMax      3 \
	wolfeEnergy          0.0001 \
	wolfeGradient        0.9 \
	fdTest               no
kpoint   0.000000000000   0.000000000000   0.000000000000  1.00000000000000
kpoint-folding 12 12 1 
latt-move-scale 1 1 1
latt-scale 4 4 1 
lattice  \
	   4.727486978767153   -2.363743489383575    0.000000000000000  \
	  -0.000000000000000    4.094123819672498    0.000000000000000  \
	   0.000000000000000    0.000000000000000   40.000000000000000 
lattice-minimize  \
	dirUpdateScheme      L-BFGS \
	linminMethod         DirUpdateRecommended \
	nIterations          0 \
	history              15 \
	knormThreshold       0 \
	energyDiffThreshold  1e-06 \
	nEnergyDiff          2 \
	alphaTstart          1 \
	alphaTmin            1e-10 \
	updateTestStepSize   yes \
	alphaTreduceFactor   0.1 \
	alphaTincreaseFactor 3 \
	nAlphaAdjustMax      3 \
	wolfeEnergy          0.0001 \
	wolfeGradient        0.9 \
	fdTest               no
lcao-params -1 1e-06 1e-05
pcm-variant GLSSA13
spintype z-spin
subspace-rotation-factor 1 yes
symmetries automatic
symmetry-threshold 0.0001



---------- Setting up symmetries ----------

Found 24 point-group symmetries of the bravais lattice
Found 24 space-group symmetries with basis
Applied RMS atom displacement 0 bohrs to make symmetries exact.

---------- Initializing the Grid ----------
R = 
[      18.9099     -9.45497            0  ]
[            0      16.3765            0  ]
[            0            0           40  ]
unit cell volume = 12387.1
G =
[   0.332269   0.191835         -0  ]
[          0   0.383671         -0  ]
[         -0         -0    0.15708  ]
Minimum fftbox size, Smin = [  80  80  164  ]
Chosen fftbox size, S = [  80  80  168  ]

---------- Exchange Correlation functional ----------
Initalized PBE GGA exchange.
Initalized PBE GGA correlation.

---------- Setting up pseudopotentials ----------
Width of ionic core gaussian charges (only for fluid interactions / plotting) set to 0

Reading pseudopotential file '/home/gridsan/aligho/DFT/build-Nov24/pseudopotentials/SG15/K_ONCV_PBE.upf':
  'K' pseudopotential, 'PBE' functional
  Generated using ONCVPSP code by D. R. Hamann
  Author: Martin Schlipf and Francois Gygi  Date: 150915.
  9 valence electrons, 3 orbitals, 6 projectors, 2222 radial grid points, with lMax = 2
  Transforming local potential to a uniform radial grid of dG=0.02 with 1489 points.
  Transforming nonlocal projectors to a uniform radial grid of dG=0.02 with 432 points.
    3S    l: 0   occupation:  2.0   eigenvalue: -1.298836
    3P    l: 1   occupation:  6.0   eigenvalue: -0.691386
    4S    l: 0   occupation:  1.0   eigenvalue: -0.085223
  Transforming atomic orbitals to a uniform radial grid of dG=0.02 with 432 points.
  Core radius for overlap checks: 2.06 bohrs.
  Reading pulay file /home/gridsan/aligho/DFT/build-Nov24/pseudopotentials/SG15/K_ONCV_PBE.pulay ... using dE_dnG = -1.597219e-05 computed for Ecut = 20.

Initialized 1 species with 1 total atoms.

Folded 1 k-points by 12x12x1 to 144 k-points.

---------- Setting up k-points, bands, fillings ----------
Reduced to 19 k-points under symmetry. 
Computing the number of bands and number of electrons
Calculating initial fillings.
nElectrons:   9.000000   nBands: 6   nStates: 38

----- Setting up reduced wavefunction bases (one per k-point) -----
average nbasis = 52924.021 , ideal nbasis = 52918.836

---------- Setting up coulomb interaction ----------
Initialized slab truncation along lattice direction 001

---------- Setting up 2D ewald sum ----------
Optimum gaussian width for ewald sums = 10.498040 bohr.
Real space sums over 289 unit cells with max indices [  8  8  0  ]
Reciprocal space sums over 81 terms with max indices [  4  4  0  ]

---------- Allocating electronic variables ----------
Initializing wave functions:  linear combination of atomic orbitals
Note: number of bands (6) exceeds available atomic orbitals (5)
K pseudo-atom occupations:   s ( 2 1 )  p ( 6 )
	FillingsUpdate:  mu: -0.085759428  nElectrons: 9.000000  magneticMoment: [ Abs: 0.54000  Tot: -0.54000 ]
LCAOMinimize: Iter:   0  F: -28.3785432616488045  |grad|_K:  2.941e-06  alpha:  1.000e+00
	FillingsUpdate:  mu: -0.085758793  nElectrons: 9.000000  magneticMoment: [ Abs: 0.54000  Tot: -0.54000 ]
LCAOMinimize: Iter:   1  F: -28.3785432675104587  |grad|_K:  1.398e-08  alpha:  9.905e-01  linmin: -1.475e-03  cgtest:  1.486e-01  t[s]:     14.96
LCAOMinimize: Encountered beta<0, resetting CG.
LCAOMinimize: 	Step increased F by 9.592327e-14, reducing alpha to 3.156515e-02.
	FillingsUpdate:  mu: -0.085758793  nElectrons: 9.000000  magneticMoment: [ Abs: 0.54000  Tot: -0.54000 ]
LCAOMinimize: Iter:   2  F: -28.3785432675105369  |grad|_K:  1.354e-08  alpha:  3.157e-02  linmin: -1.015e-02  cgtest:  1.000e+00  t[s]:     21.27
LCAOMinimize: Encountered beta<0, resetting CG.
LCAOMinimize: Converged (|Delta F|<1.000000e-06 for 2 iters).


---- Citations for features of the code used in this run ----

   Software package:
      R. Sundararaman, K. Letchworth-Weaver, K.A. Schwarz, D. Gunceler, Y. Ozhabes and T.A. Arias, 'JDFTx: software for joint density-functional theory', SoftwareX 6, 278 (2017)

   gga-PBE exchange-correlation functional:
      J.P. Perdew, K. Burke and M. Ernzerhof, Phys. Rev. Lett. 77, 3865 (1996)

   Pseudopotentials:
      M Schlipf and F Gygi, Comput. Phys. Commun. 196, 36 (2015)

   Truncated Coulomb potentials:
      R. Sundararaman and T.A. Arias, Phys. Rev. B 87, 165122 (2013)

This list may not be complete. Please suggest additional citations or
report any other bugs at https://github.com/shankar1729/jdftx/issues

Initialization completed successfully at t[s]:     21.53


-------- Electronic minimization -----------
Will mix electronic density at each iteration.
	FillingsUpdate:  mu: -0.085758793  nElectrons: 9.000000  magneticMoment: [ Abs: 0.54000  Tot: -0.54000 ]
	FillingsUpdate:  mu: -0.085848865  nElectrons: 9.000000  magneticMoment: [ Abs: 0.54000  Tot: -0.54000 ]
SCF: Cycle:  0   F: -28.378626518398676   dF: -8.325e-05   |Residual|: 1.186e-03   |deigs|: 1.726e-01  t[s]:     29.64
	FillingsUpdate:  mu: -0.085859811  nElectrons: 9.000000  magneticMoment: [ Abs: 0.54093  Tot: -0.54000 ]
SCF: Cycle:  1   F: -28.378627619126359   dF: -1.101e-06   |Residual|: 3.208e-04   |deigs|: 8.162e-03  t[s]:     35.97
	FillingsUpdate:  mu: -0.085854243  nElectrons: 9.000000  magneticMoment: [ Abs: 0.54103  Tot: -0.54000 ]
SCF: Cycle:  2   F: -28.378627863235145   dF: -2.441e-07   |Residual|: 1.832e-04   |deigs|: 1.498e-03  t[s]:     42.38
	FillingsUpdate:  mu: -0.085855527  nElectrons: 9.000000  magneticMoment: [ Abs: 0.54122  Tot: -0.54000 ]
SCF: Cycle:  3   F: -28.378628027167828   dF: -1.639e-07   |Residual|: 1.342e-04   |deigs|: 8.709e-04  t[s]:     49.02
	FillingsUpdate:  mu: -0.085845620  nElectrons: 9.000000  magneticMoment: [ Abs: 0.54119  Tot: -0.54000 ]
SCF: Cycle:  4   F: -28.378628187938084   dF: -1.608e-07   |Residual|: 1.024e-04   |deigs|: 1.590e-04  t[s]:     55.65
	FillingsUpdate:  mu: -0.085837932  nElectrons: 9.000000  magneticMoment: [ Abs: 0.54123  Tot: -0.54000 ]
SCF: Cycle:  5   F: -28.378628311970385   dF: -1.240e-07   |Residual|: 7.150e-05   |deigs|: 3.719e-04  t[s]:     62.49
	FillingsUpdate:  mu: -0.085820267  nElectrons: 9.000000  magneticMoment: [ Abs: 0.54120  Tot: -0.54000 ]
SCF: Cycle:  6   F: -28.378628390347295   dF: -7.838e-08   |Residual|: 5.068e-05   |deigs|: 4.244e-04  t[s]:     69.42
	FillingsUpdate:  mu: -0.085805315  nElectrons: 9.000000  magneticMoment: [ Abs: 0.54120  Tot: -0.54000 ]
SCF: Cycle:  7   F: -28.378628442424972   dF: -5.208e-08   |Residual|: 3.978e-05   |deigs|: 5.359e-04  t[s]:     76.42
	FillingsUpdate:  mu: -0.085794467  nElectrons: 9.000000  magneticMoment: [ Abs: 0.54119  Tot: -0.54000 ]
SCF: Cycle:  8   F: -28.378628476303664   dF: -3.388e-08   |Residual|: 3.313e-05   |deigs|: 2.691e-04  t[s]:     83.53
	FillingsUpdate:  mu: -0.085775947  nElectrons: 9.000000  magneticMoment: [ Abs: 0.54120  Tot: -0.54000 ]
SCF: Cycle:  9   F: -28.378628502914957   dF: -2.661e-08   |Residual|: 2.504e-05   |deigs|: 7.280e-05  t[s]:     90.79
	FillingsUpdate:  mu: -0.085763076  nElectrons: 9.000000  magneticMoment: [ Abs: 0.54120  Tot: -0.54000 ]
SCF: Cycle: 10   F: -28.378628507498149   dF: -4.583e-09   |Residual|: 2.214e-05   |deigs|: 7.145e-05  t[s]:     98.16
	FillingsUpdate:  mu: -0.085749664  nElectrons: 9.000000  magneticMoment: [ Abs: 0.54123  Tot: -0.54000 ]
SCF: Cycle: 11   F: -28.378628479007933   dF: +2.849e-08   |Residual|: 2.080e-05   |deigs|: 9.319e-05  t[s]:    105.54
	FillingsUpdate:  mu: -0.085727299  nElectrons: 9.000000  magneticMoment: [ Abs: 0.54134  Tot: -0.54000 ]
SCF: Cycle: 12   F: -28.378628285826096   dF: +1.932e-07   |Residual|: 1.928e-05   |deigs|: 1.111e-04  t[s]:    112.91
	FillingsUpdate:  mu: -0.085702207  nElectrons: 9.000000  magneticMoment: [ Abs: 0.54134  Tot: -0.54000 ]
SCF: Cycle: 13   F: -28.378628408725877   dF: -1.229e-07   |Residual|: 1.877e-05   |deigs|: 9.496e-05  t[s]:    119.69
	FillingsUpdate:  mu: -0.085670619  nElectrons: 9.000000  magneticMoment: [ Abs: 0.54137  Tot: -0.54000 ]
SCF: Cycle: 14   F: -28.378628446417988   dF: -3.769e-08   |Residual|: 1.677e-05   |deigs|: 8.710e-05  t[s]:    126.47
	FillingsUpdate:  mu: -0.085641921  nElectrons: 9.000000  magneticMoment: [ Abs: 0.54136  Tot: -0.54000 ]
SCF: Cycle: 15   F: -28.378628396698559   dF: +4.972e-08   |Residual|: 1.463e-05   |deigs|: 7.506e-05  t[s]:    133.84
	FillingsUpdate:  mu: -0.085623639  nElectrons: 9.000000  magneticMoment: [ Abs: 0.54128  Tot: -0.54000 ]
SCF: Cycle: 16   F: -28.378628490157109   dF: -9.346e-08   |Residual|: 1.213e-05   |deigs|: 5.045e-05  t[s]:    141.15
	FillingsUpdate:  mu: -0.085620131  nElectrons: 9.000000  magneticMoment: [ Abs: 0.54124  Tot: -0.54000 ]
SCF: Cycle: 17   F: -28.378628481292751   dF: +8.864e-09   |Residual|: 9.964e-06   |deigs|: 2.876e-05  t[s]:    147.88
	FillingsUpdate:  mu: -0.085612074  nElectrons: 9.000000  magneticMoment: [ Abs: 0.54125  Tot: -0.54000 ]
SCF: Cycle: 18   F: -28.378628520709025   dF: -3.942e-08   |Residual|: 7.085e-06   |deigs|: 1.988e-05  t[s]:    155.28
	FillingsUpdate:  mu: -0.085608481  nElectrons: 9.000000  magneticMoment: [ Abs: 0.54121  Tot: -0.54000 ]
SCF: Cycle: 19   F: -28.378628546466139   dF: -2.576e-08   |Residual|: 5.417e-06   |deigs|: 8.610e-06  t[s]:    162.12
	FillingsUpdate:  mu: -0.085608409  nElectrons: 9.000000  magneticMoment: [ Abs: 0.54120  Tot: -0.54000 ]
SCF: Cycle: 20   F: -28.378628558529666   dF: -1.206e-08   |Residual|: 4.207e-06   |deigs|: 4.039e-06  t[s]:    169.37
	FillingsUpdate:  mu: -0.085607862  nElectrons: 9.000000  magneticMoment: [ Abs: 0.54121  Tot: -0.54000 ]
SCF: Cycle: 21   F: -28.378628561251531   dF: -2.722e-09   |Residual|: 2.958e-06   |deigs|: 2.446e-06  t[s]:    176.46
	FillingsUpdate:  mu: -0.085607178  nElectrons: 9.000000  magneticMoment: [ Abs: 0.54120  Tot: -0.54000 ]
SCF: Cycle: 22   F: -28.378628564493720   dF: -3.242e-09   |Residual|: 2.122e-06   |deigs|: 1.192e-06  t[s]:    183.75
SCF: Converged (|Delta E|<1.000000e-08 for 2 iters).


# Ionic positions in lattice coordinates:
ion K   0.000000000000000   0.000000000000000   0.000000000000000 0

# Forces in Lattice coordinates:
force K  -0.000000000000000  -0.000000000000000   0.000000000000000 0

# Energy components:
   Eewald =       -9.0240130501663280
       EH =       13.7692640727211284
     Eloc =      -35.9791399019835723
      Enl =       -2.7671068995231556
   Epulay =        0.0000000066859396
      Exc =       -4.2414104246055588
       KE =        9.8637792579592336
-------------------------------------
     Etot =      -28.3786269389123156
       TS =        0.0000016255814030
-------------------------------------
        F =      -28.3786285644937202

IonicMinimize: Iter:   0  F: -28.378628564493720  |grad|_K:  0.000e+00  t[s]:    184.15
IonicMinimize: Converged (|grad|_K<1.000000e-04).

#--- Lowdin population analysis ---
# oxidation-state K +0.001
# magnetic-moments K -0.540

End date and time: Sat Feb  5 23:41:58 2022  (Duration: 0-0:03:04.22)
Done!
