
*************** JDFTx 1.6.0 (git hash 42ebbcc2) ***************

Start date and time: Sat Feb  5 23:33:20 2022
Executable jdftx with command-line: -i Alkali.in
Running on hosts (process indices):  d-4-8-2 (0-18)
Divided in process groups (process indices):  0 (0)  1 (1)  2 (2)  3 (3)  4 (4)  5 (5)  6 (6)  7 (7)  8 (8)  9 (9)  10 (10)  11 (11)  12 (12)  13 (13)  14 (14)  15 (15)  16 (16)  17 (17)  18 (18)
Resource initialization completed at t[s]:      0.00
Run totals: 19 processes, 48 threads, 0 GPUs


Input parsed successfully to the following command list (including defaults):

basis kpoint-dependent
coords-type Lattice
core-overlap-check vector
coulomb-interaction Slab 001
davidson-band-ratio 1.1
dump End None
dump-name $INPUT.$VAR
elec-cutoff 20
elec-eigen-algo Davidson
elec-ex-corr gga-PBE
elec-initial-magnetization -0.840000 yes
elec-smearing Fermi 1e-05
electronic-minimize  \
	dirUpdateScheme      FletcherReeves \
	linminMethod         DirUpdateRecommended \
	nIterations          100 \
	history              15 \
	knormThreshold       0 \
	energyDiffThreshold  1e-08 \
	nEnergyDiff          2 \
	alphaTstart          1 \
	alphaTmin            1e-10 \
	updateTestStepSize   yes \
	alphaTreduceFactor   0.1 \
	alphaTincreaseFactor 3 \
	nAlphaAdjustMax      3 \
	wolfeEnergy          0.0001 \
	wolfeGradient        0.9 \
	fdTest               no
electronic-scf  \
	nIterations	10000 \
	energyDiffThreshold	1e-08 \
	residualThreshold	1e-07 \
	mixFraction	0.5 \
	qMetric	0.8 \
	history	10 \
	nEigSteps	2 \
	eigDiffThreshold	1e-08 \
	mixedVariable	Density \
	qKerker	0.8 \
	qKappa	-1 \
	verbose	no \
	mixFractionMag	1.5
exchange-regularization WignerSeitzTruncated
fluid None
fluid-ex-corr (null) lda-PZ
fluid-gummel-loop 10 1.000000e-05
fluid-minimize  \
	dirUpdateScheme      PolakRibiere \
	linminMethod         DirUpdateRecommended \
	nIterations          100 \
	history              15 \
	knormThreshold       0 \
	energyDiffThreshold  0 \
	nEnergyDiff          2 \
	alphaTstart          1 \
	alphaTmin            1e-10 \
	updateTestStepSize   yes \
	alphaTreduceFactor   0.1 \
	alphaTincreaseFactor 3 \
	nAlphaAdjustMax      3 \
	wolfeEnergy          0.0001 \
	wolfeGradient        0.9 \
	fdTest               no
fluid-solvent H2O 55.338 ScalarEOS \
	epsBulk 78.4 \
	pMol 0.92466 \
	epsInf 1.77 \
	Pvap 1.06736e-10 \
	sigmaBulk 4.62e-05 \
	Rvdw 2.61727 \
	Res 1.42 \
	tauNuc 343133 \
	poleEl 15 7 1
forces-output-coords Positions
ion K   0.000000000000000   0.000000000000000   0.000000000000000 0
ion-species SG15/$ID_ONCV_PBE.upf
ion-width 0
ionic-minimize  \
	dirUpdateScheme      L-BFGS \
	linminMethod         DirUpdateRecommended \
	nIterations          0 \
	history              15 \
	knormThreshold       0.0001 \
	energyDiffThreshold  1e-06 \
	nEnergyDiff          2 \
	alphaTstart          1 \
	alphaTmin            1e-10 \
	updateTestStepSize   yes \
	alphaTreduceFactor   0.1 \
	alphaTincreaseFactor 3 \
	nAlphaAdjustMax      3 \
	wolfeEnergy          0.0001 \
	wolfeGradient        0.9 \
	fdTest               no
kpoint   0.000000000000   0.000000000000   0.000000000000  1.00000000000000
kpoint-folding 12 12 1 
latt-move-scale 1 1 1
latt-scale 4 4 1 
lattice  \
	   4.727486978767153   -2.363743489383575    0.000000000000000  \
	  -0.000000000000000    4.094123819672498    0.000000000000000  \
	   0.000000000000000    0.000000000000000   40.000000000000000 
lattice-minimize  \
	dirUpdateScheme      L-BFGS \
	linminMethod         DirUpdateRecommended \
	nIterations          0 \
	history              15 \
	knormThreshold       0 \
	energyDiffThreshold  1e-06 \
	nEnergyDiff          2 \
	alphaTstart          1 \
	alphaTmin            1e-10 \
	updateTestStepSize   yes \
	alphaTreduceFactor   0.1 \
	alphaTincreaseFactor 3 \
	nAlphaAdjustMax      3 \
	wolfeEnergy          0.0001 \
	wolfeGradient        0.9 \
	fdTest               no
lcao-params -1 1e-06 1e-05
pcm-variant GLSSA13
spintype z-spin
subspace-rotation-factor 1 yes
symmetries automatic
symmetry-threshold 0.0001



---------- Setting up symmetries ----------

Found 24 point-group symmetries of the bravais lattice
Found 24 space-group symmetries with basis
Applied RMS atom displacement 0 bohrs to make symmetries exact.

---------- Initializing the Grid ----------
R = 
[      18.9099     -9.45497            0  ]
[            0      16.3765            0  ]
[            0            0           40  ]
unit cell volume = 12387.1
G =
[   0.332269   0.191835         -0  ]
[          0   0.383671         -0  ]
[         -0         -0    0.15708  ]
Minimum fftbox size, Smin = [  80  80  164  ]
Chosen fftbox size, S = [  80  80  168  ]

---------- Exchange Correlation functional ----------
Initalized PBE GGA exchange.
Initalized PBE GGA correlation.

---------- Setting up pseudopotentials ----------
Width of ionic core gaussian charges (only for fluid interactions / plotting) set to 0

Reading pseudopotential file '/home/gridsan/aligho/DFT/build-Nov24/pseudopotentials/SG15/K_ONCV_PBE.upf':
  'K' pseudopotential, 'PBE' functional
  Generated using ONCVPSP code by D. R. Hamann
  Author: Martin Schlipf and Francois Gygi  Date: 150915.
  9 valence electrons, 3 orbitals, 6 projectors, 2222 radial grid points, with lMax = 2
  Transforming local potential to a uniform radial grid of dG=0.02 with 1489 points.
  Transforming nonlocal projectors to a uniform radial grid of dG=0.02 with 432 points.
    3S    l: 0   occupation:  2.0   eigenvalue: -1.298836
    3P    l: 1   occupation:  6.0   eigenvalue: -0.691386
    4S    l: 0   occupation:  1.0   eigenvalue: -0.085223
  Transforming atomic orbitals to a uniform radial grid of dG=0.02 with 432 points.
  Core radius for overlap checks: 2.06 bohrs.
  Reading pulay file /home/gridsan/aligho/DFT/build-Nov24/pseudopotentials/SG15/K_ONCV_PBE.pulay ... using dE_dnG = -1.597219e-05 computed for Ecut = 20.

Initialized 1 species with 1 total atoms.

Folded 1 k-points by 12x12x1 to 144 k-points.

---------- Setting up k-points, bands, fillings ----------
Reduced to 19 k-points under symmetry. 
Computing the number of bands and number of electrons
Calculating initial fillings.
nElectrons:   9.000000   nBands: 6   nStates: 38

----- Setting up reduced wavefunction bases (one per k-point) -----
average nbasis = 52924.021 , ideal nbasis = 52918.836

---------- Setting up coulomb interaction ----------
Initialized slab truncation along lattice direction 001

---------- Setting up 2D ewald sum ----------
Optimum gaussian width for ewald sums = 10.498040 bohr.
Real space sums over 289 unit cells with max indices [  8  8  0  ]
Reciprocal space sums over 81 terms with max indices [  4  4  0  ]

---------- Allocating electronic variables ----------
Initializing wave functions:  linear combination of atomic orbitals
Note: number of bands (6) exceeds available atomic orbitals (5)
K pseudo-atom occupations:   s ( 2 1 )  p ( 6 )
	FillingsUpdate:  mu: -0.084950778  nElectrons: 9.000000  magneticMoment: [ Abs: 0.84000  Tot: -0.84000 ]
LCAOMinimize: Iter:   0  F: -28.3802498808911068  |grad|_K:  1.291e-06  alpha:  1.000e+00
	FillingsUpdate:  mu: -0.084950511  nElectrons: 9.000000  magneticMoment: [ Abs: 0.84000  Tot: -0.84000 ]
LCAOMinimize: Iter:   1  F: -28.3802498820226319  |grad|_K:  6.349e-09  alpha:  9.930e-01  linmin: -1.298e-04  cgtest:  3.638e-03  t[s]:     14.94
LCAOMinimize: 	Step increased F by 1.918465e-13, reducing alpha to 8.501771e-03.
LCAOMinimize: 	Step increased F by 9.237056e-14, reducing alpha to 8.501771e-04.
LCAOMinimize: 	Step increased F by 8.881784e-14, reducing alpha to 8.501771e-05.
LCAOMinimize: 	Step failed to reduce F after 3 attempts. Quitting step.
LCAOMinimize: 	Undoing step.
LCAOMinimize: 	Step failed: resetting search direction.
	FillingsUpdate:  mu: -0.084950511  nElectrons: 9.000000  magneticMoment: [ Abs: 0.84000  Tot: -0.84000 ]
LCAOMinimize: Iter:   2  F: -28.3802498820226212  |grad|_K:  6.344e-09  alpha:  8.502e-05
LCAOMinimize: 	Step increased F by 1.278977e-13, reducing alpha to 2.247004e-02.
LCAOMinimize: 	Step increased F by 2.451372e-13, reducing alpha to 2.247004e-03.
LCAOMinimize: 	Step increased F by 7.460699e-14, reducing alpha to 2.247004e-04.
LCAOMinimize: 	Step failed to reduce F after 3 attempts. Quitting step.
LCAOMinimize: 	Undoing step.
LCAOMinimize: 	Step failed along negative gradient direction.
LCAOMinimize: Probably at roundoff error limit. (Stopping)


---- Citations for features of the code used in this run ----

   Software package:
      R. Sundararaman, K. Letchworth-Weaver, K.A. Schwarz, D. Gunceler, Y. Ozhabes and T.A. Arias, 'JDFTx: software for joint density-functional theory', SoftwareX 6, 278 (2017)

   gga-PBE exchange-correlation functional:
      J.P. Perdew, K. Burke and M. Ernzerhof, Phys. Rev. Lett. 77, 3865 (1996)

   Pseudopotentials:
      M Schlipf and F Gygi, Comput. Phys. Commun. 196, 36 (2015)

   Truncated Coulomb potentials:
      R. Sundararaman and T.A. Arias, Phys. Rev. B 87, 165122 (2013)

This list may not be complete. Please suggest additional citations or
report any other bugs at https://github.com/shankar1729/jdftx/issues

Initialization completed successfully at t[s]:     37.27


-------- Electronic minimization -----------
Will mix electronic density at each iteration.
	FillingsUpdate:  mu: -0.084950511  nElectrons: 9.000000  magneticMoment: [ Abs: 0.84000  Tot: -0.84000 ]
	FillingsUpdate:  mu: -0.085093922  nElectrons: 9.000000  magneticMoment: [ Abs: 0.84000  Tot: -0.84000 ]
SCF: Cycle:  0   F: -28.380364617316438   dF: -1.147e-04   |Residual|: 1.867e-03   |deigs|: 1.647e-01  t[s]:     45.49
	FillingsUpdate:  mu: -0.085096330  nElectrons: 9.000000  magneticMoment: [ Abs: 0.84202  Tot: -0.84000 ]
SCF: Cycle:  1   F: -28.380366596134994   dF: -1.979e-06   |Residual|: 5.119e-04   |deigs|: 1.401e-02  t[s]:     51.87
	FillingsUpdate:  mu: -0.085026390  nElectrons: 9.000000  magneticMoment: [ Abs: 0.84192  Tot: -0.84000 ]
SCF: Cycle:  2   F: -28.380367249374725   dF: -6.532e-07   |Residual|: 3.576e-04   |deigs|: 1.877e-03  t[s]:     58.32
	FillingsUpdate:  mu: -0.084958700  nElectrons: 9.000000  magneticMoment: [ Abs: 0.84223  Tot: -0.84000 ]
SCF: Cycle:  3   F: -28.380367604193761   dF: -3.548e-07   |Residual|: 2.766e-04   |deigs|: 1.288e-03  t[s]:     64.95
	FillingsUpdate:  mu: -0.084776526  nElectrons: 9.000000  magneticMoment: [ Abs: 0.84208  Tot: -0.84000 ]
SCF: Cycle:  4   F: -28.380367704975676   dF: -1.008e-07   |Residual|: 1.677e-04   |deigs|: 5.787e-04  t[s]:     71.71
	FillingsUpdate:  mu: -0.084645349  nElectrons: 9.000000  magneticMoment: [ Abs: 0.84206  Tot: -0.84000 ]
SCF: Cycle:  5   F: -28.380367804083438   dF: -9.911e-08   |Residual|: 1.137e-04   |deigs|: 3.507e-04  t[s]:     78.56
	FillingsUpdate:  mu: -0.084601989  nElectrons: 9.000000  magneticMoment: [ Abs: 0.84201  Tot: -0.84000 ]
SCF: Cycle:  6   F: -28.380367977846554   dF: -1.738e-07   |Residual|: 7.823e-05   |deigs|: 3.391e-04  t[s]:     85.57
	FillingsUpdate:  mu: -0.084574289  nElectrons: 9.000000  magneticMoment: [ Abs: 0.84208  Tot: -0.84000 ]
SCF: Cycle:  7   F: -28.380368073658268   dF: -9.581e-08   |Residual|: 5.876e-05   |deigs|: 2.679e-04  t[s]:     92.61
	FillingsUpdate:  mu: -0.084561839  nElectrons: 9.000000  magneticMoment: [ Abs: 0.84205  Tot: -0.84000 ]
SCF: Cycle:  8   F: -28.380368102402144   dF: -2.874e-08   |Residual|: 4.906e-05   |deigs|: 1.522e-04  t[s]:     99.82
	FillingsUpdate:  mu: -0.084546399  nElectrons: 9.000000  magneticMoment: [ Abs: 0.84206  Tot: -0.84000 ]
SCF: Cycle:  9   F: -28.380368090409206   dF: +1.199e-08   |Residual|: 3.887e-05   |deigs|: 1.200e-04  t[s]:    107.18
	FillingsUpdate:  mu: -0.084517478  nElectrons: 9.000000  magneticMoment: [ Abs: 0.84207  Tot: -0.84000 ]
SCF: Cycle: 10   F: -28.380368012678854   dF: +7.773e-08   |Residual|: 3.326e-05   |deigs|: 1.150e-04  t[s]:    114.62
	FillingsUpdate:  mu: -0.084488101  nElectrons: 9.000000  magneticMoment: [ Abs: 0.84214  Tot: -0.84000 ]
SCF: Cycle: 11   F: -28.380367908446832   dF: +1.042e-07   |Residual|: 3.166e-05   |deigs|: 9.621e-05  t[s]:    122.05
	FillingsUpdate:  mu: -0.084461656  nElectrons: 9.000000  magneticMoment: [ Abs: 0.84228  Tot: -0.84000 ]
SCF: Cycle: 12   F: -28.380367655231559   dF: +2.532e-07   |Residual|: 2.797e-05   |deigs|: 7.086e-05  t[s]:    129.42
	FillingsUpdate:  mu: -0.084441463  nElectrons: 9.000000  magneticMoment: [ Abs: 0.84224  Tot: -0.84000 ]
SCF: Cycle: 13   F: -28.380367834684840   dF: -1.795e-07   |Residual|: 2.368e-05   |deigs|: 3.771e-05  t[s]:    136.76
	FillingsUpdate:  mu: -0.084403434  nElectrons: 9.000000  magneticMoment: [ Abs: 0.84221  Tot: -0.84000 ]
SCF: Cycle: 14   F: -28.380368028170388   dF: -1.935e-07   |Residual|: 2.145e-05   |deigs|: 4.813e-05  t[s]:    144.04
	FillingsUpdate:  mu: -0.084364035  nElectrons: 9.000000  magneticMoment: [ Abs: 0.84220  Tot: -0.84000 ]
SCF: Cycle: 15   F: -28.380367961891928   dF: +6.628e-08   |Residual|: 2.125e-05   |deigs|: 5.163e-05  t[s]:    151.26
	FillingsUpdate:  mu: -0.084349674  nElectrons: 9.000000  magneticMoment: [ Abs: 0.84214  Tot: -0.84000 ]
SCF: Cycle: 16   F: -28.380368003042129   dF: -4.115e-08   |Residual|: 1.977e-05   |deigs|: 2.472e-05  t[s]:    158.53
	FillingsUpdate:  mu: -0.084337871  nElectrons: 9.000000  magneticMoment: [ Abs: 0.84212  Tot: -0.84000 ]
SCF: Cycle: 17   F: -28.380367995173906   dF: +7.868e-09   |Residual|: 1.467e-05   |deigs|: 2.398e-05  t[s]:    165.95
	FillingsUpdate:  mu: -0.084323806  nElectrons: 9.000000  magneticMoment: [ Abs: 0.84211  Tot: -0.84000 ]
SCF: Cycle: 18   F: -28.380368114407084   dF: -1.192e-07   |Residual|: 1.052e-05   |deigs|: 1.495e-05  t[s]:    173.34
	FillingsUpdate:  mu: -0.084319982  nElectrons: 9.000000  magneticMoment: [ Abs: 0.84210  Tot: -0.84000 ]
SCF: Cycle: 19   F: -28.380368190287967   dF: -7.588e-08   |Residual|: 8.148e-06   |deigs|: 1.163e-05  t[s]:    180.45
	FillingsUpdate:  mu: -0.084315366  nElectrons: 9.000000  magneticMoment: [ Abs: 0.84209  Tot: -0.84000 ]
SCF: Cycle: 20   F: -28.380368199022122   dF: -8.734e-09   |Residual|: 6.190e-06   |deigs|: 1.379e-05  t[s]:    187.31
	FillingsUpdate:  mu: -0.084313485  nElectrons: 9.000000  magneticMoment: [ Abs: 0.84207  Tot: -0.84000 ]
SCF: Cycle: 21   F: -28.380368228156968   dF: -2.913e-08   |Residual|: 4.217e-06   |deigs|: 1.633e-05  t[s]:    194.74
	FillingsUpdate:  mu: -0.084311717  nElectrons: 9.000000  magneticMoment: [ Abs: 0.84206  Tot: -0.84000 ]
SCF: Cycle: 22   F: -28.380368244581661   dF: -1.642e-08   |Residual|: 3.078e-06   |deigs|: 1.851e-05  t[s]:    201.60
	FillingsUpdate:  mu: -0.084310238  nElectrons: 9.000000  magneticMoment: [ Abs: 0.84206  Tot: -0.84000 ]
SCF: Cycle: 23   F: -28.380368245892036   dF: -1.310e-09   |Residual|: 2.115e-06   |deigs|: 2.098e-05  t[s]:    208.69
	FillingsUpdate:  mu: -0.084309133  nElectrons: 9.000000  magneticMoment: [ Abs: 0.84206  Tot: -0.84000 ]
SCF: Cycle: 24   F: -28.380368250097426   dF: -4.205e-09   |Residual|: 1.286e-06   |deigs|: 2.283e-05  t[s]:    216.08
SCF: Converged (|Delta E|<1.000000e-08 for 2 iters).


# Ionic positions in lattice coordinates:
ion K   0.000000000000000   0.000000000000000   0.000000000000000 0

# Forces in Lattice coordinates:
force K   0.000000000000000  -0.000000000000000   0.000000000000000 0

# Energy components:
   Eewald =       -9.0240130501663280
       EH =       13.7878499221700519
     Eloc =      -35.9991194223075937
      Enl =       -2.7667182802165726
   Epulay =        0.0000000066859396
      Exc =       -4.2453575820085145
       KE =        9.8669908131299309
-------------------------------------
     Etot =      -28.3803675927130925
       TS =        0.0000006573843330
-------------------------------------
        F =      -28.3803682500974261

IonicMinimize: Iter:   0  F: -28.380368250097426  |grad|_K:  0.000e+00  t[s]:    216.49
IonicMinimize: Converged (|grad|_K<1.000000e-04).

#--- Lowdin population analysis ---
# oxidation-state K +0.001
# magnetic-moments K -0.839

End date and time: Sat Feb  5 23:36:56 2022  (Duration: 0-0:03:36.55)
Done!
