
*************** JDFTx 1.6.0 (git hash 42ebbcc2) ***************

Start date and time: Sat Feb  5 23:52:30 2022
Executable jdftx with command-line: -i Alkali.in
Running on hosts (process indices):  d-6-10-3 (0-18)
Divided in process groups (process indices):  0 (0)  1 (1)  2 (2)  3 (3)  4 (4)  5 (5)  6 (6)  7 (7)  8 (8)  9 (9)  10 (10)  11 (11)  12 (12)  13 (13)  14 (14)  15 (15)  16 (16)  17 (17)  18 (18)
Resource initialization completed at t[s]:      0.00
Run totals: 19 processes, 48 threads, 0 GPUs


Input parsed successfully to the following command list (including defaults):

basis kpoint-dependent
coords-type Lattice
core-overlap-check vector
coulomb-interaction Slab 001
davidson-band-ratio 1.1
dump End None
dump-name $INPUT.$VAR
elec-cutoff 20
elec-eigen-algo Davidson
elec-ex-corr gga-PBE
elec-initial-magnetization 0.720000 yes
elec-smearing Fermi 1e-05
electronic-minimize  \
	dirUpdateScheme      FletcherReeves \
	linminMethod         DirUpdateRecommended \
	nIterations          100 \
	history              15 \
	knormThreshold       0 \
	energyDiffThreshold  1e-08 \
	nEnergyDiff          2 \
	alphaTstart          1 \
	alphaTmin            1e-10 \
	updateTestStepSize   yes \
	alphaTreduceFactor   0.1 \
	alphaTincreaseFactor 3 \
	nAlphaAdjustMax      3 \
	wolfeEnergy          0.0001 \
	wolfeGradient        0.9 \
	fdTest               no
electronic-scf  \
	nIterations	10000 \
	energyDiffThreshold	1e-08 \
	residualThreshold	1e-07 \
	mixFraction	0.5 \
	qMetric	0.8 \
	history	10 \
	nEigSteps	2 \
	eigDiffThreshold	1e-08 \
	mixedVariable	Density \
	qKerker	0.8 \
	qKappa	-1 \
	verbose	no \
	mixFractionMag	1.5
exchange-regularization WignerSeitzTruncated
fluid None
fluid-ex-corr (null) lda-PZ
fluid-gummel-loop 10 1.000000e-05
fluid-minimize  \
	dirUpdateScheme      PolakRibiere \
	linminMethod         DirUpdateRecommended \
	nIterations          100 \
	history              15 \
	knormThreshold       0 \
	energyDiffThreshold  0 \
	nEnergyDiff          2 \
	alphaTstart          1 \
	alphaTmin            1e-10 \
	updateTestStepSize   yes \
	alphaTreduceFactor   0.1 \
	alphaTincreaseFactor 3 \
	nAlphaAdjustMax      3 \
	wolfeEnergy          0.0001 \
	wolfeGradient        0.9 \
	fdTest               no
fluid-solvent H2O 55.338 ScalarEOS \
	epsBulk 78.4 \
	pMol 0.92466 \
	epsInf 1.77 \
	Pvap 1.06736e-10 \
	sigmaBulk 4.62e-05 \
	Rvdw 2.61727 \
	Res 1.42 \
	tauNuc 343133 \
	poleEl 15 7 1
forces-output-coords Positions
ion K   0.000000000000000   0.000000000000000   0.000000000000000 0
ion-species SG15/$ID_ONCV_PBE.upf
ion-width 0
ionic-minimize  \
	dirUpdateScheme      L-BFGS \
	linminMethod         DirUpdateRecommended \
	nIterations          0 \
	history              15 \
	knormThreshold       0.0001 \
	energyDiffThreshold  1e-06 \
	nEnergyDiff          2 \
	alphaTstart          1 \
	alphaTmin            1e-10 \
	updateTestStepSize   yes \
	alphaTreduceFactor   0.1 \
	alphaTincreaseFactor 3 \
	nAlphaAdjustMax      3 \
	wolfeEnergy          0.0001 \
	wolfeGradient        0.9 \
	fdTest               no
kpoint   0.000000000000   0.000000000000   0.000000000000  1.00000000000000
kpoint-folding 12 12 1 
latt-move-scale 1 1 1
latt-scale 4 4 1 
lattice  \
	   4.727486978767153   -2.363743489383575    0.000000000000000  \
	  -0.000000000000000    4.094123819672498    0.000000000000000  \
	   0.000000000000000    0.000000000000000   40.000000000000000 
lattice-minimize  \
	dirUpdateScheme      L-BFGS \
	linminMethod         DirUpdateRecommended \
	nIterations          0 \
	history              15 \
	knormThreshold       0 \
	energyDiffThreshold  1e-06 \
	nEnergyDiff          2 \
	alphaTstart          1 \
	alphaTmin            1e-10 \
	updateTestStepSize   yes \
	alphaTreduceFactor   0.1 \
	alphaTincreaseFactor 3 \
	nAlphaAdjustMax      3 \
	wolfeEnergy          0.0001 \
	wolfeGradient        0.9 \
	fdTest               no
lcao-params -1 1e-06 1e-05
pcm-variant GLSSA13
spintype z-spin
subspace-rotation-factor 1 yes
symmetries automatic
symmetry-threshold 0.0001



---------- Setting up symmetries ----------

Found 24 point-group symmetries of the bravais lattice
Found 24 space-group symmetries with basis
Applied RMS atom displacement 0 bohrs to make symmetries exact.

---------- Initializing the Grid ----------
R = 
[      18.9099     -9.45497            0  ]
[            0      16.3765            0  ]
[            0            0           40  ]
unit cell volume = 12387.1
G =
[   0.332269   0.191835         -0  ]
[          0   0.383671         -0  ]
[         -0         -0    0.15708  ]
Minimum fftbox size, Smin = [  80  80  164  ]
Chosen fftbox size, S = [  80  80  168  ]

---------- Exchange Correlation functional ----------
Initalized PBE GGA exchange.
Initalized PBE GGA correlation.

---------- Setting up pseudopotentials ----------
Width of ionic core gaussian charges (only for fluid interactions / plotting) set to 0

Reading pseudopotential file '/home/gridsan/aligho/DFT/build-Nov24/pseudopotentials/SG15/K_ONCV_PBE.upf':
  'K' pseudopotential, 'PBE' functional
  Generated using ONCVPSP code by D. R. Hamann
  Author: Martin Schlipf and Francois Gygi  Date: 150915.
  9 valence electrons, 3 orbitals, 6 projectors, 2222 radial grid points, with lMax = 2
  Transforming local potential to a uniform radial grid of dG=0.02 with 1489 points.
  Transforming nonlocal projectors to a uniform radial grid of dG=0.02 with 432 points.
    3S    l: 0   occupation:  2.0   eigenvalue: -1.298836
    3P    l: 1   occupation:  6.0   eigenvalue: -0.691386
    4S    l: 0   occupation:  1.0   eigenvalue: -0.085223
  Transforming atomic orbitals to a uniform radial grid of dG=0.02 with 432 points.
  Core radius for overlap checks: 2.06 bohrs.
  Reading pulay file /home/gridsan/aligho/DFT/build-Nov24/pseudopotentials/SG15/K_ONCV_PBE.pulay ... using dE_dnG = -1.597219e-05 computed for Ecut = 20.

Initialized 1 species with 1 total atoms.

Folded 1 k-points by 12x12x1 to 144 k-points.

---------- Setting up k-points, bands, fillings ----------
Reduced to 19 k-points under symmetry. 
Computing the number of bands and number of electrons
Calculating initial fillings.
nElectrons:   9.000000   nBands: 6   nStates: 38

----- Setting up reduced wavefunction bases (one per k-point) -----
average nbasis = 52924.021 , ideal nbasis = 52918.836

---------- Setting up coulomb interaction ----------
Initialized slab truncation along lattice direction 001

---------- Setting up 2D ewald sum ----------
Optimum gaussian width for ewald sums = 10.498040 bohr.
Real space sums over 289 unit cells with max indices [  8  8  0  ]
Reciprocal space sums over 81 terms with max indices [  4  4  0  ]

---------- Allocating electronic variables ----------
Initializing wave functions:  linear combination of atomic orbitals
Note: number of bands (6) exceeds available atomic orbitals (5)
K pseudo-atom occupations:   s ( 2 1 )  p ( 6 )
	FillingsUpdate:  mu: -0.085469489  nElectrons: 9.000000  magneticMoment: [ Abs: 0.72000  Tot: +0.72000 ]
LCAOMinimize: Iter:   0  F: -28.3794794318855281  |grad|_K:  2.069e-06  alpha:  1.000e+00
	FillingsUpdate:  mu: -0.085469046  nElectrons: 9.000000  magneticMoment: [ Abs: 0.72000  Tot: +0.72000 ]
LCAOMinimize: Iter:   1  F: -28.3794794347869370  |grad|_K:  9.676e-09  alpha:  9.914e-01  linmin: -2.863e-03  cgtest:  1.005e-01  t[s]:     15.06
LCAOMinimize: Encountered beta<0, resetting CG.
LCAOMinimize: 	Step increased F by 2.700062e-13, reducing alpha to 3.163099e-02.
LCAOMinimize: 	Step increased F by 1.385558e-13, reducing alpha to 3.163099e-03.
LCAOMinimize: 	Step increased F by 9.947598e-14, reducing alpha to 3.163099e-04.
LCAOMinimize: 	Step failed to reduce F after 3 attempts. Quitting step.
LCAOMinimize: 	Undoing step.
LCAOMinimize: 	Step failed along negative gradient direction.
LCAOMinimize: Probably at roundoff error limit. (Stopping)


---- Citations for features of the code used in this run ----

   Software package:
      R. Sundararaman, K. Letchworth-Weaver, K.A. Schwarz, D. Gunceler, Y. Ozhabes and T.A. Arias, 'JDFTx: software for joint density-functional theory', SoftwareX 6, 278 (2017)

   gga-PBE exchange-correlation functional:
      J.P. Perdew, K. Burke and M. Ernzerhof, Phys. Rev. Lett. 77, 3865 (1996)

   Pseudopotentials:
      M Schlipf and F Gygi, Comput. Phys. Commun. 196, 36 (2015)

   Truncated Coulomb potentials:
      R. Sundararaman and T.A. Arias, Phys. Rev. B 87, 165122 (2013)

This list may not be complete. Please suggest additional citations or
report any other bugs at https://github.com/shankar1729/jdftx/issues

Initialization completed successfully at t[s]:     26.29


-------- Electronic minimization -----------
Will mix electronic density at each iteration.
	FillingsUpdate:  mu: -0.085469046  nElectrons: 9.000000  magneticMoment: [ Abs: 0.72000  Tot: +0.72000 ]
	FillingsUpdate:  mu: -0.085588474  nElectrons: 9.000000  magneticMoment: [ Abs: 0.72000  Tot: +0.72000 ]
SCF: Cycle:  0   F: -28.379576691407276   dF: -9.726e-05   |Residual|: 1.571e-03   |deigs|: 1.683e-01  t[s]:     34.41
	FillingsUpdate:  mu: -0.085603667  nElectrons: 9.000000  magneticMoment: [ Abs: 0.72149  Tot: +0.72000 ]
SCF: Cycle:  1   F: -28.379578254040872   dF: -1.563e-06   |Residual|: 4.014e-04   |deigs|: 1.150e-02  t[s]:     40.81
	FillingsUpdate:  mu: -0.085558766  nElectrons: 9.000000  magneticMoment: [ Abs: 0.72151  Tot: +0.72000 ]
SCF: Cycle:  2   F: -28.379578690191451   dF: -4.362e-07   |Residual|: 2.473e-04   |deigs|: 1.795e-03  t[s]:     47.27
	FillingsUpdate:  mu: -0.085529084  nElectrons: 9.000000  magneticMoment: [ Abs: 0.72176  Tot: +0.72000 ]
SCF: Cycle:  3   F: -28.379578940221151   dF: -2.500e-07   |Residual|: 1.867e-04   |deigs|: 5.901e-04  t[s]:     53.87
	FillingsUpdate:  mu: -0.085450384  nElectrons: 9.000000  magneticMoment: [ Abs: 0.72170  Tot: +0.72000 ]
SCF: Cycle:  4   F: -28.379579120817340   dF: -1.806e-07   |Residual|: 1.283e-04   |deigs|: 3.685e-04  t[s]:     60.58
	FillingsUpdate:  mu: -0.085352214  nElectrons: 9.000000  magneticMoment: [ Abs: 0.72172  Tot: +0.72000 ]
SCF: Cycle:  5   F: -28.379579177040483   dF: -5.622e-08   |Residual|: 8.181e-05   |deigs|: 5.102e-04  t[s]:     67.43
	FillingsUpdate:  mu: -0.085307928  nElectrons: 9.000000  magneticMoment: [ Abs: 0.72165  Tot: +0.72000 ]
SCF: Cycle:  6   F: -28.379579242765498   dF: -6.573e-08   |Residual|: 6.295e-05   |deigs|: 3.934e-04  t[s]:     74.46
	FillingsUpdate:  mu: -0.085291063  nElectrons: 9.000000  magneticMoment: [ Abs: 0.72169  Tot: +0.72000 ]
SCF: Cycle:  7   F: -28.379579303721670   dF: -6.096e-08   |Residual|: 4.843e-05   |deigs|: 2.095e-04  t[s]:     81.55
	FillingsUpdate:  mu: -0.085273604  nElectrons: 9.000000  magneticMoment: [ Abs: 0.72167  Tot: +0.72000 ]
SCF: Cycle:  8   F: -28.379579344085720   dF: -4.036e-08   |Residual|: 4.179e-05   |deigs|: 1.372e-04  t[s]:     88.79
	FillingsUpdate:  mu: -0.085248283  nElectrons: 9.000000  magneticMoment: [ Abs: 0.72168  Tot: +0.72000 ]
SCF: Cycle:  9   F: -28.379579359645223   dF: -1.556e-08   |Residual|: 3.516e-05   |deigs|: 1.587e-04  t[s]:     96.04
	FillingsUpdate:  mu: -0.085231436  nElectrons: 9.000000  magneticMoment: [ Abs: 0.72170  Tot: +0.72000 ]
SCF: Cycle: 10   F: -28.379579333223031   dF: +2.642e-08   |Residual|: 2.917e-05   |deigs|: 1.444e-04  t[s]:    103.48
	FillingsUpdate:  mu: -0.085205271  nElectrons: 9.000000  magneticMoment: [ Abs: 0.72178  Tot: +0.72000 ]
SCF: Cycle: 11   F: -28.379579229121120   dF: +1.041e-07   |Residual|: 2.592e-05   |deigs|: 8.293e-05  t[s]:    110.96
	FillingsUpdate:  mu: -0.085182941  nElectrons: 9.000000  magneticMoment: [ Abs: 0.72186  Tot: +0.72000 ]
SCF: Cycle: 12   F: -28.379578964214350   dF: +2.649e-07   |Residual|: 2.371e-05   |deigs|: 1.058e-04  t[s]:    118.28
	FillingsUpdate:  mu: -0.085185943  nElectrons: 9.000000  magneticMoment: [ Abs: 0.72180  Tot: +0.72000 ]
SCF: Cycle: 13   F: -28.379579078815620   dF: -1.146e-07   |Residual|: 2.309e-05   |deigs|: 7.051e-05  t[s]:    125.53
	FillingsUpdate:  mu: -0.085148507  nElectrons: 9.000000  magneticMoment: [ Abs: 0.72184  Tot: +0.72000 ]
SCF: Cycle: 14   F: -28.379579375928891   dF: -2.971e-07   |Residual|: 1.974e-05   |deigs|: 8.711e-05  t[s]:    132.79
	FillingsUpdate:  mu: -0.085112834  nElectrons: 9.000000  magneticMoment: [ Abs: 0.72183  Tot: +0.72000 ]
SCF: Cycle: 15   F: -28.379579246158642   dF: +1.298e-07   |Residual|: 1.892e-05   |deigs|: 7.576e-05  t[s]:    139.54
	FillingsUpdate:  mu: -0.085081636  nElectrons: 9.000000  magneticMoment: [ Abs: 0.72175  Tot: +0.72000 ]
SCF: Cycle: 16   F: -28.379579295554230   dF: -4.940e-08   |Residual|: 1.786e-05   |deigs|: 5.808e-05  t[s]:    146.85
	FillingsUpdate:  mu: -0.085068175  nElectrons: 9.000000  magneticMoment: [ Abs: 0.72172  Tot: +0.72000 ]
SCF: Cycle: 17   F: -28.379579300482977   dF: -4.929e-09   |Residual|: 1.371e-05   |deigs|: 3.535e-05  t[s]:    154.21
	FillingsUpdate:  mu: -0.085057424  nElectrons: 9.000000  magneticMoment: [ Abs: 0.72170  Tot: +0.72000 ]
SCF: Cycle: 18   F: -28.379579310095167   dF: -9.612e-09   |Residual|: 1.006e-05   |deigs|: 2.218e-05  t[s]:    161.60
SCF: Converged (|Delta E|<1.000000e-08 for 2 iters).


# Ionic positions in lattice coordinates:
ion K   0.000000000000000   0.000000000000000   0.000000000000000 0

# Forces in Lattice coordinates:
force K  -0.000000000000000   0.000000000000000   0.000000000000000 0

# Energy components:
   Eewald =       -9.0240130501663280
       EH =       13.7796399275818384
     Eloc =      -35.9902844012959662
      Enl =       -2.7669050711337064
   Epulay =        0.0000000066859396
      Exc =       -4.2435760929438855
       KE =        9.8655597032314262
-------------------------------------
     Etot =      -28.3795789780406835
       TS =        0.0000003320544837
-------------------------------------
        F =      -28.3795793100951670

IonicMinimize: Iter:   0  F: -28.379579310095167  |grad|_K:  0.000e+00  t[s]:    162.01
IonicMinimize: Converged (|grad|_K<1.000000e-04).

#--- Lowdin population analysis ---
# oxidation-state K +0.001
# magnetic-moments K +0.720

End date and time: Sat Feb  5 23:55:12 2022  (Duration: 0-0:02:42.07)
Done!
