
*************** JDFTx 1.6.0 (git hash 42ebbcc2) ***************

Start date and time: Sat Feb  5 23:33:11 2022
Executable jdftx with command-line: -i Alkali.in
Running on hosts (process indices):  d-6-7-4 (0-18)
Divided in process groups (process indices):  0 (0)  1 (1)  2 (2)  3 (3)  4 (4)  5 (5)  6 (6)  7 (7)  8 (8)  9 (9)  10 (10)  11 (11)  12 (12)  13 (13)  14 (14)  15 (15)  16 (16)  17 (17)  18 (18)
Resource initialization completed at t[s]:      0.00
Run totals: 19 processes, 48 threads, 0 GPUs


Input parsed successfully to the following command list (including defaults):

basis kpoint-dependent
coords-type Lattice
core-overlap-check vector
coulomb-interaction Slab 001
davidson-band-ratio 1.1
dump End None
dump-name $INPUT.$VAR
elec-cutoff 20
elec-eigen-algo Davidson
elec-ex-corr gga-PBE
elec-initial-magnetization -0.740000 yes
elec-smearing Fermi 1e-05
electronic-minimize  \
	dirUpdateScheme      FletcherReeves \
	linminMethod         DirUpdateRecommended \
	nIterations          100 \
	history              15 \
	knormThreshold       0 \
	energyDiffThreshold  1e-08 \
	nEnergyDiff          2 \
	alphaTstart          1 \
	alphaTmin            1e-10 \
	updateTestStepSize   yes \
	alphaTreduceFactor   0.1 \
	alphaTincreaseFactor 3 \
	nAlphaAdjustMax      3 \
	wolfeEnergy          0.0001 \
	wolfeGradient        0.9 \
	fdTest               no
electronic-scf  \
	nIterations	10000 \
	energyDiffThreshold	1e-08 \
	residualThreshold	1e-07 \
	mixFraction	0.5 \
	qMetric	0.8 \
	history	10 \
	nEigSteps	2 \
	eigDiffThreshold	1e-08 \
	mixedVariable	Density \
	qKerker	0.8 \
	qKappa	-1 \
	verbose	no \
	mixFractionMag	1.5
exchange-regularization WignerSeitzTruncated
fluid None
fluid-ex-corr (null) lda-PZ
fluid-gummel-loop 10 1.000000e-05
fluid-minimize  \
	dirUpdateScheme      PolakRibiere \
	linminMethod         DirUpdateRecommended \
	nIterations          100 \
	history              15 \
	knormThreshold       0 \
	energyDiffThreshold  0 \
	nEnergyDiff          2 \
	alphaTstart          1 \
	alphaTmin            1e-10 \
	updateTestStepSize   yes \
	alphaTreduceFactor   0.1 \
	alphaTincreaseFactor 3 \
	nAlphaAdjustMax      3 \
	wolfeEnergy          0.0001 \
	wolfeGradient        0.9 \
	fdTest               no
fluid-solvent H2O 55.338 ScalarEOS \
	epsBulk 78.4 \
	pMol 0.92466 \
	epsInf 1.77 \
	Pvap 1.06736e-10 \
	sigmaBulk 4.62e-05 \
	Rvdw 2.61727 \
	Res 1.42 \
	tauNuc 343133 \
	poleEl 15 7 1
forces-output-coords Positions
ion K   0.000000000000000   0.000000000000000   0.000000000000000 0
ion-species SG15/$ID_ONCV_PBE.upf
ion-width 0
ionic-minimize  \
	dirUpdateScheme      L-BFGS \
	linminMethod         DirUpdateRecommended \
	nIterations          0 \
	history              15 \
	knormThreshold       0.0001 \
	energyDiffThreshold  1e-06 \
	nEnergyDiff          2 \
	alphaTstart          1 \
	alphaTmin            1e-10 \
	updateTestStepSize   yes \
	alphaTreduceFactor   0.1 \
	alphaTincreaseFactor 3 \
	nAlphaAdjustMax      3 \
	wolfeEnergy          0.0001 \
	wolfeGradient        0.9 \
	fdTest               no
kpoint   0.000000000000   0.000000000000   0.000000000000  1.00000000000000
kpoint-folding 12 12 1 
latt-move-scale 1 1 1
latt-scale 4 4 1 
lattice  \
	   4.727486978767153   -2.363743489383575    0.000000000000000  \
	  -0.000000000000000    4.094123819672498    0.000000000000000  \
	   0.000000000000000    0.000000000000000   40.000000000000000 
lattice-minimize  \
	dirUpdateScheme      L-BFGS \
	linminMethod         DirUpdateRecommended \
	nIterations          0 \
	history              15 \
	knormThreshold       0 \
	energyDiffThreshold  1e-06 \
	nEnergyDiff          2 \
	alphaTstart          1 \
	alphaTmin            1e-10 \
	updateTestStepSize   yes \
	alphaTreduceFactor   0.1 \
	alphaTincreaseFactor 3 \
	nAlphaAdjustMax      3 \
	wolfeEnergy          0.0001 \
	wolfeGradient        0.9 \
	fdTest               no
lcao-params -1 1e-06 1e-05
pcm-variant GLSSA13
spintype z-spin
subspace-rotation-factor 1 yes
symmetries automatic
symmetry-threshold 0.0001



---------- Setting up symmetries ----------

Found 24 point-group symmetries of the bravais lattice
Found 24 space-group symmetries with basis
Applied RMS atom displacement 0 bohrs to make symmetries exact.

---------- Initializing the Grid ----------
R = 
[      18.9099     -9.45497            0  ]
[            0      16.3765            0  ]
[            0            0           40  ]
unit cell volume = 12387.1
G =
[   0.332269   0.191835         -0  ]
[          0   0.383671         -0  ]
[         -0         -0    0.15708  ]
Minimum fftbox size, Smin = [  80  80  164  ]
Chosen fftbox size, S = [  80  80  168  ]

---------- Exchange Correlation functional ----------
Initalized PBE GGA exchange.
Initalized PBE GGA correlation.

---------- Setting up pseudopotentials ----------
Width of ionic core gaussian charges (only for fluid interactions / plotting) set to 0

Reading pseudopotential file '/home/gridsan/aligho/DFT/build-Nov24/pseudopotentials/SG15/K_ONCV_PBE.upf':
  'K' pseudopotential, 'PBE' functional
  Generated using ONCVPSP code by D. R. Hamann
  Author: Martin Schlipf and Francois Gygi  Date: 150915.
  9 valence electrons, 3 orbitals, 6 projectors, 2222 radial grid points, with lMax = 2
  Transforming local potential to a uniform radial grid of dG=0.02 with 1489 points.
  Transforming nonlocal projectors to a uniform radial grid of dG=0.02 with 432 points.
    3S    l: 0   occupation:  2.0   eigenvalue: -1.298836
    3P    l: 1   occupation:  6.0   eigenvalue: -0.691386
    4S    l: 0   occupation:  1.0   eigenvalue: -0.085223
  Transforming atomic orbitals to a uniform radial grid of dG=0.02 with 432 points.
  Core radius for overlap checks: 2.06 bohrs.
  Reading pulay file /home/gridsan/aligho/DFT/build-Nov24/pseudopotentials/SG15/K_ONCV_PBE.pulay ... using dE_dnG = -1.597219e-05 computed for Ecut = 20.

Initialized 1 species with 1 total atoms.

Folded 1 k-points by 12x12x1 to 144 k-points.

---------- Setting up k-points, bands, fillings ----------
Reduced to 19 k-points under symmetry. 
Computing the number of bands and number of electrons
Calculating initial fillings.
nElectrons:   9.000000   nBands: 6   nStates: 38

----- Setting up reduced wavefunction bases (one per k-point) -----
average nbasis = 52924.021 , ideal nbasis = 52918.836

---------- Setting up coulomb interaction ----------
Initialized slab truncation along lattice direction 001

---------- Setting up 2D ewald sum ----------
Optimum gaussian width for ewald sums = 10.498040 bohr.
Real space sums over 289 unit cells with max indices [  8  8  0  ]
Reciprocal space sums over 81 terms with max indices [  4  4  0  ]

---------- Allocating electronic variables ----------
Initializing wave functions:  linear combination of atomic orbitals
Note: number of bands (6) exceeds available atomic orbitals (5)
K pseudo-atom occupations:   s ( 2 1 )  p ( 6 )
	FillingsUpdate:  mu: -0.085571965  nElectrons: 9.000000  magneticMoment: [ Abs: 0.74000  Tot: -0.74000 ]
LCAOMinimize: Iter:   0  F: -28.3796004782398228  |grad|_K:  2.036e-06  alpha:  1.000e+00
	FillingsUpdate:  mu: -0.085571536  nElectrons: 9.000000  magneticMoment: [ Abs: 0.74000  Tot: -0.74000 ]
LCAOMinimize: Iter:   1  F: -28.3796004810540694  |grad|_K:  1.035e-08  alpha:  9.922e-01  linmin: -2.801e-03  cgtest:  9.033e-02  t[s]:     14.80
LCAOMinimize: Encountered beta<0, resetting CG.
LCAOMinimize: 	Step increased F by 1.136868e-13, reducing alpha to 2.744281e-02.
LCAOMinimize: 	Step increased F by 1.350031e-13, reducing alpha to 2.744281e-03.
LCAOMinimize: 	Step increased F by 1.563194e-13, reducing alpha to 2.744281e-04.
LCAOMinimize: 	Step failed to reduce F after 3 attempts. Quitting step.
LCAOMinimize: 	Undoing step.
LCAOMinimize: 	Step failed along negative gradient direction.
LCAOMinimize: Probably at roundoff error limit. (Stopping)


---- Citations for features of the code used in this run ----

   Software package:
      R. Sundararaman, K. Letchworth-Weaver, K.A. Schwarz, D. Gunceler, Y. Ozhabes and T.A. Arias, 'JDFTx: software for joint density-functional theory', SoftwareX 6, 278 (2017)

   gga-PBE exchange-correlation functional:
      J.P. Perdew, K. Burke and M. Ernzerhof, Phys. Rev. Lett. 77, 3865 (1996)

   Pseudopotentials:
      M Schlipf and F Gygi, Comput. Phys. Commun. 196, 36 (2015)

   Truncated Coulomb potentials:
      R. Sundararaman and T.A. Arias, Phys. Rev. B 87, 165122 (2013)

This list may not be complete. Please suggest additional citations or
report any other bugs at https://github.com/shankar1729/jdftx/issues

Initialization completed successfully at t[s]:     25.79


-------- Electronic minimization -----------
Will mix electronic density at each iteration.
	FillingsUpdate:  mu: -0.085571536  nElectrons: 9.000000  magneticMoment: [ Abs: 0.74000  Tot: -0.74000 ]
	FillingsUpdate:  mu: -0.085682563  nElectrons: 9.000000  magneticMoment: [ Abs: 0.74000  Tot: -0.74000 ]
SCF: Cycle:  0   F: -28.379700074448106   dF: -9.959e-05   |Residual|: 1.617e-03   |deigs|: 1.676e-01  t[s]:     33.86
	FillingsUpdate:  mu: -0.085697967  nElectrons: 9.000000  magneticMoment: [ Abs: 0.74157  Tot: -0.74000 ]
SCF: Cycle:  1   F: -28.379701687032128   dF: -1.613e-06   |Residual|: 4.169e-04   |deigs|: 1.210e-02  t[s]:     40.14
	FillingsUpdate:  mu: -0.085648447  nElectrons: 9.000000  magneticMoment: [ Abs: 0.74157  Tot: -0.74000 ]
SCF: Cycle:  2   F: -28.379702156897981   dF: -4.699e-07   |Residual|: 2.632e-04   |deigs|: 1.387e-03  t[s]:     46.57
	FillingsUpdate:  mu: -0.085614117  nElectrons: 9.000000  magneticMoment: [ Abs: 0.74183  Tot: -0.74000 ]
SCF: Cycle:  3   F: -28.379702422722115   dF: -2.658e-07   |Residual|: 2.003e-04   |deigs|: 1.009e-03  t[s]:     53.06
	FillingsUpdate:  mu: -0.085522191  nElectrons: 9.000000  magneticMoment: [ Abs: 0.74176  Tot: -0.74000 ]
SCF: Cycle:  4   F: -28.379702606404997   dF: -1.837e-07   |Residual|: 1.348e-04   |deigs|: 3.808e-04  t[s]:     59.68
	FillingsUpdate:  mu: -0.085414866  nElectrons: 9.000000  magneticMoment: [ Abs: 0.74177  Tot: -0.74000 ]
SCF: Cycle:  5   F: -28.379702657875658   dF: -5.147e-08   |Residual|: 8.607e-05   |deigs|: 4.585e-04  t[s]:     66.47
	FillingsUpdate:  mu: -0.085371998  nElectrons: 9.000000  magneticMoment: [ Abs: 0.74171  Tot: -0.74000 ]
SCF: Cycle:  6   F: -28.379702731449335   dF: -7.357e-08   |Residual|: 6.547e-05   |deigs|: 4.074e-04  t[s]:     73.32
	FillingsUpdate:  mu: -0.085354198  nElectrons: 9.000000  magneticMoment: [ Abs: 0.74175  Tot: -0.74000 ]
SCF: Cycle:  7   F: -28.379702794986038   dF: -6.354e-08   |Residual|: 4.912e-05   |deigs|: 2.821e-04  t[s]:     80.23
	FillingsUpdate:  mu: -0.085334423  nElectrons: 9.000000  magneticMoment: [ Abs: 0.74173  Tot: -0.74000 ]
SCF: Cycle:  8   F: -28.379702836865079   dF: -4.188e-08   |Residual|: 4.342e-05   |deigs|: 1.759e-04  t[s]:     87.36
	FillingsUpdate:  mu: -0.085312429  nElectrons: 9.000000  magneticMoment: [ Abs: 0.74174  Tot: -0.74000 ]
SCF: Cycle:  9   F: -28.379702851581360   dF: -1.472e-08   |Residual|: 3.614e-05   |deigs|: 1.182e-04  t[s]:     94.59
	FillingsUpdate:  mu: -0.085293569  nElectrons: 9.000000  magneticMoment: [ Abs: 0.74176  Tot: -0.74000 ]
SCF: Cycle: 10   F: -28.379702826501909   dF: +2.508e-08   |Residual|: 2.982e-05   |deigs|: 1.010e-04  t[s]:    101.96
	FillingsUpdate:  mu: -0.085264075  nElectrons: 9.000000  magneticMoment: [ Abs: 0.74184  Tot: -0.74000 ]
SCF: Cycle: 11   F: -28.379702733302647   dF: +9.320e-08   |Residual|: 2.642e-05   |deigs|: 1.112e-04  t[s]:    109.28
	FillingsUpdate:  mu: -0.085240079  nElectrons: 9.000000  magneticMoment: [ Abs: 0.74194  Tot: -0.74000 ]
SCF: Cycle: 12   F: -28.379702519623574   dF: +2.137e-07   |Residual|: 2.469e-05   |deigs|: 1.205e-04  t[s]:    116.52
	FillingsUpdate:  mu: -0.085237666  nElectrons: 9.000000  magneticMoment: [ Abs: 0.74189  Tot: -0.74000 ]
SCF: Cycle: 13   F: -28.379702578520778   dF: -5.890e-08   |Residual|: 2.294e-05   |deigs|: 7.059e-05  t[s]:    123.62
	FillingsUpdate:  mu: -0.085201015  nElectrons: 9.000000  magneticMoment: [ Abs: 0.74190  Tot: -0.74000 ]
SCF: Cycle: 14   F: -28.379702843091653   dF: -2.646e-07   |Residual|: 1.986e-05   |deigs|: 5.939e-05  t[s]:    130.80
	FillingsUpdate:  mu: -0.085165740  nElectrons: 9.000000  magneticMoment: [ Abs: 0.74188  Tot: -0.74000 ]
SCF: Cycle: 15   F: -28.379702707794113   dF: +1.353e-07   |Residual|: 1.935e-05   |deigs|: 4.805e-05  t[s]:    137.67
	FillingsUpdate:  mu: -0.085140565  nElectrons: 9.000000  magneticMoment: [ Abs: 0.74179  Tot: -0.74000 ]
SCF: Cycle: 16   F: -28.379702777439249   dF: -6.965e-08   |Residual|: 1.806e-05   |deigs|: 3.493e-05  t[s]:    144.78
	FillingsUpdate:  mu: -0.085129647  nElectrons: 9.000000  magneticMoment: [ Abs: 0.74178  Tot: -0.74000 ]
SCF: Cycle: 17   F: -28.379702766480200   dF: +1.096e-08   |Residual|: 1.368e-05   |deigs|: 1.906e-05  t[s]:    152.06
	FillingsUpdate:  mu: -0.085117112  nElectrons: 9.000000  magneticMoment: [ Abs: 0.74177  Tot: -0.74000 ]
SCF: Cycle: 18   F: -28.379702816614646   dF: -5.013e-08   |Residual|: 1.008e-05   |deigs|: 1.522e-05  t[s]:    159.35
	FillingsUpdate:  mu: -0.085106936  nElectrons: 9.000000  magneticMoment: [ Abs: 0.74174  Tot: -0.74000 ]
SCF: Cycle: 19   F: -28.379702915308997   dF: -9.869e-08   |Residual|: 6.200e-06   |deigs|: 1.147e-05  t[s]:    166.60
	FillingsUpdate:  mu: -0.085105279  nElectrons: 9.000000  magneticMoment: [ Abs: 0.74175  Tot: -0.74000 ]
SCF: Cycle: 20   F: -28.379702935912832   dF: -2.060e-08   |Residual|: 4.077e-06   |deigs|: 5.635e-06  t[s]:    173.27
	FillingsUpdate:  mu: -0.085107471  nElectrons: 9.000000  magneticMoment: [ Abs: 0.74175  Tot: -0.74000 ]
SCF: Cycle: 21   F: -28.379702944050607   dF: -8.138e-09   |Residual|: 2.899e-06   |deigs|: 7.922e-06  t[s]:    180.34
	FillingsUpdate:  mu: -0.085106649  nElectrons: 9.000000  magneticMoment: [ Abs: 0.74174  Tot: -0.74000 ]
SCF: Cycle: 22   F: -28.379702944674129   dF: -6.235e-10   |Residual|: 2.114e-06   |deigs|: 8.946e-06  t[s]:    187.43
SCF: Converged (|Delta E|<1.000000e-08 for 2 iters).


# Ionic positions in lattice coordinates:
ion K   0.000000000000000   0.000000000000000   0.000000000000000 0

# Forces in Lattice coordinates:
force K   0.000000000000000   0.000000000000000   0.000000000000000 0

# Energy components:
   Eewald =       -9.0240130501663280
       EH =       13.7808317143816126
     Eloc =      -35.9915696851716191
      Enl =       -2.7668819396060229
   Epulay =        0.0000000066859396
      Exc =       -4.2438463835599771
       KE =        9.8657766873153214
-------------------------------------
     Etot =      -28.3797026501210787
       TS =        0.0000002945530499
-------------------------------------
        F =      -28.3797029446741291

IonicMinimize: Iter:   0  F: -28.379702944674129  |grad|_K:  0.000e+00  t[s]:    187.84
IonicMinimize: Converged (|grad|_K<1.000000e-04).

#--- Lowdin population analysis ---
# oxidation-state K +0.001
# magnetic-moments K -0.740

End date and time: Sat Feb  5 23:36:19 2022  (Duration: 0-0:03:07.89)
Done!
