
*************** JDFTx 1.6.0 (git hash 42ebbcc2) ***************

Start date and time: Sat Feb  5 23:45:54 2022
Executable jdftx with command-line: -i Alkali.in
Running on hosts (process indices):  d-6-7-4 (0-18)
Divided in process groups (process indices):  0 (0)  1 (1)  2 (2)  3 (3)  4 (4)  5 (5)  6 (6)  7 (7)  8 (8)  9 (9)  10 (10)  11 (11)  12 (12)  13 (13)  14 (14)  15 (15)  16 (16)  17 (17)  18 (18)
Resource initialization completed at t[s]:      0.00
Run totals: 19 processes, 48 threads, 0 GPUs


Input parsed successfully to the following command list (including defaults):

basis kpoint-dependent
coords-type Lattice
core-overlap-check vector
coulomb-interaction Slab 001
davidson-band-ratio 1.1
dump End None
dump-name $INPUT.$VAR
elec-cutoff 20
elec-eigen-algo Davidson
elec-ex-corr gga-PBE
elec-initial-magnetization 0.180000 yes
elec-smearing Fermi 1e-05
electronic-minimize  \
	dirUpdateScheme      FletcherReeves \
	linminMethod         DirUpdateRecommended \
	nIterations          100 \
	history              15 \
	knormThreshold       0 \
	energyDiffThreshold  1e-08 \
	nEnergyDiff          2 \
	alphaTstart          1 \
	alphaTmin            1e-10 \
	updateTestStepSize   yes \
	alphaTreduceFactor   0.1 \
	alphaTincreaseFactor 3 \
	nAlphaAdjustMax      3 \
	wolfeEnergy          0.0001 \
	wolfeGradient        0.9 \
	fdTest               no
electronic-scf  \
	nIterations	10000 \
	energyDiffThreshold	1e-08 \
	residualThreshold	1e-07 \
	mixFraction	0.5 \
	qMetric	0.8 \
	history	10 \
	nEigSteps	2 \
	eigDiffThreshold	1e-08 \
	mixedVariable	Density \
	qKerker	0.8 \
	qKappa	-1 \
	verbose	no \
	mixFractionMag	1.5
exchange-regularization WignerSeitzTruncated
fluid None
fluid-ex-corr (null) lda-PZ
fluid-gummel-loop 10 1.000000e-05
fluid-minimize  \
	dirUpdateScheme      PolakRibiere \
	linminMethod         DirUpdateRecommended \
	nIterations          100 \
	history              15 \
	knormThreshold       0 \
	energyDiffThreshold  0 \
	nEnergyDiff          2 \
	alphaTstart          1 \
	alphaTmin            1e-10 \
	updateTestStepSize   yes \
	alphaTreduceFactor   0.1 \
	alphaTincreaseFactor 3 \
	nAlphaAdjustMax      3 \
	wolfeEnergy          0.0001 \
	wolfeGradient        0.9 \
	fdTest               no
fluid-solvent H2O 55.338 ScalarEOS \
	epsBulk 78.4 \
	pMol 0.92466 \
	epsInf 1.77 \
	Pvap 1.06736e-10 \
	sigmaBulk 4.62e-05 \
	Rvdw 2.61727 \
	Res 1.42 \
	tauNuc 343133 \
	poleEl 15 7 1
forces-output-coords Positions
ion K   0.000000000000000   0.000000000000000   0.000000000000000 0
ion-species SG15/$ID_ONCV_PBE.upf
ion-width 0
ionic-minimize  \
	dirUpdateScheme      L-BFGS \
	linminMethod         DirUpdateRecommended \
	nIterations          0 \
	history              15 \
	knormThreshold       0.0001 \
	energyDiffThreshold  1e-06 \
	nEnergyDiff          2 \
	alphaTstart          1 \
	alphaTmin            1e-10 \
	updateTestStepSize   yes \
	alphaTreduceFactor   0.1 \
	alphaTincreaseFactor 3 \
	nAlphaAdjustMax      3 \
	wolfeEnergy          0.0001 \
	wolfeGradient        0.9 \
	fdTest               no
kpoint   0.000000000000   0.000000000000   0.000000000000  1.00000000000000
kpoint-folding 12 12 1 
latt-move-scale 1 1 1
latt-scale 4 4 1 
lattice  \
	   4.727486978767153   -2.363743489383575    0.000000000000000  \
	  -0.000000000000000    4.094123819672498    0.000000000000000  \
	   0.000000000000000    0.000000000000000   40.000000000000000 
lattice-minimize  \
	dirUpdateScheme      L-BFGS \
	linminMethod         DirUpdateRecommended \
	nIterations          0 \
	history              15 \
	knormThreshold       0 \
	energyDiffThreshold  1e-06 \
	nEnergyDiff          2 \
	alphaTstart          1 \
	alphaTmin            1e-10 \
	updateTestStepSize   yes \
	alphaTreduceFactor   0.1 \
	alphaTincreaseFactor 3 \
	nAlphaAdjustMax      3 \
	wolfeEnergy          0.0001 \
	wolfeGradient        0.9 \
	fdTest               no
lcao-params -1 1e-06 1e-05
pcm-variant GLSSA13
spintype z-spin
subspace-rotation-factor 1 yes
symmetries automatic
symmetry-threshold 0.0001



---------- Setting up symmetries ----------

Found 24 point-group symmetries of the bravais lattice
Found 24 space-group symmetries with basis
Applied RMS atom displacement 0 bohrs to make symmetries exact.

---------- Initializing the Grid ----------
R = 
[      18.9099     -9.45497            0  ]
[            0      16.3765            0  ]
[            0            0           40  ]
unit cell volume = 12387.1
G =
[   0.332269   0.191835         -0  ]
[          0   0.383671         -0  ]
[         -0         -0    0.15708  ]
Minimum fftbox size, Smin = [  80  80  164  ]
Chosen fftbox size, S = [  80  80  168  ]

---------- Exchange Correlation functional ----------
Initalized PBE GGA exchange.
Initalized PBE GGA correlation.

---------- Setting up pseudopotentials ----------
Width of ionic core gaussian charges (only for fluid interactions / plotting) set to 0

Reading pseudopotential file '/home/gridsan/aligho/DFT/build-Nov24/pseudopotentials/SG15/K_ONCV_PBE.upf':
  'K' pseudopotential, 'PBE' functional
  Generated using ONCVPSP code by D. R. Hamann
  Author: Martin Schlipf and Francois Gygi  Date: 150915.
  9 valence electrons, 3 orbitals, 6 projectors, 2222 radial grid points, with lMax = 2
  Transforming local potential to a uniform radial grid of dG=0.02 with 1489 points.
  Transforming nonlocal projectors to a uniform radial grid of dG=0.02 with 432 points.
    3S    l: 0   occupation:  2.0   eigenvalue: -1.298836
    3P    l: 1   occupation:  6.0   eigenvalue: -0.691386
    4S    l: 0   occupation:  1.0   eigenvalue: -0.085223
  Transforming atomic orbitals to a uniform radial grid of dG=0.02 with 432 points.
  Core radius for overlap checks: 2.06 bohrs.
  Reading pulay file /home/gridsan/aligho/DFT/build-Nov24/pseudopotentials/SG15/K_ONCV_PBE.pulay ... using dE_dnG = -1.597219e-05 computed for Ecut = 20.

Initialized 1 species with 1 total atoms.

Folded 1 k-points by 12x12x1 to 144 k-points.

---------- Setting up k-points, bands, fillings ----------
Reduced to 19 k-points under symmetry. 
Computing the number of bands and number of electrons
Calculating initial fillings.
nElectrons:   9.000000   nBands: 6   nStates: 38

----- Setting up reduced wavefunction bases (one per k-point) -----
average nbasis = 52924.021 , ideal nbasis = 52918.836

---------- Setting up coulomb interaction ----------
Initialized slab truncation along lattice direction 001

---------- Setting up 2D ewald sum ----------
Optimum gaussian width for ewald sums = 10.498040 bohr.
Real space sums over 289 unit cells with max indices [  8  8  0  ]
Reciprocal space sums over 81 terms with max indices [  4  4  0  ]

---------- Allocating electronic variables ----------
Initializing wave functions:  linear combination of atomic orbitals
Note: number of bands (6) exceeds available atomic orbitals (5)
K pseudo-atom occupations:   s ( 2 1 )  p ( 6 )
	FillingsUpdate:  mu: -0.085896636  nElectrons: 9.000000  magneticMoment: [ Abs: 0.18000  Tot: +0.18000 ]
LCAOMinimize: Iter:   0  F: -28.3774810507128201  |grad|_K:  3.867e-06  alpha:  1.000e+00
	FillingsUpdate:  mu: -0.085895876  nElectrons: 9.000000  magneticMoment: [ Abs: 0.18000  Tot: +0.18000 ]
LCAOMinimize: Iter:   1  F: -28.3774810608291048  |grad|_K:  1.666e-08  alpha:  9.889e-01  linmin: -6.257e-03  cgtest:  2.715e-01  t[s]:     14.90
LCAOMinimize: Encountered beta<0, resetting CG.
LCAOMinimize: 	Predicted alpha/alphaT>3.000000, increasing alphaT to 2.966558e+00.
	FillingsUpdate:  mu: -0.085895875  nElectrons: 9.000000  magneticMoment: [ Abs: 0.18000  Tot: +0.18000 ]
LCAOMinimize: Iter:   2  F: -28.3774810608294672  |grad|_K:  7.769e-10  alpha:  1.047e+00  linmin:  1.540e-02  cgtest: -9.995e-01  t[s]:     20.44
LCAOMinimize: Converged (|Delta F|<1.000000e-06 for 2 iters).


---- Citations for features of the code used in this run ----

   Software package:
      R. Sundararaman, K. Letchworth-Weaver, K.A. Schwarz, D. Gunceler, Y. Ozhabes and T.A. Arias, 'JDFTx: software for joint density-functional theory', SoftwareX 6, 278 (2017)

   gga-PBE exchange-correlation functional:
      J.P. Perdew, K. Burke and M. Ernzerhof, Phys. Rev. Lett. 77, 3865 (1996)

   Pseudopotentials:
      M Schlipf and F Gygi, Comput. Phys. Commun. 196, 36 (2015)

   Truncated Coulomb potentials:
      R. Sundararaman and T.A. Arias, Phys. Rev. B 87, 165122 (2013)

This list may not be complete. Please suggest additional citations or
report any other bugs at https://github.com/shankar1729/jdftx/issues

Initialization completed successfully at t[s]:     20.69


-------- Electronic minimization -----------
Will mix electronic density at each iteration.
	FillingsUpdate:  mu: -0.085895875  nElectrons: 9.000000  magneticMoment: [ Abs: 0.18000  Tot: +0.18000 ]
	FillingsUpdate:  mu: -0.085970830  nElectrons: 9.000000  magneticMoment: [ Abs: 0.18000  Tot: +0.18000 ]
SCF: Cycle:  0   F: -28.377562597134972   dF: -8.154e-05   |Residual|: 6.314e-04   |deigs|: 1.759e-01  t[s]:     28.73
	FillingsUpdate:  mu: -0.086006315  nElectrons: 9.000000  magneticMoment: [ Abs: 0.18024  Tot: +0.18000 ]
SCF: Cycle:  1   F: -28.377563603021294   dF: -1.006e-06   |Residual|: 3.970e-04   |deigs|: 4.630e-03  t[s]:     35.04
	FillingsUpdate:  mu: -0.086050237  nElectrons: 9.000000  magneticMoment: [ Abs: 0.18033  Tot: +0.18000 ]
SCF: Cycle:  2   F: -28.377563899141595   dF: -2.961e-07   |Residual|: 3.134e-04   |deigs|: 1.711e-03  t[s]:     41.45
	FillingsUpdate:  mu: -0.086130154  nElectrons: 9.000000  magneticMoment: [ Abs: 0.18047  Tot: +0.18000 ]
SCF: Cycle:  3   F: -28.377564186038093   dF: -2.869e-07   |Residual|: 2.158e-04   |deigs|: 4.076e-04  t[s]:     48.03
	FillingsUpdate:  mu: -0.086220964  nElectrons: 9.000000  magneticMoment: [ Abs: 0.18047  Tot: +0.18000 ]
SCF: Cycle:  4   F: -28.377564523760601   dF: -3.377e-07   |Residual|: 1.327e-04   |deigs|: 7.647e-04  t[s]:     54.64
	FillingsUpdate:  mu: -0.086262655  nElectrons: 9.000000  magneticMoment: [ Abs: 0.18057  Tot: +0.18000 ]
SCF: Cycle:  5   F: -28.377564716357579   dF: -1.926e-07   |Residual|: 9.649e-05   |deigs|: 4.351e-04  t[s]:     61.39
	FillingsUpdate:  mu: -0.086264481  nElectrons: 9.000000  magneticMoment: [ Abs: 0.18050  Tot: +0.18000 ]
SCF: Cycle:  6   F: -28.377564859884533   dF: -1.435e-07   |Residual|: 5.951e-05   |deigs|: 3.946e-04  t[s]:     68.27
	FillingsUpdate:  mu: -0.086259086  nElectrons: 9.000000  magneticMoment: [ Abs: 0.18047  Tot: +0.18000 ]
SCF: Cycle:  7   F: -28.377564937820832   dF: -7.794e-08   |Residual|: 4.391e-05   |deigs|: 5.955e-04  t[s]:     75.23
	FillingsUpdate:  mu: -0.086244963  nElectrons: 9.000000  magneticMoment: [ Abs: 0.18044  Tot: +0.18000 ]
SCF: Cycle:  8   F: -28.377564976735428   dF: -3.891e-08   |Residual|: 3.019e-05   |deigs|: 3.280e-04  t[s]:     82.36
	FillingsUpdate:  mu: -0.086229479  nElectrons: 9.000000  magneticMoment: [ Abs: 0.18039  Tot: +0.18000 ]
SCF: Cycle:  9   F: -28.377564996924669   dF: -2.019e-08   |Residual|: 2.249e-05   |deigs|: 1.387e-04  t[s]:     89.54
	FillingsUpdate:  mu: -0.086220149  nElectrons: 9.000000  magneticMoment: [ Abs: 0.18041  Tot: +0.18000 ]
SCF: Cycle: 10   F: -28.377564996809280   dF: +1.154e-10   |Residual|: 1.969e-05   |deigs|: 7.394e-05  t[s]:     96.92
	FillingsUpdate:  mu: -0.086205188  nElectrons: 9.000000  magneticMoment: [ Abs: 0.18046  Tot: +0.18000 ]
SCF: Cycle: 11   F: -28.377564975352684   dF: +2.146e-08   |Residual|: 1.777e-05   |deigs|: 7.002e-05  t[s]:    104.28
	FillingsUpdate:  mu: -0.086190480  nElectrons: 9.000000  magneticMoment: [ Abs: 0.18046  Tot: +0.18000 ]
SCF: Cycle: 12   F: -28.377564973813801   dF: +1.539e-09   |Residual|: 1.616e-05   |deigs|: 7.853e-05  t[s]:    111.60
	FillingsUpdate:  mu: -0.086174049  nElectrons: 9.000000  magneticMoment: [ Abs: 0.18041  Tot: +0.18000 ]
SCF: Cycle: 13   F: -28.377564969722176   dF: +4.092e-09   |Residual|: 1.435e-05   |deigs|: 6.772e-05  t[s]:    118.92
	FillingsUpdate:  mu: -0.086163410  nElectrons: 9.000000  magneticMoment: [ Abs: 0.18042  Tot: +0.18000 ]
SCF: Cycle: 14   F: -28.377564962332258   dF: +7.390e-09   |Residual|: 1.320e-05   |deigs|: 5.001e-05  t[s]:    126.23
	FillingsUpdate:  mu: -0.086144756  nElectrons: 9.000000  magneticMoment: [ Abs: 0.18041  Tot: +0.18000 ]
SCF: Cycle: 15   F: -28.377564959235698   dF: +3.097e-09   |Residual|: 1.225e-05   |deigs|: 3.920e-05  t[s]:    133.56
	FillingsUpdate:  mu: -0.086127391  nElectrons: 9.000000  magneticMoment: [ Abs: 0.18041  Tot: +0.18000 ]
SCF: Cycle: 16   F: -28.377564972084503   dF: -1.285e-08   |Residual|: 1.137e-05   |deigs|: 3.247e-05  t[s]:    140.87
	FillingsUpdate:  mu: -0.086116015  nElectrons: 9.000000  magneticMoment: [ Abs: 0.18040  Tot: +0.18000 ]
SCF: Cycle: 17   F: -28.377564950685056   dF: +2.140e-08   |Residual|: 9.994e-06   |deigs|: 4.956e-05  t[s]:    148.07
	FillingsUpdate:  mu: -0.086105976  nElectrons: 9.000000  magneticMoment: [ Abs: 0.18038  Tot: +0.18000 ]
SCF: Cycle: 18   F: -28.377565024112048   dF: -7.343e-08   |Residual|: 8.079e-06   |deigs|: 7.224e-05  t[s]:    155.26
	FillingsUpdate:  mu: -0.086100293  nElectrons: 9.000000  magneticMoment: [ Abs: 0.18038  Tot: +0.18000 ]
SCF: Cycle: 19   F: -28.377565017843747   dF: +6.268e-09   |Residual|: 6.409e-06   |deigs|: 8.735e-05  t[s]:    161.85
	FillingsUpdate:  mu: -0.086096246  nElectrons: 9.000000  magneticMoment: [ Abs: 0.18039  Tot: +0.18000 ]
SCF: Cycle: 20   F: -28.377565031013663   dF: -1.317e-08   |Residual|: 5.011e-06   |deigs|: 7.203e-05  t[s]:    169.22
	FillingsUpdate:  mu: -0.086094638  nElectrons: 9.000000  magneticMoment: [ Abs: 0.18038  Tot: +0.18000 ]
SCF: Cycle: 21   F: -28.377565034353861   dF: -3.340e-09   |Residual|: 3.859e-06   |deigs|: 4.932e-05  t[s]:    175.96
	FillingsUpdate:  mu: -0.086092921  nElectrons: 9.000000  magneticMoment: [ Abs: 0.18038  Tot: +0.18000 ]
SCF: Cycle: 22   F: -28.377565040386926   dF: -6.033e-09   |Residual|: 2.676e-06   |deigs|: 2.808e-05  t[s]:    182.86
SCF: Converged (|Delta E|<1.000000e-08 for 2 iters).


# Ionic positions in lattice coordinates:
ion K   0.000000000000000   0.000000000000000   0.000000000000000 0

# Forces in Lattice coordinates:
force K   0.000000000000000   0.000000000000000   0.000000000000000 0

# Energy components:
   Eewald =       -9.0240130501663280
       EH =       13.7558749195032899
     Eloc =      -35.9647643072415732
      Enl =       -2.7673672248653762
   Epulay =        0.0000000066859396
      Exc =       -4.2388071389356732
       KE =        9.8615120364968085
-------------------------------------
     Etot =      -28.3775647585229187
       TS =        0.0000002818640082
-------------------------------------
        F =      -28.3775650403869264

IonicMinimize: Iter:   0  F: -28.377565040386926  |grad|_K:  0.000e+00  t[s]:    183.26
IonicMinimize: Converged (|grad|_K<1.000000e-04).

#--- Lowdin population analysis ---
# oxidation-state K +0.001
# magnetic-moments K +0.180

End date and time: Sat Feb  5 23:48:58 2022  (Duration: 0-0:03:03.33)
Done!
