
*************** JDFTx 1.6.0 (git hash 42ebbcc2) ***************

Start date and time: Sat Feb  5 23:39:35 2022
Executable jdftx with command-line: -i Alkali.in
Running on hosts (process indices):  d-16-6-4 (0-18)
Divided in process groups (process indices):  0 (0)  1 (1)  2 (2)  3 (3)  4 (4)  5 (5)  6 (6)  7 (7)  8 (8)  9 (9)  10 (10)  11 (11)  12 (12)  13 (13)  14 (14)  15 (15)  16 (16)  17 (17)  18 (18)
Resource initialization completed at t[s]:      0.00
Run totals: 19 processes, 48 threads, 0 GPUs


Input parsed successfully to the following command list (including defaults):

basis kpoint-dependent
coords-type Lattice
core-overlap-check vector
coulomb-interaction Slab 001
davidson-band-ratio 1.1
dump End None
dump-name $INPUT.$VAR
elec-cutoff 20
elec-eigen-algo Davidson
elec-ex-corr gga-PBE
elec-initial-magnetization -0.200000 yes
elec-smearing Fermi 1e-05
electronic-minimize  \
	dirUpdateScheme      FletcherReeves \
	linminMethod         DirUpdateRecommended \
	nIterations          100 \
	history              15 \
	knormThreshold       0 \
	energyDiffThreshold  1e-08 \
	nEnergyDiff          2 \
	alphaTstart          1 \
	alphaTmin            1e-10 \
	updateTestStepSize   yes \
	alphaTreduceFactor   0.1 \
	alphaTincreaseFactor 3 \
	nAlphaAdjustMax      3 \
	wolfeEnergy          0.0001 \
	wolfeGradient        0.9 \
	fdTest               no
electronic-scf  \
	nIterations	10000 \
	energyDiffThreshold	1e-08 \
	residualThreshold	1e-07 \
	mixFraction	0.5 \
	qMetric	0.8 \
	history	10 \
	nEigSteps	2 \
	eigDiffThreshold	1e-08 \
	mixedVariable	Density \
	qKerker	0.8 \
	qKappa	-1 \
	verbose	no \
	mixFractionMag	1.5
exchange-regularization WignerSeitzTruncated
fluid None
fluid-ex-corr (null) lda-PZ
fluid-gummel-loop 10 1.000000e-05
fluid-minimize  \
	dirUpdateScheme      PolakRibiere \
	linminMethod         DirUpdateRecommended \
	nIterations          100 \
	history              15 \
	knormThreshold       0 \
	energyDiffThreshold  0 \
	nEnergyDiff          2 \
	alphaTstart          1 \
	alphaTmin            1e-10 \
	updateTestStepSize   yes \
	alphaTreduceFactor   0.1 \
	alphaTincreaseFactor 3 \
	nAlphaAdjustMax      3 \
	wolfeEnergy          0.0001 \
	wolfeGradient        0.9 \
	fdTest               no
fluid-solvent H2O 55.338 ScalarEOS \
	epsBulk 78.4 \
	pMol 0.92466 \
	epsInf 1.77 \
	Pvap 1.06736e-10 \
	sigmaBulk 4.62e-05 \
	Rvdw 2.61727 \
	Res 1.42 \
	tauNuc 343133 \
	poleEl 15 7 1
forces-output-coords Positions
ion K   0.000000000000000   0.000000000000000   0.000000000000000 0
ion-species SG15/$ID_ONCV_PBE.upf
ion-width 0
ionic-minimize  \
	dirUpdateScheme      L-BFGS \
	linminMethod         DirUpdateRecommended \
	nIterations          0 \
	history              15 \
	knormThreshold       0.0001 \
	energyDiffThreshold  1e-06 \
	nEnergyDiff          2 \
	alphaTstart          1 \
	alphaTmin            1e-10 \
	updateTestStepSize   yes \
	alphaTreduceFactor   0.1 \
	alphaTincreaseFactor 3 \
	nAlphaAdjustMax      3 \
	wolfeEnergy          0.0001 \
	wolfeGradient        0.9 \
	fdTest               no
kpoint   0.000000000000   0.000000000000   0.000000000000  1.00000000000000
kpoint-folding 12 12 1 
latt-move-scale 1 1 1
latt-scale 4 4 1 
lattice  \
	   4.727486978767153   -2.363743489383575    0.000000000000000  \
	  -0.000000000000000    4.094123819672498    0.000000000000000  \
	   0.000000000000000    0.000000000000000   40.000000000000000 
lattice-minimize  \
	dirUpdateScheme      L-BFGS \
	linminMethod         DirUpdateRecommended \
	nIterations          0 \
	history              15 \
	knormThreshold       0 \
	energyDiffThreshold  1e-06 \
	nEnergyDiff          2 \
	alphaTstart          1 \
	alphaTmin            1e-10 \
	updateTestStepSize   yes \
	alphaTreduceFactor   0.1 \
	alphaTincreaseFactor 3 \
	nAlphaAdjustMax      3 \
	wolfeEnergy          0.0001 \
	wolfeGradient        0.9 \
	fdTest               no
lcao-params -1 1e-06 1e-05
pcm-variant GLSSA13
spintype z-spin
subspace-rotation-factor 1 yes
symmetries automatic
symmetry-threshold 0.0001



---------- Setting up symmetries ----------

Found 24 point-group symmetries of the bravais lattice
Found 24 space-group symmetries with basis
Applied RMS atom displacement 0 bohrs to make symmetries exact.

---------- Initializing the Grid ----------
R = 
[      18.9099     -9.45497            0  ]
[            0      16.3765            0  ]
[            0            0           40  ]
unit cell volume = 12387.1
G =
[   0.332269   0.191835         -0  ]
[          0   0.383671         -0  ]
[         -0         -0    0.15708  ]
Minimum fftbox size, Smin = [  80  80  164  ]
Chosen fftbox size, S = [  80  80  168  ]

---------- Exchange Correlation functional ----------
Initalized PBE GGA exchange.
Initalized PBE GGA correlation.

---------- Setting up pseudopotentials ----------
Width of ionic core gaussian charges (only for fluid interactions / plotting) set to 0

Reading pseudopotential file '/home/gridsan/aligho/DFT/build-Nov24/pseudopotentials/SG15/K_ONCV_PBE.upf':
  'K' pseudopotential, 'PBE' functional
  Generated using ONCVPSP code by D. R. Hamann
  Author: Martin Schlipf and Francois Gygi  Date: 150915.
  9 valence electrons, 3 orbitals, 6 projectors, 2222 radial grid points, with lMax = 2
  Transforming local potential to a uniform radial grid of dG=0.02 with 1489 points.
  Transforming nonlocal projectors to a uniform radial grid of dG=0.02 with 432 points.
    3S    l: 0   occupation:  2.0   eigenvalue: -1.298836
    3P    l: 1   occupation:  6.0   eigenvalue: -0.691386
    4S    l: 0   occupation:  1.0   eigenvalue: -0.085223
  Transforming atomic orbitals to a uniform radial grid of dG=0.02 with 432 points.
  Core radius for overlap checks: 2.06 bohrs.
  Reading pulay file /home/gridsan/aligho/DFT/build-Nov24/pseudopotentials/SG15/K_ONCV_PBE.pulay ... using dE_dnG = -1.597219e-05 computed for Ecut = 20.

Initialized 1 species with 1 total atoms.

Folded 1 k-points by 12x12x1 to 144 k-points.

---------- Setting up k-points, bands, fillings ----------
Reduced to 19 k-points under symmetry. 
Computing the number of bands and number of electrons
Calculating initial fillings.
nElectrons:   9.000000   nBands: 6   nStates: 38

----- Setting up reduced wavefunction bases (one per k-point) -----
average nbasis = 52924.021 , ideal nbasis = 52918.836

---------- Setting up coulomb interaction ----------
Initialized slab truncation along lattice direction 001

---------- Setting up 2D ewald sum ----------
Optimum gaussian width for ewald sums = 10.498040 bohr.
Real space sums over 289 unit cells with max indices [  8  8  0  ]
Reciprocal space sums over 81 terms with max indices [  4  4  0  ]

---------- Allocating electronic variables ----------
Initializing wave functions:  linear combination of atomic orbitals
Note: number of bands (6) exceeds available atomic orbitals (5)
K pseudo-atom occupations:   s ( 2 1 )  p ( 6 )
	FillingsUpdate:  mu: -0.085791923  nElectrons: 9.000000  magneticMoment: [ Abs: 0.20000  Tot: -0.20000 ]
LCAOMinimize: Iter:   0  F: -28.3775123563901630  |grad|_K:  3.820e-06  alpha:  1.000e+00
	FillingsUpdate:  mu: -0.085791122  nElectrons: 9.000000  magneticMoment: [ Abs: 0.20000  Tot: -0.20000 ]
LCAOMinimize: Iter:   1  F: -28.3775123662584434  |grad|_K:  1.596e-08  alpha:  9.887e-01  linmin: -6.647e-03  cgtest:  2.893e-01  t[s]:     15.24
LCAOMinimize: Encountered beta<0, resetting CG.
	FillingsUpdate:  mu: -0.085791122  nElectrons: 9.000000  magneticMoment: [ Abs: 0.20000  Tot: -0.20000 ]
LCAOMinimize: Iter:   2  F: -28.3775123662584683  |grad|_K:  8.745e-09  alpha:  4.521e-01  linmin: -1.453e-02  cgtest:  1.000e+00  t[s]:     19.26
LCAOMinimize: Encountered beta<0, resetting CG.
LCAOMinimize: Converged (|Delta F|<1.000000e-06 for 2 iters).


---- Citations for features of the code used in this run ----

   Software package:
      R. Sundararaman, K. Letchworth-Weaver, K.A. Schwarz, D. Gunceler, Y. Ozhabes and T.A. Arias, 'JDFTx: software for joint density-functional theory', SoftwareX 6, 278 (2017)

   gga-PBE exchange-correlation functional:
      J.P. Perdew, K. Burke and M. Ernzerhof, Phys. Rev. Lett. 77, 3865 (1996)

   Pseudopotentials:
      M Schlipf and F Gygi, Comput. Phys. Commun. 196, 36 (2015)

   Truncated Coulomb potentials:
      R. Sundararaman and T.A. Arias, Phys. Rev. B 87, 165122 (2013)

This list may not be complete. Please suggest additional citations or
report any other bugs at https://github.com/shankar1729/jdftx/issues

Initialization completed successfully at t[s]:     19.52


-------- Electronic minimization -----------
Will mix electronic density at each iteration.
	FillingsUpdate:  mu: -0.085791122  nElectrons: 9.000000  magneticMoment: [ Abs: 0.20000  Tot: -0.20000 ]
	FillingsUpdate:  mu: -0.085858455  nElectrons: 9.000000  magneticMoment: [ Abs: 0.20000  Tot: -0.20000 ]
SCF: Cycle:  0   F: -28.377593650527409   dF: -8.128e-05   |Residual|: 6.528e-04   |deigs|: 1.759e-01  t[s]:     27.72
	FillingsUpdate:  mu: -0.085892596  nElectrons: 9.000000  magneticMoment: [ Abs: 0.20027  Tot: -0.20000 ]
SCF: Cycle:  1   F: -28.377594641364482   dF: -9.908e-07   |Residual|: 3.916e-04   |deigs|: 4.643e-03  t[s]:     34.14
	FillingsUpdate:  mu: -0.085933377  nElectrons: 9.000000  magneticMoment: [ Abs: 0.20036  Tot: -0.20000 ]
SCF: Cycle:  2   F: -28.377594928895306   dF: -2.875e-07   |Residual|: 3.094e-04   |deigs|: 1.715e-03  t[s]:     40.75
	FillingsUpdate:  mu: -0.086006695  nElectrons: 9.000000  magneticMoment: [ Abs: 0.20051  Tot: -0.20000 ]
SCF: Cycle:  3   F: -28.377595197851090   dF: -2.690e-07   |Residual|: 2.162e-04   |deigs|: 6.008e-04  t[s]:     47.46
	FillingsUpdate:  mu: -0.086095651  nElectrons: 9.000000  magneticMoment: [ Abs: 0.20051  Tot: -0.20000 ]
SCF: Cycle:  4   F: -28.377595539141435   dF: -3.413e-07   |Residual|: 1.329e-04   |deigs|: 7.240e-04  t[s]:     54.25
	FillingsUpdate:  mu: -0.086139299  nElectrons: 9.000000  magneticMoment: [ Abs: 0.20062  Tot: -0.20000 ]
SCF: Cycle:  5   F: -28.377595730386219   dF: -1.912e-07   |Residual|: 9.523e-05   |deigs|: 5.240e-04  t[s]:     61.09
	FillingsUpdate:  mu: -0.086140521  nElectrons: 9.000000  magneticMoment: [ Abs: 0.20055  Tot: -0.20000 ]
SCF: Cycle:  6   F: -28.377595867716295   dF: -1.373e-07   |Residual|: 5.969e-05   |deigs|: 5.392e-04  t[s]:     68.11
	FillingsUpdate:  mu: -0.086135574  nElectrons: 9.000000  magneticMoment: [ Abs: 0.20052  Tot: -0.20000 ]
SCF: Cycle:  7   F: -28.377595947034273   dF: -7.932e-08   |Residual|: 4.345e-05   |deigs|: 4.287e-04  t[s]:     75.28
	FillingsUpdate:  mu: -0.086122546  nElectrons: 9.000000  magneticMoment: [ Abs: 0.20049  Tot: -0.20000 ]
SCF: Cycle:  8   F: -28.377595985325030   dF: -3.829e-08   |Residual|: 3.083e-05   |deigs|: 2.584e-04  t[s]:     82.50
	FillingsUpdate:  mu: -0.086105747  nElectrons: 9.000000  magneticMoment: [ Abs: 0.20044  Tot: -0.20000 ]
SCF: Cycle:  9   F: -28.377596006605515   dF: -2.128e-08   |Residual|: 2.234e-05   |deigs|: 1.281e-04  t[s]:     89.86
	FillingsUpdate:  mu: -0.086095526  nElectrons: 9.000000  magneticMoment: [ Abs: 0.20044  Tot: -0.20000 ]
SCF: Cycle: 10   F: -28.377596007890180   dF: -1.285e-09   |Residual|: 1.988e-05   |deigs|: 5.292e-05  t[s]:     97.38
	FillingsUpdate:  mu: -0.086080786  nElectrons: 9.000000  magneticMoment: [ Abs: 0.20051  Tot: -0.20000 ]
SCF: Cycle: 11   F: -28.377595987007794   dF: +2.088e-08   |Residual|: 1.777e-05   |deigs|: 4.501e-05  t[s]:    104.86
	FillingsUpdate:  mu: -0.086065451  nElectrons: 9.000000  magneticMoment: [ Abs: 0.20051  Tot: -0.20000 ]
SCF: Cycle: 12   F: -28.377595987437680   dF: -4.299e-10   |Residual|: 1.618e-05   |deigs|: 6.805e-05  t[s]:    112.37
	FillingsUpdate:  mu: -0.086048403  nElectrons: 9.000000  magneticMoment: [ Abs: 0.20046  Tot: -0.20000 ]
SCF: Cycle: 13   F: -28.377595972948562   dF: +1.449e-08   |Residual|: 1.458e-05   |deigs|: 8.247e-05  t[s]:    119.92
	FillingsUpdate:  mu: -0.086037938  nElectrons: 9.000000  magneticMoment: [ Abs: 0.20046  Tot: -0.20000 ]
SCF: Cycle: 14   F: -28.377595967581556   dF: +5.367e-09   |Residual|: 1.324e-05   |deigs|: 8.828e-05  t[s]:    127.41
	FillingsUpdate:  mu: -0.086018175  nElectrons: 9.000000  magneticMoment: [ Abs: 0.20046  Tot: -0.20000 ]
SCF: Cycle: 15   F: -28.377595971103165   dF: -3.522e-09   |Residual|: 1.218e-05   |deigs|: 9.049e-05  t[s]:    134.90
	FillingsUpdate:  mu: -0.086000753  nElectrons: 9.000000  magneticMoment: [ Abs: 0.20045  Tot: -0.20000 ]
SCF: Cycle: 16   F: -28.377595980963655   dF: -9.860e-09   |Residual|: 1.138e-05   |deigs|: 9.205e-05  t[s]:    142.35
SCF: Converged (|Delta E|<1.000000e-08 for 2 iters).


# Ionic positions in lattice coordinates:
ion K   0.000000000000000   0.000000000000000   0.000000000000000 0

# Forces in Lattice coordinates:
force K  -0.000000000000000  -0.000000000000000   0.000000000000000 0

# Energy components:
   Eewald =       -9.0240130501663280
       EH =       13.7564604365480037
     Eloc =      -35.9653924533898106
      Enl =       -2.7673579413986551
   Epulay =        0.0000000066859396
      Exc =       -4.2388972702345731
       KE =        9.8616048024519998
-------------------------------------
     Etot =      -28.3775954695034258
       TS =        0.0000005114602277
-------------------------------------
        F =      -28.3775959809636547

IonicMinimize: Iter:   0  F: -28.377595980963655  |grad|_K:  0.000e+00  t[s]:    142.77
IonicMinimize: Converged (|grad|_K<1.000000e-04).

#--- Lowdin population analysis ---
# oxidation-state K +0.001
# magnetic-moments K -0.200

End date and time: Sat Feb  5 23:41:58 2022  (Duration: 0-0:02:22.84)
Done!
