
*************** JDFTx 1.6.0 (git hash 42ebbcc2) ***************

Start date and time: Sat Feb  5 23:33:05 2022
Executable jdftx with command-line: -i Alkali.in
Running on hosts (process indices):  d-3-4-2 (0-18)
Divided in process groups (process indices):  0 (0)  1 (1)  2 (2)  3 (3)  4 (4)  5 (5)  6 (6)  7 (7)  8 (8)  9 (9)  10 (10)  11 (11)  12 (12)  13 (13)  14 (14)  15 (15)  16 (16)  17 (17)  18 (18)
Resource initialization completed at t[s]:      0.00
Run totals: 19 processes, 48 threads, 0 GPUs


Input parsed successfully to the following command list (including defaults):

basis kpoint-dependent
coords-type Lattice
core-overlap-check vector
coulomb-interaction Slab 001
davidson-band-ratio 1.1
dump End None
dump-name $INPUT.$VAR
elec-cutoff 20
elec-eigen-algo Davidson
elec-ex-corr gga-PBE
elec-initial-magnetization -1.000000 yes
elec-smearing Fermi 1e-05
electronic-minimize  \
	dirUpdateScheme      FletcherReeves \
	linminMethod         DirUpdateRecommended \
	nIterations          100 \
	history              15 \
	knormThreshold       0 \
	energyDiffThreshold  1e-08 \
	nEnergyDiff          2 \
	alphaTstart          1 \
	alphaTmin            1e-10 \
	updateTestStepSize   yes \
	alphaTreduceFactor   0.1 \
	alphaTincreaseFactor 3 \
	nAlphaAdjustMax      3 \
	wolfeEnergy          0.0001 \
	wolfeGradient        0.9 \
	fdTest               no
electronic-scf  \
	nIterations	10000 \
	energyDiffThreshold	1e-08 \
	residualThreshold	1e-07 \
	mixFraction	0.5 \
	qMetric	0.8 \
	history	10 \
	nEigSteps	2 \
	eigDiffThreshold	1e-08 \
	mixedVariable	Density \
	qKerker	0.8 \
	qKappa	-1 \
	verbose	no \
	mixFractionMag	1.5
exchange-regularization WignerSeitzTruncated
fluid None
fluid-ex-corr (null) lda-PZ
fluid-gummel-loop 10 1.000000e-05
fluid-minimize  \
	dirUpdateScheme      PolakRibiere \
	linminMethod         DirUpdateRecommended \
	nIterations          100 \
	history              15 \
	knormThreshold       0 \
	energyDiffThreshold  0 \
	nEnergyDiff          2 \
	alphaTstart          1 \
	alphaTmin            1e-10 \
	updateTestStepSize   yes \
	alphaTreduceFactor   0.1 \
	alphaTincreaseFactor 3 \
	nAlphaAdjustMax      3 \
	wolfeEnergy          0.0001 \
	wolfeGradient        0.9 \
	fdTest               no
fluid-solvent H2O 55.338 ScalarEOS \
	epsBulk 78.4 \
	pMol 0.92466 \
	epsInf 1.77 \
	Pvap 1.06736e-10 \
	sigmaBulk 4.62e-05 \
	Rvdw 2.61727 \
	Res 1.42 \
	tauNuc 343133 \
	poleEl 15 7 1
forces-output-coords Positions
ion K   0.000000000000000   0.000000000000000   0.000000000000000 0
ion-species SG15/$ID_ONCV_PBE.upf
ion-width 0
ionic-minimize  \
	dirUpdateScheme      L-BFGS \
	linminMethod         DirUpdateRecommended \
	nIterations          0 \
	history              15 \
	knormThreshold       0.0001 \
	energyDiffThreshold  1e-06 \
	nEnergyDiff          2 \
	alphaTstart          1 \
	alphaTmin            1e-10 \
	updateTestStepSize   yes \
	alphaTreduceFactor   0.1 \
	alphaTincreaseFactor 3 \
	nAlphaAdjustMax      3 \
	wolfeEnergy          0.0001 \
	wolfeGradient        0.9 \
	fdTest               no
kpoint   0.000000000000   0.000000000000   0.000000000000  1.00000000000000
kpoint-folding 12 12 1 
latt-move-scale 1 1 1
latt-scale 4 4 1 
lattice  \
	   4.727486978767153   -2.363743489383575    0.000000000000000  \
	  -0.000000000000000    4.094123819672498    0.000000000000000  \
	   0.000000000000000    0.000000000000000   40.000000000000000 
lattice-minimize  \
	dirUpdateScheme      L-BFGS \
	linminMethod         DirUpdateRecommended \
	nIterations          0 \
	history              15 \
	knormThreshold       0 \
	energyDiffThreshold  1e-06 \
	nEnergyDiff          2 \
	alphaTstart          1 \
	alphaTmin            1e-10 \
	updateTestStepSize   yes \
	alphaTreduceFactor   0.1 \
	alphaTincreaseFactor 3 \
	nAlphaAdjustMax      3 \
	wolfeEnergy          0.0001 \
	wolfeGradient        0.9 \
	fdTest               no
lcao-params -1 1e-06 1e-05
pcm-variant GLSSA13
spintype z-spin
subspace-rotation-factor 1 yes
symmetries automatic
symmetry-threshold 0.0001



---------- Setting up symmetries ----------

Found 24 point-group symmetries of the bravais lattice
Found 24 space-group symmetries with basis
Applied RMS atom displacement 0 bohrs to make symmetries exact.

---------- Initializing the Grid ----------
R = 
[      18.9099     -9.45497            0  ]
[            0      16.3765            0  ]
[            0            0           40  ]
unit cell volume = 12387.1
G =
[   0.332269   0.191835         -0  ]
[          0   0.383671         -0  ]
[         -0         -0    0.15708  ]
Minimum fftbox size, Smin = [  80  80  164  ]
Chosen fftbox size, S = [  80  80  168  ]

---------- Exchange Correlation functional ----------
Initalized PBE GGA exchange.
Initalized PBE GGA correlation.

---------- Setting up pseudopotentials ----------
Width of ionic core gaussian charges (only for fluid interactions / plotting) set to 0

Reading pseudopotential file '/home/gridsan/aligho/DFT/build-Nov24/pseudopotentials/SG15/K_ONCV_PBE.upf':
  'K' pseudopotential, 'PBE' functional
  Generated using ONCVPSP code by D. R. Hamann
  Author: Martin Schlipf and Francois Gygi  Date: 150915.
  9 valence electrons, 3 orbitals, 6 projectors, 2222 radial grid points, with lMax = 2
  Transforming local potential to a uniform radial grid of dG=0.02 with 1489 points.
  Transforming nonlocal projectors to a uniform radial grid of dG=0.02 with 432 points.
    3S    l: 0   occupation:  2.0   eigenvalue: -1.298836
    3P    l: 1   occupation:  6.0   eigenvalue: -0.691386
    4S    l: 0   occupation:  1.0   eigenvalue: -0.085223
  Transforming atomic orbitals to a uniform radial grid of dG=0.02 with 432 points.
  Core radius for overlap checks: 2.06 bohrs.
  Reading pulay file /home/gridsan/aligho/DFT/build-Nov24/pseudopotentials/SG15/K_ONCV_PBE.pulay ... using dE_dnG = -1.597219e-05 computed for Ecut = 20.

Initialized 1 species with 1 total atoms.

Folded 1 k-points by 12x12x1 to 144 k-points.

---------- Setting up k-points, bands, fillings ----------
Reduced to 19 k-points under symmetry. 
Computing the number of bands and number of electrons
Calculating initial fillings.
nElectrons:   9.000000   nBands: 6   nStates: 38

----- Setting up reduced wavefunction bases (one per k-point) -----
average nbasis = 52924.021 , ideal nbasis = 52918.836

---------- Setting up coulomb interaction ----------
Initialized slab truncation along lattice direction 001

---------- Setting up 2D ewald sum ----------
Optimum gaussian width for ewald sums = 10.498040 bohr.
Real space sums over 289 unit cells with max indices [  8  8  0  ]
Reciprocal space sums over 81 terms with max indices [  4  4  0  ]

---------- Allocating electronic variables ----------
Initializing wave functions:  linear combination of atomic orbitals
Note: number of bands (6) exceeds available atomic orbitals (5)
K pseudo-atom occupations:   s ( 2 1 )  p ( 6 )
	FillingsUpdate:  mu: -0.100000000  nElectrons: 9.000000  magneticMoment: [ Abs: 1.00000  Tot: -1.00000 ]
LCAOMinimize: Iter:   0  F: -28.3817638623661495  |grad|_K:       -nan  alpha:  1.000e+00
LCAOMinimize: |grad|_K=-nan. Stopping ...


---- Citations for features of the code used in this run ----

   Software package:
      R. Sundararaman, K. Letchworth-Weaver, K.A. Schwarz, D. Gunceler, Y. Ozhabes and T.A. Arias, 'JDFTx: software for joint density-functional theory', SoftwareX 6, 278 (2017)

   gga-PBE exchange-correlation functional:
      J.P. Perdew, K. Burke and M. Ernzerhof, Phys. Rev. Lett. 77, 3865 (1996)

   Pseudopotentials:
      M Schlipf and F Gygi, Comput. Phys. Commun. 196, 36 (2015)

   Truncated Coulomb potentials:
      R. Sundararaman and T.A. Arias, Phys. Rev. B 87, 165122 (2013)

This list may not be complete. Please suggest additional citations or
report any other bugs at https://github.com/shankar1729/jdftx/issues

Initialization completed successfully at t[s]:     11.17


-------- Electronic minimization -----------
Will mix electronic density at each iteration.
	FillingsUpdate:  mu: -0.100000000  nElectrons: 9.000000  magneticMoment: [ Abs: 1.00000  Tot: -1.00000 ]
	FillingsUpdate:  mu: -0.100000000  nElectrons: 9.000000  magneticMoment: [ Abs: 1.00000  Tot: -1.00000 ]
SCF: Cycle:  0   F: -28.381912466854601   dF: -1.486e-04   |Residual|: 2.381e-03   |deigs|: 1.589e-01  t[s]:     19.16
	FillingsUpdate:  mu: -0.100000000  nElectrons: 9.000000  magneticMoment: [ Abs: 1.00318  Tot: -1.00000 ]
SCF: Cycle:  1   F: -28.381915264388148   dF: -2.798e-06   |Residual|: 7.406e-04   |deigs|: 1.829e-02  t[s]:     25.42
	FillingsUpdate:  mu: -0.100000000  nElectrons: 9.000000  magneticMoment: [ Abs: 1.00278  Tot: -1.00000 ]
SCF: Cycle:  2   F: -28.381916006259708   dF: -7.419e-07   |Residual|: 5.501e-04   |deigs|: 3.417e-03  t[s]:     31.81
	FillingsUpdate:  mu: -0.100000000  nElectrons: 9.000000  magneticMoment: [ Abs: 1.00325  Tot: -1.00000 ]
SCF: Cycle:  3   F: -28.381916463519730   dF: -4.573e-07   |Residual|: 4.103e-04   |deigs|: 1.181e-03  t[s]:     38.37
	FillingsUpdate:  mu: -0.100000000  nElectrons: 9.000000  magneticMoment: [ Abs: 1.00284  Tot: -1.00000 ]
SCF: Cycle:  4   F: -28.381916890838927   dF: -4.273e-07   |Residual|: 2.404e-04   |deigs|: 8.108e-04  t[s]:     45.02
	FillingsUpdate:  mu: -0.100000000  nElectrons: 9.000000  magneticMoment: [ Abs: 1.00273  Tot: -1.00000 ]
SCF: Cycle:  5   F: -28.381917285995137   dF: -3.952e-07   |Residual|: 1.531e-04   |deigs|: 4.717e-04  t[s]:     51.72
	FillingsUpdate:  mu: -0.100000000  nElectrons: 9.000000  magneticMoment: [ Abs: 1.00280  Tot: -1.00000 ]
SCF: Cycle:  6   F: -28.381917501028461   dF: -2.150e-07   |Residual|: 1.079e-04   |deigs|: 7.222e-04  t[s]:     58.59
	FillingsUpdate:  mu: -0.100000000  nElectrons: 9.000000  magneticMoment: [ Abs: 1.00290  Tot: -1.00000 ]
SCF: Cycle:  7   F: -28.381917643791638   dF: -1.428e-07   |Residual|: 7.910e-05   |deigs|: 3.663e-04  t[s]:     65.51
	FillingsUpdate:  mu: -0.100000000  nElectrons: 9.000000  magneticMoment: [ Abs: 1.00280  Tot: -1.00000 ]
SCF: Cycle:  8   F: -28.381917708919836   dF: -6.513e-08   |Residual|: 5.791e-05   |deigs|: 3.695e-04  t[s]:     72.54
	FillingsUpdate:  mu: -0.100000000  nElectrons: 9.000000  magneticMoment: [ Abs: 1.00284  Tot: -1.00000 ]
SCF: Cycle:  9   F: -28.381917717483979   dF: -8.564e-09   |Residual|: 4.837e-05   |deigs|: 2.206e-04  t[s]:     79.72
	FillingsUpdate:  mu: -0.100000000  nElectrons: 9.000000  magneticMoment: [ Abs: 1.00285  Tot: -1.00000 ]
SCF: Cycle: 10   F: -28.381917736919917   dF: -1.944e-08   |Residual|: 4.255e-05   |deigs|: 2.125e-04  t[s]:     86.99
	FillingsUpdate:  mu: -0.100000000  nElectrons: 9.000000  magneticMoment: [ Abs: 1.00288  Tot: -1.00000 ]
SCF: Cycle: 11   F: -28.381917685308075   dF: +5.161e-08   |Residual|: 3.725e-05   |deigs|: 1.085e-04  t[s]:     94.25
	FillingsUpdate:  mu: -0.100000000  nElectrons: 9.000000  magneticMoment: [ Abs: 1.00297  Tot: -1.00000 ]
SCF: Cycle: 12   F: -28.381917746641179   dF: -6.133e-08   |Residual|: 2.981e-05   |deigs|: 3.631e-04  t[s]:    101.61
	FillingsUpdate:  mu: -0.100000000  nElectrons: 9.000000  magneticMoment: [ Abs: 1.00292  Tot: -1.00000 ]
SCF: Cycle: 13   F: -28.381917751073054   dF: -4.432e-09   |Residual|: 2.628e-05   |deigs|: 8.302e-05  t[s]:    108.81
	FillingsUpdate:  mu: -0.100000000  nElectrons: 9.000000  magneticMoment: [ Abs: 1.00300  Tot: -1.00000 ]
SCF: Cycle: 14   F: -28.381917747537472   dF: +3.536e-09   |Residual|: 2.432e-05   |deigs|: 1.757e-04  t[s]:    116.12
	FillingsUpdate:  mu: -0.100000000  nElectrons: 9.000000  magneticMoment: [ Abs: 1.00309  Tot: -1.00000 ]
SCF: Cycle: 15   F: -28.381917756748610   dF: -9.211e-09   |Residual|: 2.220e-05   |deigs|: 1.367e-04  t[s]:    123.40
	FillingsUpdate:  mu: -0.100000000  nElectrons: 9.000000  magneticMoment: [ Abs: 1.00311  Tot: -1.00000 ]
SCF: Cycle: 16   F: -28.381917777472445   dF: -2.072e-08   |Residual|: 1.879e-05   |deigs|: 8.240e-05  t[s]:    130.67
	FillingsUpdate:  mu: -0.100000000  nElectrons: 9.000000  magneticMoment: [ Abs: 1.00303  Tot: -1.00000 ]
SCF: Cycle: 17   F: -28.381917787241711   dF: -9.769e-09   |Residual|: 1.476e-05   |deigs|: 4.836e-05  t[s]:    137.91
	FillingsUpdate:  mu: -0.100000000  nElectrons: 9.000000  magneticMoment: [ Abs: 1.00296  Tot: -1.00000 ]
SCF: Cycle: 18   F: -28.381917792829626   dF: -5.588e-09   |Residual|: 1.208e-05   |deigs|: 2.017e-04  t[s]:    145.16
SCF: Converged (|Delta E|<1.000000e-08 for 2 iters).


# Ionic positions in lattice coordinates:
ion K   0.000000000000000   0.000000000000000   0.000000000000000 0

# Forces in Lattice coordinates:
force K   0.000000000000000   0.000000000000000   0.000000000000000 0

# Energy components:
   Eewald =       -9.0240130501663280
       EH =       13.8003418453581457
     Eloc =      -36.0126828873912146
      Enl =       -2.7664833336893713
   Epulay =        0.0000000066859396
      Exc =       -4.2484519202212194
       KE =        9.8693715465944276
-------------------------------------
     Etot =      -28.3819177928296256
       TS =        0.0000000000000000
-------------------------------------
        F =      -28.3819177928296256

IonicMinimize: Iter:   0  F: -28.381917792829626  |grad|_K:  0.000e+00  t[s]:    145.56
IonicMinimize: Converged (|grad|_K<1.000000e-04).

#--- Lowdin population analysis ---
# oxidation-state K +0.001
# magnetic-moments K -0.999

End date and time: Sat Feb  5 23:35:30 2022  (Duration: 0-0:02:25.63)
Done!
