
*************** JDFTx 1.6.0 (git hash 42ebbcc2) ***************

Start date and time: Sat Feb  5 23:33:19 2022
Executable jdftx with command-line: -i Alkali.in
Running on hosts (process indices):  d-5-12-1 (0-18)
Divided in process groups (process indices):  0 (0)  1 (1)  2 (2)  3 (3)  4 (4)  5 (5)  6 (6)  7 (7)  8 (8)  9 (9)  10 (10)  11 (11)  12 (12)  13 (13)  14 (14)  15 (15)  16 (16)  17 (17)  18 (18)
Resource initialization completed at t[s]:      0.00
Run totals: 19 processes, 48 threads, 0 GPUs


Input parsed successfully to the following command list (including defaults):

basis kpoint-dependent
coords-type Lattice
core-overlap-check vector
coulomb-interaction Slab 001
davidson-band-ratio 1.1
dump End None
dump-name $INPUT.$VAR
elec-cutoff 20
elec-eigen-algo Davidson
elec-ex-corr gga-PBE
elec-initial-magnetization -0.820000 yes
elec-smearing Fermi 1e-05
electronic-minimize  \
	dirUpdateScheme      FletcherReeves \
	linminMethod         DirUpdateRecommended \
	nIterations          100 \
	history              15 \
	knormThreshold       0 \
	energyDiffThreshold  1e-08 \
	nEnergyDiff          2 \
	alphaTstart          1 \
	alphaTmin            1e-10 \
	updateTestStepSize   yes \
	alphaTreduceFactor   0.1 \
	alphaTincreaseFactor 3 \
	nAlphaAdjustMax      3 \
	wolfeEnergy          0.0001 \
	wolfeGradient        0.9 \
	fdTest               no
electronic-scf  \
	nIterations	10000 \
	energyDiffThreshold	1e-08 \
	residualThreshold	1e-07 \
	mixFraction	0.5 \
	qMetric	0.8 \
	history	10 \
	nEigSteps	2 \
	eigDiffThreshold	1e-08 \
	mixedVariable	Density \
	qKerker	0.8 \
	qKappa	-1 \
	verbose	no \
	mixFractionMag	1.5
exchange-regularization WignerSeitzTruncated
fluid None
fluid-ex-corr (null) lda-PZ
fluid-gummel-loop 10 1.000000e-05
fluid-minimize  \
	dirUpdateScheme      PolakRibiere \
	linminMethod         DirUpdateRecommended \
	nIterations          100 \
	history              15 \
	knormThreshold       0 \
	energyDiffThreshold  0 \
	nEnergyDiff          2 \
	alphaTstart          1 \
	alphaTmin            1e-10 \
	updateTestStepSize   yes \
	alphaTreduceFactor   0.1 \
	alphaTincreaseFactor 3 \
	nAlphaAdjustMax      3 \
	wolfeEnergy          0.0001 \
	wolfeGradient        0.9 \
	fdTest               no
fluid-solvent H2O 55.338 ScalarEOS \
	epsBulk 78.4 \
	pMol 0.92466 \
	epsInf 1.77 \
	Pvap 1.06736e-10 \
	sigmaBulk 4.62e-05 \
	Rvdw 2.61727 \
	Res 1.42 \
	tauNuc 343133 \
	poleEl 15 7 1
forces-output-coords Positions
ion K   0.000000000000000   0.000000000000000   0.000000000000000 0
ion-species SG15/$ID_ONCV_PBE.upf
ion-width 0
ionic-minimize  \
	dirUpdateScheme      L-BFGS \
	linminMethod         DirUpdateRecommended \
	nIterations          0 \
	history              15 \
	knormThreshold       0.0001 \
	energyDiffThreshold  1e-06 \
	nEnergyDiff          2 \
	alphaTstart          1 \
	alphaTmin            1e-10 \
	updateTestStepSize   yes \
	alphaTreduceFactor   0.1 \
	alphaTincreaseFactor 3 \
	nAlphaAdjustMax      3 \
	wolfeEnergy          0.0001 \
	wolfeGradient        0.9 \
	fdTest               no
kpoint   0.000000000000   0.000000000000   0.000000000000  1.00000000000000
kpoint-folding 12 12 1 
latt-move-scale 1 1 1
latt-scale 4 4 1 
lattice  \
	   4.727486978767153   -2.363743489383575    0.000000000000000  \
	  -0.000000000000000    4.094123819672498    0.000000000000000  \
	   0.000000000000000    0.000000000000000   40.000000000000000 
lattice-minimize  \
	dirUpdateScheme      L-BFGS \
	linminMethod         DirUpdateRecommended \
	nIterations          0 \
	history              15 \
	knormThreshold       0 \
	energyDiffThreshold  1e-06 \
	nEnergyDiff          2 \
	alphaTstart          1 \
	alphaTmin            1e-10 \
	updateTestStepSize   yes \
	alphaTreduceFactor   0.1 \
	alphaTincreaseFactor 3 \
	nAlphaAdjustMax      3 \
	wolfeEnergy          0.0001 \
	wolfeGradient        0.9 \
	fdTest               no
lcao-params -1 1e-06 1e-05
pcm-variant GLSSA13
spintype z-spin
subspace-rotation-factor 1 yes
symmetries automatic
symmetry-threshold 0.0001



---------- Setting up symmetries ----------

Found 24 point-group symmetries of the bravais lattice
Found 24 space-group symmetries with basis
Applied RMS atom displacement 0 bohrs to make symmetries exact.

---------- Initializing the Grid ----------
R = 
[      18.9099     -9.45497            0  ]
[            0      16.3765            0  ]
[            0            0           40  ]
unit cell volume = 12387.1
G =
[   0.332269   0.191835         -0  ]
[          0   0.383671         -0  ]
[         -0         -0    0.15708  ]
Minimum fftbox size, Smin = [  80  80  164  ]
Chosen fftbox size, S = [  80  80  168  ]

---------- Exchange Correlation functional ----------
Initalized PBE GGA exchange.
Initalized PBE GGA correlation.

---------- Setting up pseudopotentials ----------
Width of ionic core gaussian charges (only for fluid interactions / plotting) set to 0

Reading pseudopotential file '/home/gridsan/aligho/DFT/build-Nov24/pseudopotentials/SG15/K_ONCV_PBE.upf':
  'K' pseudopotential, 'PBE' functional
  Generated using ONCVPSP code by D. R. Hamann
  Author: Martin Schlipf and Francois Gygi  Date: 150915.
  9 valence electrons, 3 orbitals, 6 projectors, 2222 radial grid points, with lMax = 2
  Transforming local potential to a uniform radial grid of dG=0.02 with 1489 points.
  Transforming nonlocal projectors to a uniform radial grid of dG=0.02 with 432 points.
    3S    l: 0   occupation:  2.0   eigenvalue: -1.298836
    3P    l: 1   occupation:  6.0   eigenvalue: -0.691386
    4S    l: 0   occupation:  1.0   eigenvalue: -0.085223
  Transforming atomic orbitals to a uniform radial grid of dG=0.02 with 432 points.
  Core radius for overlap checks: 2.06 bohrs.
  Reading pulay file /home/gridsan/aligho/DFT/build-Nov24/pseudopotentials/SG15/K_ONCV_PBE.pulay ... using dE_dnG = -1.597219e-05 computed for Ecut = 20.

Initialized 1 species with 1 total atoms.

Folded 1 k-points by 12x12x1 to 144 k-points.

---------- Setting up k-points, bands, fillings ----------
Reduced to 19 k-points under symmetry. 
Computing the number of bands and number of electrons
Calculating initial fillings.
nElectrons:   9.000000   nBands: 6   nStates: 38

----- Setting up reduced wavefunction bases (one per k-point) -----
average nbasis = 52924.021 , ideal nbasis = 52918.836

---------- Setting up coulomb interaction ----------
Initialized slab truncation along lattice direction 001

---------- Setting up 2D ewald sum ----------
Optimum gaussian width for ewald sums = 10.498040 bohr.
Real space sums over 289 unit cells with max indices [  8  8  0  ]
Reciprocal space sums over 81 terms with max indices [  4  4  0  ]

---------- Allocating electronic variables ----------
Initializing wave functions:  linear combination of atomic orbitals
Note: number of bands (6) exceeds available atomic orbitals (5)
K pseudo-atom occupations:   s ( 2 1 )  p ( 6 )
	FillingsUpdate:  mu: -0.085120694  nElectrons: 9.000000  magneticMoment: [ Abs: 0.82000  Tot: -0.82000 ]
LCAOMinimize: Iter:   0  F: -28.3801113293199379  |grad|_K:  1.426e-06  alpha:  1.000e+00
	FillingsUpdate:  mu: -0.085120397  nElectrons: 9.000000  magneticMoment: [ Abs: 0.82000  Tot: -0.82000 ]
LCAOMinimize: Iter:   1  F: -28.3801113306993500  |grad|_K:  6.906e-09  alpha:  9.925e-01  linmin: -1.334e-03  cgtest:  4.282e-02  t[s]:     15.18
LCAOMinimize: Encountered beta<0, resetting CG.
LCAOMinimize: 	Wrong curvature in test step, increasing alphaT to 2.977356e+00.
	FillingsUpdate:  mu: -0.085120397  nElectrons: 9.000000  magneticMoment: [ Abs: 0.82000  Tot: -0.82000 ]
LCAOMinimize: Iter:   2  F: -28.3801113306994495  |grad|_K:  4.786e-11  alpha: -9.044e-01  linmin: -3.628e-02  cgtest:  7.429e-01  t[s]:     19.18
LCAOMinimize: Encountered beta<0, resetting CG.
LCAOMinimize: Converged (|Delta F|<1.000000e-06 for 2 iters).


---- Citations for features of the code used in this run ----

   Software package:
      R. Sundararaman, K. Letchworth-Weaver, K.A. Schwarz, D. Gunceler, Y. Ozhabes and T.A. Arias, 'JDFTx: software for joint density-functional theory', SoftwareX 6, 278 (2017)

   gga-PBE exchange-correlation functional:
      J.P. Perdew, K. Burke and M. Ernzerhof, Phys. Rev. Lett. 77, 3865 (1996)

   Pseudopotentials:
      M Schlipf and F Gygi, Comput. Phys. Commun. 196, 36 (2015)

   Truncated Coulomb potentials:
      R. Sundararaman and T.A. Arias, Phys. Rev. B 87, 165122 (2013)

This list may not be complete. Please suggest additional citations or
report any other bugs at https://github.com/shankar1729/jdftx/issues

Initialization completed successfully at t[s]:     19.45


-------- Electronic minimization -----------
Will mix electronic density at each iteration.
	FillingsUpdate:  mu: -0.085120397  nElectrons: 9.000000  magneticMoment: [ Abs: 0.82000  Tot: -0.82000 ]
	FillingsUpdate:  mu: -0.085254565  nElectrons: 9.000000  magneticMoment: [ Abs: 0.82000  Tot: -0.82000 ]
SCF: Cycle:  0   F: -28.380222590979539   dF: -1.113e-04   |Residual|: 1.815e-03   |deigs|: 1.653e-01  t[s]:     27.58
	FillingsUpdate:  mu: -0.085262406  nElectrons: 9.000000  magneticMoment: [ Abs: 0.82192  Tot: -0.82000 ]
SCF: Cycle:  1   F: -28.380224485269213   dF: -1.894e-06   |Residual|: 4.905e-04   |deigs|: 1.367e-02  t[s]:     34.02
	FillingsUpdate:  mu: -0.085196489  nElectrons: 9.000000  magneticMoment: [ Abs: 0.82184  Tot: -0.82000 ]
SCF: Cycle:  2   F: -28.380225100240246   dF: -6.150e-07   |Residual|: 3.370e-04   |deigs|: 1.753e-03  t[s]:     40.68
	FillingsUpdate:  mu: -0.085137427  nElectrons: 9.000000  magneticMoment: [ Abs: 0.82214  Tot: -0.82000 ]
SCF: Cycle:  3   F: -28.380225434972182   dF: -3.347e-07   |Residual|: 2.606e-04   |deigs|: 1.164e-03  t[s]:     47.36
	FillingsUpdate:  mu: -0.084974954  nElectrons: 9.000000  magneticMoment: [ Abs: 0.82201  Tot: -0.82000 ]
SCF: Cycle:  4   F: -28.380225573008669   dF: -1.380e-07   |Residual|: 1.608e-04   |deigs|: 5.839e-04  t[s]:     54.19
	FillingsUpdate:  mu: -0.084844662  nElectrons: 9.000000  magneticMoment: [ Abs: 0.82200  Tot: -0.82000 ]
SCF: Cycle:  5   F: -28.380225648451102   dF: -7.544e-08   |Residual|: 1.078e-04   |deigs|: 3.748e-04  t[s]:     61.07
	FillingsUpdate:  mu: -0.084803922  nElectrons: 9.000000  magneticMoment: [ Abs: 0.82194  Tot: -0.82000 ]
SCF: Cycle:  6   F: -28.380225791361315   dF: -1.429e-07   |Residual|: 7.573e-05   |deigs|: 3.446e-04  t[s]:     68.10
	FillingsUpdate:  mu: -0.084778643  nElectrons: 9.000000  magneticMoment: [ Abs: 0.82201  Tot: -0.82000 ]
SCF: Cycle:  7   F: -28.380225881468917   dF: -9.011e-08   |Residual|: 5.635e-05   |deigs|: 2.748e-04  t[s]:     75.18
	FillingsUpdate:  mu: -0.084764109  nElectrons: 9.000000  magneticMoment: [ Abs: 0.82198  Tot: -0.82000 ]
SCF: Cycle:  8   F: -28.380225915124171   dF: -3.366e-08   |Residual|: 4.798e-05   |deigs|: 1.570e-04  t[s]:     82.39
	FillingsUpdate:  mu: -0.084746229  nElectrons: 9.000000  magneticMoment: [ Abs: 0.82200  Tot: -0.82000 ]
SCF: Cycle:  9   F: -28.380225907581487   dF: +7.543e-09   |Residual|: 3.848e-05   |deigs|: 1.163e-04  t[s]:     89.73
	FillingsUpdate:  mu: -0.084719705  nElectrons: 9.000000  magneticMoment: [ Abs: 0.82201  Tot: -0.82000 ]
SCF: Cycle: 10   F: -28.380225843687917   dF: +6.389e-08   |Residual|: 3.242e-05   |deigs|: 1.129e-04  t[s]:     97.16
	FillingsUpdate:  mu: -0.084690446  nElectrons: 9.000000  magneticMoment: [ Abs: 0.82208  Tot: -0.82000 ]
SCF: Cycle: 11   F: -28.380225737536961   dF: +1.062e-07   |Residual|: 3.051e-05   |deigs|: 1.019e-04  t[s]:    104.66
	FillingsUpdate:  mu: -0.084664399  nElectrons: 9.000000  magneticMoment: [ Abs: 0.82222  Tot: -0.82000 ]
SCF: Cycle: 12   F: -28.380225482578702   dF: +2.550e-07   |Residual|: 2.740e-05   |deigs|: 7.957e-05  t[s]:    112.04
	FillingsUpdate:  mu: -0.084646140  nElectrons: 9.000000  magneticMoment: [ Abs: 0.82218  Tot: -0.82000 ]
SCF: Cycle: 13   F: -28.380225648765048   dF: -1.662e-07   |Residual|: 2.331e-05   |deigs|: 4.193e-05  t[s]:    119.35
	FillingsUpdate:  mu: -0.084607972  nElectrons: 9.000000  magneticMoment: [ Abs: 0.82215  Tot: -0.82000 ]
SCF: Cycle: 14   F: -28.380225848723072   dF: -2.000e-07   |Residual|: 2.094e-05   |deigs|: 4.888e-05  t[s]:    126.68
	FillingsUpdate:  mu: -0.084568923  nElectrons: 9.000000  magneticMoment: [ Abs: 0.82212  Tot: -0.82000 ]
SCF: Cycle: 15   F: -28.380225768977294   dF: +7.975e-08   |Residual|: 2.096e-05   |deigs|: 5.078e-05  t[s]:    133.94
	FillingsUpdate:  mu: -0.084554230  nElectrons: 9.000000  magneticMoment: [ Abs: 0.82206  Tot: -0.82000 ]
SCF: Cycle: 16   F: -28.380225806450106   dF: -3.747e-08   |Residual|: 1.956e-05   |deigs|: 2.410e-05  t[s]:    141.21
	FillingsUpdate:  mu: -0.084542520  nElectrons: 9.000000  magneticMoment: [ Abs: 0.82205  Tot: -0.82000 ]
SCF: Cycle: 17   F: -28.380225783306084   dF: +2.314e-08   |Residual|: 1.469e-05   |deigs|: 2.240e-05  t[s]:    148.65
	FillingsUpdate:  mu: -0.084528439  nElectrons: 9.000000  magneticMoment: [ Abs: 0.82203  Tot: -0.82000 ]
SCF: Cycle: 18   F: -28.380225905694438   dF: -1.224e-07   |Residual|: 1.022e-05   |deigs|: 1.497e-05  t[s]:    156.10
	FillingsUpdate:  mu: -0.084523712  nElectrons: 9.000000  magneticMoment: [ Abs: 0.82202  Tot: -0.82000 ]
SCF: Cycle: 19   F: -28.380226009331821   dF: -1.036e-07   |Residual|: 7.712e-06   |deigs|: 1.033e-05  t[s]:    162.96
	FillingsUpdate:  mu: -0.084519494  nElectrons: 9.000000  magneticMoment: [ Abs: 0.82201  Tot: -0.82000 ]
SCF: Cycle: 20   F: -28.380226015567871   dF: -6.236e-09   |Residual|: 5.718e-06   |deigs|: 1.210e-05  t[s]:    169.80
	FillingsUpdate:  mu: -0.084518628  nElectrons: 9.000000  magneticMoment: [ Abs: 0.82200  Tot: -0.82000 ]
SCF: Cycle: 21   F: -28.380226030126636   dF: -1.456e-08   |Residual|: 4.044e-06   |deigs|: 1.425e-05  t[s]:    177.20
	FillingsUpdate:  mu: -0.084516974  nElectrons: 9.000000  magneticMoment: [ Abs: 0.82200  Tot: -0.82000 ]
SCF: Cycle: 22   F: -28.380226045925756   dF: -1.580e-08   |Residual|: 2.864e-06   |deigs|: 1.710e-05  t[s]:    184.49
	FillingsUpdate:  mu: -0.084515826  nElectrons: 9.000000  magneticMoment: [ Abs: 0.82199  Tot: -0.82000 ]
SCF: Cycle: 23   F: -28.380226048869837   dF: -2.944e-09   |Residual|: 2.013e-06   |deigs|: 1.993e-05  t[s]:    191.52
	FillingsUpdate:  mu: -0.084514555  nElectrons: 9.000000  magneticMoment: [ Abs: 0.82199  Tot: -0.82000 ]
SCF: Cycle: 24   F: -28.380226050995102   dF: -2.125e-09   |Residual|: 1.246e-06   |deigs|: 2.225e-05  t[s]:    198.91
SCF: Converged (|Delta E|<1.000000e-08 for 2 iters).


# Ionic positions in lattice coordinates:
ion K   0.000000000000000   0.000000000000000   0.000000000000000 0

# Forces in Lattice coordinates:
force K   0.000000000000000   0.000000000000000   0.000000000000000 0

# Energy components:
   Eewald =       -9.0240130501663280
       EH =       13.7863795091321020
     Eloc =      -35.9975365124622755
      Enl =       -2.7667545434289327
   Epulay =        0.0000000066859396
      Exc =       -4.2450378226198318
       KE =        9.8667366242549370
-------------------------------------
     Etot =      -28.3802257886043954
       TS =        0.0000002623907074
-------------------------------------
        F =      -28.3802260509951019

IonicMinimize: Iter:   0  F: -28.380226050995102  |grad|_K:  0.000e+00  t[s]:    199.32
IonicMinimize: Converged (|grad|_K<1.000000e-04).

#--- Lowdin population analysis ---
# oxidation-state K +0.001
# magnetic-moments K -0.819

End date and time: Sat Feb  5 23:36:39 2022  (Duration: 0-0:03:19.38)
Done!
