
*************** JDFTx 1.6.0 (git hash 42ebbcc2) ***************

Start date and time: Sat Feb  5 23:51:52 2022
Executable jdftx with command-line: -i Alkali.in
Running on hosts (process indices):  d-4-7-2 (0-18)
Divided in process groups (process indices):  0 (0)  1 (1)  2 (2)  3 (3)  4 (4)  5 (5)  6 (6)  7 (7)  8 (8)  9 (9)  10 (10)  11 (11)  12 (12)  13 (13)  14 (14)  15 (15)  16 (16)  17 (17)  18 (18)
Resource initialization completed at t[s]:      0.00
Run totals: 19 processes, 48 threads, 0 GPUs


Input parsed successfully to the following command list (including defaults):

basis kpoint-dependent
coords-type Lattice
core-overlap-check vector
coulomb-interaction Slab 001
davidson-band-ratio 1.1
dump End None
dump-name $INPUT.$VAR
elec-cutoff 20
elec-eigen-algo Davidson
elec-ex-corr gga-PBE
elec-initial-magnetization 0.600000 yes
elec-smearing Fermi 1e-05
electronic-minimize  \
	dirUpdateScheme      FletcherReeves \
	linminMethod         DirUpdateRecommended \
	nIterations          100 \
	history              15 \
	knormThreshold       0 \
	energyDiffThreshold  1e-08 \
	nEnergyDiff          2 \
	alphaTstart          1 \
	alphaTmin            1e-10 \
	updateTestStepSize   yes \
	alphaTreduceFactor   0.1 \
	alphaTincreaseFactor 3 \
	nAlphaAdjustMax      3 \
	wolfeEnergy          0.0001 \
	wolfeGradient        0.9 \
	fdTest               no
electronic-scf  \
	nIterations	10000 \
	energyDiffThreshold	1e-08 \
	residualThreshold	1e-07 \
	mixFraction	0.5 \
	qMetric	0.8 \
	history	10 \
	nEigSteps	2 \
	eigDiffThreshold	1e-08 \
	mixedVariable	Density \
	qKerker	0.8 \
	qKappa	-1 \
	verbose	no \
	mixFractionMag	1.5
exchange-regularization WignerSeitzTruncated
fluid None
fluid-ex-corr (null) lda-PZ
fluid-gummel-loop 10 1.000000e-05
fluid-minimize  \
	dirUpdateScheme      PolakRibiere \
	linminMethod         DirUpdateRecommended \
	nIterations          100 \
	history              15 \
	knormThreshold       0 \
	energyDiffThreshold  0 \
	nEnergyDiff          2 \
	alphaTstart          1 \
	alphaTmin            1e-10 \
	updateTestStepSize   yes \
	alphaTreduceFactor   0.1 \
	alphaTincreaseFactor 3 \
	nAlphaAdjustMax      3 \
	wolfeEnergy          0.0001 \
	wolfeGradient        0.9 \
	fdTest               no
fluid-solvent H2O 55.338 ScalarEOS \
	epsBulk 78.4 \
	pMol 0.92466 \
	epsInf 1.77 \
	Pvap 1.06736e-10 \
	sigmaBulk 4.62e-05 \
	Rvdw 2.61727 \
	Res 1.42 \
	tauNuc 343133 \
	poleEl 15 7 1
forces-output-coords Positions
ion K   0.000000000000000   0.000000000000000   0.000000000000000 0
ion-species SG15/$ID_ONCV_PBE.upf
ion-width 0
ionic-minimize  \
	dirUpdateScheme      L-BFGS \
	linminMethod         DirUpdateRecommended \
	nIterations          0 \
	history              15 \
	knormThreshold       0.0001 \
	energyDiffThreshold  1e-06 \
	nEnergyDiff          2 \
	alphaTstart          1 \
	alphaTmin            1e-10 \
	updateTestStepSize   yes \
	alphaTreduceFactor   0.1 \
	alphaTincreaseFactor 3 \
	nAlphaAdjustMax      3 \
	wolfeEnergy          0.0001 \
	wolfeGradient        0.9 \
	fdTest               no
kpoint   0.000000000000   0.000000000000   0.000000000000  1.00000000000000
kpoint-folding 12 12 1 
latt-move-scale 1 1 1
latt-scale 4 4 1 
lattice  \
	   4.727486978767153   -2.363743489383575    0.000000000000000  \
	  -0.000000000000000    4.094123819672498    0.000000000000000  \
	   0.000000000000000    0.000000000000000   40.000000000000000 
lattice-minimize  \
	dirUpdateScheme      L-BFGS \
	linminMethod         DirUpdateRecommended \
	nIterations          0 \
	history              15 \
	knormThreshold       0 \
	energyDiffThreshold  1e-06 \
	nEnergyDiff          2 \
	alphaTstart          1 \
	alphaTmin            1e-10 \
	updateTestStepSize   yes \
	alphaTreduceFactor   0.1 \
	alphaTincreaseFactor 3 \
	nAlphaAdjustMax      3 \
	wolfeEnergy          0.0001 \
	wolfeGradient        0.9 \
	fdTest               no
lcao-params -1 1e-06 1e-05
pcm-variant GLSSA13
spintype z-spin
subspace-rotation-factor 1 yes
symmetries automatic
symmetry-threshold 0.0001



---------- Setting up symmetries ----------

Found 24 point-group symmetries of the bravais lattice
Found 24 space-group symmetries with basis
Applied RMS atom displacement 0 bohrs to make symmetries exact.

---------- Initializing the Grid ----------
R = 
[      18.9099     -9.45497            0  ]
[            0      16.3765            0  ]
[            0            0           40  ]
unit cell volume = 12387.1
G =
[   0.332269   0.191835         -0  ]
[          0   0.383671         -0  ]
[         -0         -0    0.15708  ]
Minimum fftbox size, Smin = [  80  80  164  ]
Chosen fftbox size, S = [  80  80  168  ]

---------- Exchange Correlation functional ----------
Initalized PBE GGA exchange.
Initalized PBE GGA correlation.

---------- Setting up pseudopotentials ----------
Width of ionic core gaussian charges (only for fluid interactions / plotting) set to 0

Reading pseudopotential file '/home/gridsan/aligho/DFT/build-Nov24/pseudopotentials/SG15/K_ONCV_PBE.upf':
  'K' pseudopotential, 'PBE' functional
  Generated using ONCVPSP code by D. R. Hamann
  Author: Martin Schlipf and Francois Gygi  Date: 150915.
  9 valence electrons, 3 orbitals, 6 projectors, 2222 radial grid points, with lMax = 2
  Transforming local potential to a uniform radial grid of dG=0.02 with 1489 points.
  Transforming nonlocal projectors to a uniform radial grid of dG=0.02 with 432 points.
    3S    l: 0   occupation:  2.0   eigenvalue: -1.298836
    3P    l: 1   occupation:  6.0   eigenvalue: -0.691386
    4S    l: 0   occupation:  1.0   eigenvalue: -0.085223
  Transforming atomic orbitals to a uniform radial grid of dG=0.02 with 432 points.
  Core radius for overlap checks: 2.06 bohrs.
  Reading pulay file /home/gridsan/aligho/DFT/build-Nov24/pseudopotentials/SG15/K_ONCV_PBE.pulay ... using dE_dnG = -1.597219e-05 computed for Ecut = 20.

Initialized 1 species with 1 total atoms.

Folded 1 k-points by 12x12x1 to 144 k-points.

---------- Setting up k-points, bands, fillings ----------
Reduced to 19 k-points under symmetry. 
Computing the number of bands and number of electrons
Calculating initial fillings.
nElectrons:   9.000000   nBands: 6   nStates: 38

----- Setting up reduced wavefunction bases (one per k-point) -----
average nbasis = 52924.021 , ideal nbasis = 52918.836

---------- Setting up coulomb interaction ----------
Initialized slab truncation along lattice direction 001

---------- Setting up 2D ewald sum ----------
Optimum gaussian width for ewald sums = 10.498040 bohr.
Real space sums over 289 unit cells with max indices [  8  8  0  ]
Reciprocal space sums over 81 terms with max indices [  4  4  0  ]

---------- Allocating electronic variables ----------
Initializing wave functions:  linear combination of atomic orbitals
Note: number of bands (6) exceeds available atomic orbitals (5)
K pseudo-atom occupations:   s ( 2 1 )  p ( 6 )
	FillingsUpdate:  mu: -0.085806292  nElectrons: 9.000000  magneticMoment: [ Abs: 0.60000  Tot: +0.60000 ]
LCAOMinimize: Iter:   0  F: -28.3788226285187939  |grad|_K:  2.660e-06  alpha:  1.000e+00
	FillingsUpdate:  mu: -0.085805734  nElectrons: 9.000000  magneticMoment: [ Abs: 0.60000  Tot: +0.60000 ]
LCAOMinimize: Iter:   1  F: -28.3788226333143818  |grad|_K:  1.238e-08  alpha:  9.907e-01  linmin: -1.595e-03  cgtest:  1.348e-01  t[s]:     15.09
LCAOMinimize: Encountered beta<0, resetting CG.
	FillingsUpdate:  mu: -0.085805734  nElectrons: 9.000000  magneticMoment: [ Abs: 0.60000  Tot: +0.60000 ]
LCAOMinimize: Iter:   2  F: -28.3788226333145310  |grad|_K:  8.108e-09  alpha:  3.447e-01  linmin: -1.247e-02  cgtest:  1.000e+00  t[s]:     19.08
LCAOMinimize: Encountered beta<0, resetting CG.
LCAOMinimize: Converged (|Delta F|<1.000000e-06 for 2 iters).


---- Citations for features of the code used in this run ----

   Software package:
      R. Sundararaman, K. Letchworth-Weaver, K.A. Schwarz, D. Gunceler, Y. Ozhabes and T.A. Arias, 'JDFTx: software for joint density-functional theory', SoftwareX 6, 278 (2017)

   gga-PBE exchange-correlation functional:
      J.P. Perdew, K. Burke and M. Ernzerhof, Phys. Rev. Lett. 77, 3865 (1996)

   Pseudopotentials:
      M Schlipf and F Gygi, Comput. Phys. Commun. 196, 36 (2015)

   Truncated Coulomb potentials:
      R. Sundararaman and T.A. Arias, Phys. Rev. B 87, 165122 (2013)

This list may not be complete. Please suggest additional citations or
report any other bugs at https://github.com/shankar1729/jdftx/issues

Initialization completed successfully at t[s]:     19.34


-------- Electronic minimization -----------
Will mix electronic density at each iteration.
	FillingsUpdate:  mu: -0.085805734  nElectrons: 9.000000  magneticMoment: [ Abs: 0.60000  Tot: +0.60000 ]
	FillingsUpdate:  mu: -0.085900305  nElectrons: 9.000000  magneticMoment: [ Abs: 0.60000  Tot: +0.60000 ]
SCF: Cycle:  0   F: -28.378909188452653   dF: -8.656e-05   |Residual|: 1.307e-03   |deigs|: 1.713e-01  t[s]:     27.41
	FillingsUpdate:  mu: -0.085911224  nElectrons: 9.000000  magneticMoment: [ Abs: 0.60109  Tot: +0.60000 ]
SCF: Cycle:  1   F: -28.378910422809628   dF: -1.234e-06   |Residual|: 3.348e-04   |deigs|: 9.229e-03  t[s]:     33.86
	FillingsUpdate:  mu: -0.085893501  nElectrons: 9.000000  magneticMoment: [ Abs: 0.60117  Tot: +0.60000 ]
SCF: Cycle:  2   F: -28.378910706567311   dF: -2.838e-07   |Residual|: 1.861e-04   |deigs|: 1.626e-03  t[s]:     40.38
	FillingsUpdate:  mu: -0.085885838  nElectrons: 9.000000  magneticMoment: [ Abs: 0.60138  Tot: +0.60000 ]
SCF: Cycle:  3   F: -28.378910888552372   dF: -1.820e-07   |Residual|: 1.345e-04   |deigs|: 3.756e-04  t[s]:     46.97
	FillingsUpdate:  mu: -0.085860529  nElectrons: 9.000000  magneticMoment: [ Abs: 0.60135  Tot: +0.60000 ]
SCF: Cycle:  4   F: -28.378911044575119   dF: -1.560e-07   |Residual|: 1.013e-04   |deigs|: 4.442e-04  t[s]:     53.70
	FillingsUpdate:  mu: -0.085829781  nElectrons: 9.000000  magneticMoment: [ Abs: 0.60138  Tot: +0.60000 ]
SCF: Cycle:  5   F: -28.378911146317940   dF: -1.017e-07   |Residual|: 7.009e-05   |deigs|: 2.527e-04  t[s]:     60.59
	FillingsUpdate:  mu: -0.085796233  nElectrons: 9.000000  magneticMoment: [ Abs: 0.60134  Tot: +0.60000 ]
SCF: Cycle:  6   F: -28.378911206611715   dF: -6.029e-08   |Residual|: 5.203e-05   |deigs|: 3.032e-04  t[s]:     67.59
	FillingsUpdate:  mu: -0.085774437  nElectrons: 9.000000  magneticMoment: [ Abs: 0.60134  Tot: +0.60000 ]
SCF: Cycle:  7   F: -28.378911255570397   dF: -4.896e-08   |Residual|: 4.293e-05   |deigs|: 5.635e-04  t[s]:     74.62
	FillingsUpdate:  mu: -0.085760004  nElectrons: 9.000000  magneticMoment: [ Abs: 0.60135  Tot: +0.60000 ]
SCF: Cycle:  8   F: -28.378911292734763   dF: -3.716e-08   |Residual|: 3.697e-05   |deigs|: 3.375e-04  t[s]:     81.76
	FillingsUpdate:  mu: -0.085741734  nElectrons: 9.000000  magneticMoment: [ Abs: 0.60134  Tot: +0.60000 ]
SCF: Cycle:  9   F: -28.378911318455110   dF: -2.572e-08   |Residual|: 2.886e-05   |deigs|: 2.153e-04  t[s]:     89.02
	FillingsUpdate:  mu: -0.085730355  nElectrons: 9.000000  magneticMoment: [ Abs: 0.60135  Tot: +0.60000 ]
SCF: Cycle: 10   F: -28.378911322260684   dF: -3.806e-09   |Residual|: 2.414e-05   |deigs|: 1.688e-04  t[s]:     96.43
	FillingsUpdate:  mu: -0.085718069  nElectrons: 9.000000  magneticMoment: [ Abs: 0.60138  Tot: +0.60000 ]
SCF: Cycle: 11   F: -28.378911303458079   dF: +1.880e-08   |Residual|: 2.173e-05   |deigs|: 1.414e-04  t[s]:    103.80
	FillingsUpdate:  mu: -0.085698004  nElectrons: 9.000000  magneticMoment: [ Abs: 0.60146  Tot: +0.60000 ]
SCF: Cycle: 12   F: -28.378911092585909   dF: +2.109e-07   |Residual|: 1.992e-05   |deigs|: 1.132e-04  t[s]:    111.21
	FillingsUpdate:  mu: -0.085674089  nElectrons: 9.000000  magneticMoment: [ Abs: 0.60149  Tot: +0.60000 ]
SCF: Cycle: 13   F: -28.378911219133204   dF: -1.265e-07   |Residual|: 1.922e-05   |deigs|: 7.811e-05  t[s]:    118.11
	FillingsUpdate:  mu: -0.085642006  nElectrons: 9.000000  magneticMoment: [ Abs: 0.60151  Tot: +0.60000 ]
SCF: Cycle: 14   F: -28.378911165709475   dF: +5.342e-08   |Residual|: 1.873e-05   |deigs|: 5.407e-05  t[s]:    125.37
	FillingsUpdate:  mu: -0.085607015  nElectrons: 9.000000  magneticMoment: [ Abs: 0.60151  Tot: +0.60000 ]
SCF: Cycle: 15   F: -28.378911223349633   dF: -5.764e-08   |Residual|: 1.593e-05   |deigs|: 4.688e-05  t[s]:    132.76
	FillingsUpdate:  mu: -0.085580163  nElectrons: 9.000000  magneticMoment: [ Abs: 0.60143  Tot: +0.60000 ]
SCF: Cycle: 16   F: -28.378911292420788   dF: -6.907e-08   |Residual|: 1.337e-05   |deigs|: 3.385e-05  t[s]:    140.12
	FillingsUpdate:  mu: -0.085575668  nElectrons: 9.000000  magneticMoment: [ Abs: 0.60140  Tot: +0.60000 ]
SCF: Cycle: 17   F: -28.378911293816735   dF: -1.396e-09   |Residual|: 1.047e-05   |deigs|: 1.236e-05  t[s]:    147.48
	FillingsUpdate:  mu: -0.085570040  nElectrons: 9.000000  magneticMoment: [ Abs: 0.60140  Tot: +0.60000 ]
SCF: Cycle: 18   F: -28.378911337879408   dF: -4.406e-08   |Residual|: 6.821e-06   |deigs|: 1.281e-05  t[s]:    154.86
	FillingsUpdate:  mu: -0.085566199  nElectrons: 9.000000  magneticMoment: [ Abs: 0.60136  Tot: +0.60000 ]
SCF: Cycle: 19   F: -28.378911354346844   dF: -1.647e-08   |Residual|: 4.911e-06   |deigs|: 5.368e-06  t[s]:    161.58
	FillingsUpdate:  mu: -0.085565664  nElectrons: 9.000000  magneticMoment: [ Abs: 0.60136  Tot: +0.60000 ]
SCF: Cycle: 20   F: -28.378911383594506   dF: -2.925e-08   |Residual|: 3.735e-06   |deigs|: 2.323e-06  t[s]:    168.75
	FillingsUpdate:  mu: -0.085566688  nElectrons: 9.000000  magneticMoment: [ Abs: 0.60136  Tot: +0.60000 ]
SCF: Cycle: 21   F: -28.378911383970888   dF: -3.764e-10   |Residual|: 3.012e-06   |deigs|: 3.064e-06  t[s]:    175.46
	FillingsUpdate:  mu: -0.085566355  nElectrons: 9.000000  magneticMoment: [ Abs: 0.60136  Tot: +0.60000 ]
SCF: Cycle: 22   F: -28.378911381611143   dF: +2.360e-09   |Residual|: 2.392e-06   |deigs|: 1.940e-06  t[s]:    182.81
	FillingsUpdate:  mu: -0.085566234  nElectrons: 9.000000  magneticMoment: [ Abs: 0.60136  Tot: +0.60000 ]
SCF: Cycle: 23   F: -28.378911387437224   dF: -5.826e-09   |Residual|: 1.679e-06   |deigs|: 2.329e-06  t[s]:    189.71
	FillingsUpdate:  mu: -0.085565996  nElectrons: 9.000000  magneticMoment: [ Abs: 0.60135  Tot: +0.60000 ]
SCF: Cycle: 24   F: -28.378911386209140   dF: +1.228e-09   |Residual|: 1.373e-06   |deigs|: 3.296e-06  t[s]:    196.48
	FillingsUpdate:  mu: -0.085565786  nElectrons: 9.000000  magneticMoment: [ Abs: 0.60135  Tot: +0.60000 ]
SCF: Cycle: 25   F: -28.378911387411172   dF: -1.202e-09   |Residual|: 9.832e-07   |deigs|: 4.615e-06  t[s]:    203.34
	FillingsUpdate:  mu: -0.085566706  nElectrons: 9.000000  magneticMoment: [ Abs: 0.60135  Tot: +0.60000 ]
SCF: Cycle: 26   F: -28.378911388450437   dF: -1.039e-09   |Residual|: 4.411e-07   |deigs|: 6.262e-06  t[s]:    210.14
SCF: Converged (|Delta E|<1.000000e-08 for 2 iters).


# Ionic positions in lattice coordinates:
ion K   0.000000000000000   0.000000000000000   0.000000000000000 0

# Forces in Lattice coordinates:
force K  -0.000000000000000   0.000000000000000   0.000000000000000 0

# Energy components:
   Eewald =       -9.0240130501663280
       EH =       13.7725245886056431
     Eloc =      -35.9826411188282052
      Enl =       -2.7670444344110572
   Epulay =        0.0000000066859396
      Exc =       -4.2420758123702953
       KE =        9.8643400160444266
-------------------------------------
     Etot =      -28.3789098044398749
       TS =        0.0000015840105612
-------------------------------------
        F =      -28.3789113884504367

IonicMinimize: Iter:   0  F: -28.378911388450437  |grad|_K:  0.000e+00  t[s]:    210.54
IonicMinimize: Converged (|grad|_K<1.000000e-04).

#--- Lowdin population analysis ---
# oxidation-state K +0.001
# magnetic-moments K +0.600

End date and time: Sat Feb  5 23:55:22 2022  (Duration: 0-0:03:30.60)
Done!
