
*************** JDFTx 1.6.0 (git hash 42ebbcc2) ***************

Start date and time: Sat Feb  5 23:39:45 2022
Executable jdftx with command-line: -i Alkali.in
Running on hosts (process indices):  d-16-12-1 (0-18)
Divided in process groups (process indices):  0 (0)  1 (1)  2 (2)  3 (3)  4 (4)  5 (5)  6 (6)  7 (7)  8 (8)  9 (9)  10 (10)  11 (11)  12 (12)  13 (13)  14 (14)  15 (15)  16 (16)  17 (17)  18 (18)
Resource initialization completed at t[s]:      0.00
Run totals: 19 processes, 48 threads, 0 GPUs


Input parsed successfully to the following command list (including defaults):

basis kpoint-dependent
coords-type Lattice
core-overlap-check vector
coulomb-interaction Slab 001
davidson-band-ratio 1.1
dump End None
dump-name $INPUT.$VAR
elec-cutoff 20
elec-eigen-algo Davidson
elec-ex-corr gga-PBE
elec-initial-magnetization -0.280000 yes
elec-smearing Fermi 1e-05
electronic-minimize  \
	dirUpdateScheme      FletcherReeves \
	linminMethod         DirUpdateRecommended \
	nIterations          100 \
	history              15 \
	knormThreshold       0 \
	energyDiffThreshold  1e-08 \
	nEnergyDiff          2 \
	alphaTstart          1 \
	alphaTmin            1e-10 \
	updateTestStepSize   yes \
	alphaTreduceFactor   0.1 \
	alphaTincreaseFactor 3 \
	nAlphaAdjustMax      3 \
	wolfeEnergy          0.0001 \
	wolfeGradient        0.9 \
	fdTest               no
electronic-scf  \
	nIterations	10000 \
	energyDiffThreshold	1e-08 \
	residualThreshold	1e-07 \
	mixFraction	0.5 \
	qMetric	0.8 \
	history	10 \
	nEigSteps	2 \
	eigDiffThreshold	1e-08 \
	mixedVariable	Density \
	qKerker	0.8 \
	qKappa	-1 \
	verbose	no \
	mixFractionMag	1.5
exchange-regularization WignerSeitzTruncated
fluid None
fluid-ex-corr (null) lda-PZ
fluid-gummel-loop 10 1.000000e-05
fluid-minimize  \
	dirUpdateScheme      PolakRibiere \
	linminMethod         DirUpdateRecommended \
	nIterations          100 \
	history              15 \
	knormThreshold       0 \
	energyDiffThreshold  0 \
	nEnergyDiff          2 \
	alphaTstart          1 \
	alphaTmin            1e-10 \
	updateTestStepSize   yes \
	alphaTreduceFactor   0.1 \
	alphaTincreaseFactor 3 \
	nAlphaAdjustMax      3 \
	wolfeEnergy          0.0001 \
	wolfeGradient        0.9 \
	fdTest               no
fluid-solvent H2O 55.338 ScalarEOS \
	epsBulk 78.4 \
	pMol 0.92466 \
	epsInf 1.77 \
	Pvap 1.06736e-10 \
	sigmaBulk 4.62e-05 \
	Rvdw 2.61727 \
	Res 1.42 \
	tauNuc 343133 \
	poleEl 15 7 1
forces-output-coords Positions
ion K   0.000000000000000   0.000000000000000   0.000000000000000 0
ion-species SG15/$ID_ONCV_PBE.upf
ion-width 0
ionic-minimize  \
	dirUpdateScheme      L-BFGS \
	linminMethod         DirUpdateRecommended \
	nIterations          0 \
	history              15 \
	knormThreshold       0.0001 \
	energyDiffThreshold  1e-06 \
	nEnergyDiff          2 \
	alphaTstart          1 \
	alphaTmin            1e-10 \
	updateTestStepSize   yes \
	alphaTreduceFactor   0.1 \
	alphaTincreaseFactor 3 \
	nAlphaAdjustMax      3 \
	wolfeEnergy          0.0001 \
	wolfeGradient        0.9 \
	fdTest               no
kpoint   0.000000000000   0.000000000000   0.000000000000  1.00000000000000
kpoint-folding 12 12 1 
latt-move-scale 1 1 1
latt-scale 4 4 1 
lattice  \
	   4.727486978767153   -2.363743489383575    0.000000000000000  \
	  -0.000000000000000    4.094123819672498    0.000000000000000  \
	   0.000000000000000    0.000000000000000   40.000000000000000 
lattice-minimize  \
	dirUpdateScheme      L-BFGS \
	linminMethod         DirUpdateRecommended \
	nIterations          0 \
	history              15 \
	knormThreshold       0 \
	energyDiffThreshold  1e-06 \
	nEnergyDiff          2 \
	alphaTstart          1 \
	alphaTmin            1e-10 \
	updateTestStepSize   yes \
	alphaTreduceFactor   0.1 \
	alphaTincreaseFactor 3 \
	nAlphaAdjustMax      3 \
	wolfeEnergy          0.0001 \
	wolfeGradient        0.9 \
	fdTest               no
lcao-params -1 1e-06 1e-05
pcm-variant GLSSA13
spintype z-spin
subspace-rotation-factor 1 yes
symmetries automatic
symmetry-threshold 0.0001



---------- Setting up symmetries ----------

Found 24 point-group symmetries of the bravais lattice
Found 24 space-group symmetries with basis
Applied RMS atom displacement 0 bohrs to make symmetries exact.

---------- Initializing the Grid ----------
R = 
[      18.9099     -9.45497            0  ]
[            0      16.3765            0  ]
[            0            0           40  ]
unit cell volume = 12387.1
G =
[   0.332269   0.191835         -0  ]
[          0   0.383671         -0  ]
[         -0         -0    0.15708  ]
Minimum fftbox size, Smin = [  80  80  164  ]
Chosen fftbox size, S = [  80  80  168  ]

---------- Exchange Correlation functional ----------
Initalized PBE GGA exchange.
Initalized PBE GGA correlation.

---------- Setting up pseudopotentials ----------
Width of ionic core gaussian charges (only for fluid interactions / plotting) set to 0

Reading pseudopotential file '/home/gridsan/aligho/DFT/build-Nov24/pseudopotentials/SG15/K_ONCV_PBE.upf':
  'K' pseudopotential, 'PBE' functional
  Generated using ONCVPSP code by D. R. Hamann
  Author: Martin Schlipf and Francois Gygi  Date: 150915.
  9 valence electrons, 3 orbitals, 6 projectors, 2222 radial grid points, with lMax = 2
  Transforming local potential to a uniform radial grid of dG=0.02 with 1489 points.
  Transforming nonlocal projectors to a uniform radial grid of dG=0.02 with 432 points.
    3S    l: 0   occupation:  2.0   eigenvalue: -1.298836
    3P    l: 1   occupation:  6.0   eigenvalue: -0.691386
    4S    l: 0   occupation:  1.0   eigenvalue: -0.085223
  Transforming atomic orbitals to a uniform radial grid of dG=0.02 with 432 points.
  Core radius for overlap checks: 2.06 bohrs.
  Reading pulay file /home/gridsan/aligho/DFT/build-Nov24/pseudopotentials/SG15/K_ONCV_PBE.pulay ... using dE_dnG = -1.597219e-05 computed for Ecut = 20.

Initialized 1 species with 1 total atoms.

Folded 1 k-points by 12x12x1 to 144 k-points.

---------- Setting up k-points, bands, fillings ----------
Reduced to 19 k-points under symmetry. 
Computing the number of bands and number of electrons
Calculating initial fillings.
nElectrons:   9.000000   nBands: 6   nStates: 38

----- Setting up reduced wavefunction bases (one per k-point) -----
average nbasis = 52924.021 , ideal nbasis = 52918.836

---------- Setting up coulomb interaction ----------
Initialized slab truncation along lattice direction 001

---------- Setting up 2D ewald sum ----------
Optimum gaussian width for ewald sums = 10.498040 bohr.
Real space sums over 289 unit cells with max indices [  8  8  0  ]
Reciprocal space sums over 81 terms with max indices [  4  4  0  ]

---------- Allocating electronic variables ----------
Initializing wave functions:  linear combination of atomic orbitals
Note: number of bands (6) exceeds available atomic orbitals (5)
K pseudo-atom occupations:   s ( 2 1 )  p ( 6 )
	FillingsUpdate:  mu: -0.085784471  nElectrons: 9.000000  magneticMoment: [ Abs: 0.28000  Tot: -0.28000 ]
LCAOMinimize: Iter:   0  F: -28.3776667060714907  |grad|_K:  3.677e-06  alpha:  1.000e+00
	FillingsUpdate:  mu: -0.085783694  nElectrons: 9.000000  magneticMoment: [ Abs: 0.28000  Tot: -0.28000 ]
LCAOMinimize: Iter:   1  F: -28.3776667152171065  |grad|_K:  1.570e-08  alpha:  9.889e-01  linmin: -5.842e-03  cgtest:  2.619e-01  t[s]:     15.33
LCAOMinimize: Encountered beta<0, resetting CG.
	FillingsUpdate:  mu: -0.085783694  nElectrons: 9.000000  magneticMoment: [ Abs: 0.28000  Tot: -0.28000 ]
LCAOMinimize: Iter:   2  F: -28.3776667152171207  |grad|_K:  6.817e-09  alpha:  5.659e-01  linmin: -1.509e-02  cgtest:  1.000e+00  t[s]:     19.40
LCAOMinimize: Encountered beta<0, resetting CG.
LCAOMinimize: Converged (|Delta F|<1.000000e-06 for 2 iters).


---- Citations for features of the code used in this run ----

   Software package:
      R. Sundararaman, K. Letchworth-Weaver, K.A. Schwarz, D. Gunceler, Y. Ozhabes and T.A. Arias, 'JDFTx: software for joint density-functional theory', SoftwareX 6, 278 (2017)

   gga-PBE exchange-correlation functional:
      J.P. Perdew, K. Burke and M. Ernzerhof, Phys. Rev. Lett. 77, 3865 (1996)

   Pseudopotentials:
      M Schlipf and F Gygi, Comput. Phys. Commun. 196, 36 (2015)

   Truncated Coulomb potentials:
      R. Sundararaman and T.A. Arias, Phys. Rev. B 87, 165122 (2013)

This list may not be complete. Please suggest additional citations or
report any other bugs at https://github.com/shankar1729/jdftx/issues

Initialization completed successfully at t[s]:     19.67


-------- Electronic minimization -----------
Will mix electronic density at each iteration.
	FillingsUpdate:  mu: -0.085783694  nElectrons: 9.000000  magneticMoment: [ Abs: 0.28000  Tot: -0.28000 ]
	FillingsUpdate:  mu: -0.085855739  nElectrons: 9.000000  magneticMoment: [ Abs: 0.28000  Tot: -0.28000 ]
SCF: Cycle:  0   F: -28.377747018466241   dF: -8.030e-05   |Residual|: 7.497e-04   |deigs|: 1.755e-01  t[s]:     27.96
	FillingsUpdate:  mu: -0.085883162  nElectrons: 9.000000  magneticMoment: [ Abs: 0.28039  Tot: -0.28000 ]
SCF: Cycle:  1   F: -28.377747961334723   dF: -9.429e-07   |Residual|: 3.672e-04   |deigs|: 4.949e-03  t[s]:     34.52
	FillingsUpdate:  mu: -0.085913842  nElectrons: 9.000000  magneticMoment: [ Abs: 0.28049  Tot: -0.28000 ]
SCF: Cycle:  2   F: -28.377748216416972   dF: -2.551e-07   |Residual|: 2.837e-04   |deigs|: 1.609e-03  t[s]:     41.16
	FillingsUpdate:  mu: -0.085963635  nElectrons: 9.000000  magneticMoment: [ Abs: 0.28066  Tot: -0.28000 ]
SCF: Cycle:  3   F: -28.377748426382460   dF: -2.100e-07   |Residual|: 2.097e-04   |deigs|: 6.145e-04  t[s]:     47.91
	FillingsUpdate:  mu: -0.086036050  nElectrons: 9.000000  magneticMoment: [ Abs: 0.28065  Tot: -0.28000 ]
SCF: Cycle:  4   F: -28.377748740280200   dF: -3.139e-07   |Residual|: 1.323e-04   |deigs|: 6.867e-04  t[s]:     54.80
	FillingsUpdate:  mu: -0.086086067  nElectrons: 9.000000  magneticMoment: [ Abs: 0.28080  Tot: -0.28000 ]
SCF: Cycle:  5   F: -28.377748933347785   dF: -1.931e-07   |Residual|: 8.916e-05   |deigs|: 8.622e-04  t[s]:     61.79
	FillingsUpdate:  mu: -0.086087921  nElectrons: 9.000000  magneticMoment: [ Abs: 0.28074  Tot: -0.28000 ]
SCF: Cycle:  6   F: -28.377749051829376   dF: -1.185e-07   |Residual|: 5.800e-05   |deigs|: 6.129e-04  t[s]:     68.93
	FillingsUpdate:  mu: -0.086085338  nElectrons: 9.000000  magneticMoment: [ Abs: 0.28070  Tot: -0.28000 ]
SCF: Cycle:  7   F: -28.377749127470874   dF: -7.564e-08   |Residual|: 4.152e-05   |deigs|: 3.373e-04  t[s]:     76.13
	FillingsUpdate:  mu: -0.086074030  nElectrons: 9.000000  magneticMoment: [ Abs: 0.28067  Tot: -0.28000 ]
SCF: Cycle:  8   F: -28.377749165293480   dF: -3.782e-08   |Residual|: 3.107e-05   |deigs|: 1.718e-04  t[s]:     83.42
	FillingsUpdate:  mu: -0.086054495  nElectrons: 9.000000  magneticMoment: [ Abs: 0.28061  Tot: -0.28000 ]
SCF: Cycle:  9   F: -28.377749189106144   dF: -2.381e-08   |Residual|: 2.221e-05   |deigs|: 1.143e-04  t[s]:     90.77
	FillingsUpdate:  mu: -0.086042922  nElectrons: 9.000000  magneticMoment: [ Abs: 0.28061  Tot: -0.28000 ]
SCF: Cycle: 10   F: -28.377749191610228   dF: -2.504e-09   |Residual|: 2.022e-05   |deigs|: 5.061e-05  t[s]:     98.30
	FillingsUpdate:  mu: -0.086027355  nElectrons: 9.000000  magneticMoment: [ Abs: 0.28069  Tot: -0.28000 ]
SCF: Cycle: 11   F: -28.377749160787726   dF: +3.082e-08   |Residual|: 1.843e-05   |deigs|: 4.146e-05  t[s]:    105.93
	FillingsUpdate:  mu: -0.086009877  nElectrons: 9.000000  magneticMoment: [ Abs: 0.28072  Tot: -0.28000 ]
SCF: Cycle: 12   F: -28.377749171338646   dF: -1.055e-08   |Residual|: 1.640e-05   |deigs|: 6.469e-05  t[s]:    113.47
	FillingsUpdate:  mu: -0.085991170  nElectrons: 9.000000  magneticMoment: [ Abs: 0.28066  Tot: -0.28000 ]
SCF: Cycle: 13   F: -28.377749160701427   dF: +1.064e-08   |Residual|: 1.485e-05   |deigs|: 9.122e-05  t[s]:    120.92
	FillingsUpdate:  mu: -0.085979291  nElectrons: 9.000000  magneticMoment: [ Abs: 0.28065  Tot: -0.28000 ]
SCF: Cycle: 14   F: -28.377749124185719   dF: +3.652e-08   |Residual|: 1.353e-05   |deigs|: 9.264e-05  t[s]:    128.52
	FillingsUpdate:  mu: -0.085962137  nElectrons: 9.000000  magneticMoment: [ Abs: 0.28065  Tot: -0.28000 ]
SCF: Cycle: 15   F: -28.377749160948134   dF: -3.676e-08   |Residual|: 1.199e-05   |deigs|: 9.518e-05  t[s]:    136.02
	FillingsUpdate:  mu: -0.085942449  nElectrons: 9.000000  magneticMoment: [ Abs: 0.28063  Tot: -0.28000 ]
SCF: Cycle: 16   F: -28.377749179948488   dF: -1.900e-08   |Residual|: 1.136e-05   |deigs|: 9.097e-05  t[s]:    142.91
	FillingsUpdate:  mu: -0.085930147  nElectrons: 9.000000  magneticMoment: [ Abs: 0.28062  Tot: -0.28000 ]
SCF: Cycle: 17   F: -28.377749122535711   dF: +5.741e-08   |Residual|: 1.039e-05   |deigs|: 6.507e-05  t[s]:    150.33
	FillingsUpdate:  mu: -0.085921347  nElectrons: 9.000000  magneticMoment: [ Abs: 0.28060  Tot: -0.28000 ]
SCF: Cycle: 18   F: -28.377749223910950   dF: -1.014e-07   |Residual|: 7.856e-06   |deigs|: 4.261e-05  t[s]:    157.33
	FillingsUpdate:  mu: -0.085916472  nElectrons: 9.000000  magneticMoment: [ Abs: 0.28059  Tot: -0.28000 ]
SCF: Cycle: 19   F: -28.377749217069407   dF: +6.842e-09   |Residual|: 5.990e-06   |deigs|: 2.374e-05  t[s]:    164.18
	FillingsUpdate:  mu: -0.085912585  nElectrons: 9.000000  magneticMoment: [ Abs: 0.28060  Tot: -0.28000 ]
SCF: Cycle: 20   F: -28.377749230217482   dF: -1.315e-08   |Residual|: 4.465e-06   |deigs|: 1.365e-05  t[s]:    171.70
	FillingsUpdate:  mu: -0.085911467  nElectrons: 9.000000  magneticMoment: [ Abs: 0.28060  Tot: -0.28000 ]
SCF: Cycle: 21   F: -28.377749236191931   dF: -5.974e-09   |Residual|: 3.401e-06   |deigs|: 7.026e-06  t[s]:    178.75
	FillingsUpdate:  mu: -0.085910548  nElectrons: 9.000000  magneticMoment: [ Abs: 0.28059  Tot: -0.28000 ]
SCF: Cycle: 22   F: -28.377749237602547   dF: -1.411e-09   |Residual|: 2.399e-06   |deigs|: 3.722e-06  t[s]:    185.77
SCF: Converged (|Delta E|<1.000000e-08 for 2 iters).


# Ionic positions in lattice coordinates:
ion K   0.000000000000000   0.000000000000000   0.000000000000000 0

# Forces in Lattice coordinates:
force K   0.000000000000000   0.000000000000000   0.000000000000000 0

# Energy components:
   Eewald =       -9.0240130501663280
       EH =       13.7584466542233752
     Eloc =      -35.9675252917573403
      Enl =       -2.7673144514627657
   Epulay =        0.0000000066859396
      Exc =       -4.2392845561960009
       KE =        9.8619422535632424
-------------------------------------
     Etot =      -28.3777484351098792
       TS =        0.0000008024926694
-------------------------------------
        F =      -28.3777492376025471

IonicMinimize: Iter:   0  F: -28.377749237602547  |grad|_K:  0.000e+00  t[s]:    186.19
IonicMinimize: Converged (|grad|_K<1.000000e-04).

#--- Lowdin population analysis ---
# oxidation-state K +0.001
# magnetic-moments K -0.280

End date and time: Sat Feb  5 23:42:51 2022  (Duration: 0-0:03:06.25)
Done!
