
*************** JDFTx 1.6.0 (git hash 42ebbcc2) ***************

Start date and time: Sat Feb  5 23:52:38 2022
Executable jdftx with command-line: -i Alkali.in
Running on hosts (process indices):  d-6-13-4 (0-18)
Divided in process groups (process indices):  0 (0)  1 (1)  2 (2)  3 (3)  4 (4)  5 (5)  6 (6)  7 (7)  8 (8)  9 (9)  10 (10)  11 (11)  12 (12)  13 (13)  14 (14)  15 (15)  16 (16)  17 (17)  18 (18)
Resource initialization completed at t[s]:      0.00
Run totals: 19 processes, 48 threads, 0 GPUs


Input parsed successfully to the following command list (including defaults):

basis kpoint-dependent
coords-type Lattice
core-overlap-check vector
coulomb-interaction Slab 001
davidson-band-ratio 1.1
dump End None
dump-name $INPUT.$VAR
elec-cutoff 20
elec-eigen-algo Davidson
elec-ex-corr gga-PBE
elec-initial-magnetization 0.740000 yes
elec-smearing Fermi 1e-05
electronic-minimize  \
	dirUpdateScheme      FletcherReeves \
	linminMethod         DirUpdateRecommended \
	nIterations          100 \
	history              15 \
	knormThreshold       0 \
	energyDiffThreshold  1e-08 \
	nEnergyDiff          2 \
	alphaTstart          1 \
	alphaTmin            1e-10 \
	updateTestStepSize   yes \
	alphaTreduceFactor   0.1 \
	alphaTincreaseFactor 3 \
	nAlphaAdjustMax      3 \
	wolfeEnergy          0.0001 \
	wolfeGradient        0.9 \
	fdTest               no
electronic-scf  \
	nIterations	10000 \
	energyDiffThreshold	1e-08 \
	residualThreshold	1e-07 \
	mixFraction	0.5 \
	qMetric	0.8 \
	history	10 \
	nEigSteps	2 \
	eigDiffThreshold	1e-08 \
	mixedVariable	Density \
	qKerker	0.8 \
	qKappa	-1 \
	verbose	no \
	mixFractionMag	1.5
exchange-regularization WignerSeitzTruncated
fluid None
fluid-ex-corr (null) lda-PZ
fluid-gummel-loop 10 1.000000e-05
fluid-minimize  \
	dirUpdateScheme      PolakRibiere \
	linminMethod         DirUpdateRecommended \
	nIterations          100 \
	history              15 \
	knormThreshold       0 \
	energyDiffThreshold  0 \
	nEnergyDiff          2 \
	alphaTstart          1 \
	alphaTmin            1e-10 \
	updateTestStepSize   yes \
	alphaTreduceFactor   0.1 \
	alphaTincreaseFactor 3 \
	nAlphaAdjustMax      3 \
	wolfeEnergy          0.0001 \
	wolfeGradient        0.9 \
	fdTest               no
fluid-solvent H2O 55.338 ScalarEOS \
	epsBulk 78.4 \
	pMol 0.92466 \
	epsInf 1.77 \
	Pvap 1.06736e-10 \
	sigmaBulk 4.62e-05 \
	Rvdw 2.61727 \
	Res 1.42 \
	tauNuc 343133 \
	poleEl 15 7 1
forces-output-coords Positions
ion K   0.000000000000000   0.000000000000000   0.000000000000000 0
ion-species SG15/$ID_ONCV_PBE.upf
ion-width 0
ionic-minimize  \
	dirUpdateScheme      L-BFGS \
	linminMethod         DirUpdateRecommended \
	nIterations          0 \
	history              15 \
	knormThreshold       0.0001 \
	energyDiffThreshold  1e-06 \
	nEnergyDiff          2 \
	alphaTstart          1 \
	alphaTmin            1e-10 \
	updateTestStepSize   yes \
	alphaTreduceFactor   0.1 \
	alphaTincreaseFactor 3 \
	nAlphaAdjustMax      3 \
	wolfeEnergy          0.0001 \
	wolfeGradient        0.9 \
	fdTest               no
kpoint   0.000000000000   0.000000000000   0.000000000000  1.00000000000000
kpoint-folding 12 12 1 
latt-move-scale 1 1 1
latt-scale 4 4 1 
lattice  \
	   4.727486978767153   -2.363743489383575    0.000000000000000  \
	  -0.000000000000000    4.094123819672498    0.000000000000000  \
	   0.000000000000000    0.000000000000000   40.000000000000000 
lattice-minimize  \
	dirUpdateScheme      L-BFGS \
	linminMethod         DirUpdateRecommended \
	nIterations          0 \
	history              15 \
	knormThreshold       0 \
	energyDiffThreshold  1e-06 \
	nEnergyDiff          2 \
	alphaTstart          1 \
	alphaTmin            1e-10 \
	updateTestStepSize   yes \
	alphaTreduceFactor   0.1 \
	alphaTincreaseFactor 3 \
	nAlphaAdjustMax      3 \
	wolfeEnergy          0.0001 \
	wolfeGradient        0.9 \
	fdTest               no
lcao-params -1 1e-06 1e-05
pcm-variant GLSSA13
spintype z-spin
subspace-rotation-factor 1 yes
symmetries automatic
symmetry-threshold 0.0001



---------- Setting up symmetries ----------

Found 24 point-group symmetries of the bravais lattice
Found 24 space-group symmetries with basis
Applied RMS atom displacement 0 bohrs to make symmetries exact.

---------- Initializing the Grid ----------
R = 
[      18.9099     -9.45497            0  ]
[            0      16.3765            0  ]
[            0            0           40  ]
unit cell volume = 12387.1
G =
[   0.332269   0.191835         -0  ]
[          0   0.383671         -0  ]
[         -0         -0    0.15708  ]
Minimum fftbox size, Smin = [  80  80  164  ]
Chosen fftbox size, S = [  80  80  168  ]

---------- Exchange Correlation functional ----------
Initalized PBE GGA exchange.
Initalized PBE GGA correlation.

---------- Setting up pseudopotentials ----------
Width of ionic core gaussian charges (only for fluid interactions / plotting) set to 0

Reading pseudopotential file '/home/gridsan/aligho/DFT/build-Nov24/pseudopotentials/SG15/K_ONCV_PBE.upf':
  'K' pseudopotential, 'PBE' functional
  Generated using ONCVPSP code by D. R. Hamann
  Author: Martin Schlipf and Francois Gygi  Date: 150915.
  9 valence electrons, 3 orbitals, 6 projectors, 2222 radial grid points, with lMax = 2
  Transforming local potential to a uniform radial grid of dG=0.02 with 1489 points.
  Transforming nonlocal projectors to a uniform radial grid of dG=0.02 with 432 points.
    3S    l: 0   occupation:  2.0   eigenvalue: -1.298836
    3P    l: 1   occupation:  6.0   eigenvalue: -0.691386
    4S    l: 0   occupation:  1.0   eigenvalue: -0.085223
  Transforming atomic orbitals to a uniform radial grid of dG=0.02 with 432 points.
  Core radius for overlap checks: 2.06 bohrs.
  Reading pulay file /home/gridsan/aligho/DFT/build-Nov24/pseudopotentials/SG15/K_ONCV_PBE.pulay ... using dE_dnG = -1.597219e-05 computed for Ecut = 20.

Initialized 1 species with 1 total atoms.

Folded 1 k-points by 12x12x1 to 144 k-points.

---------- Setting up k-points, bands, fillings ----------
Reduced to 19 k-points under symmetry. 
Computing the number of bands and number of electrons
Calculating initial fillings.
nElectrons:   9.000000   nBands: 6   nStates: 38

----- Setting up reduced wavefunction bases (one per k-point) -----
average nbasis = 52924.021 , ideal nbasis = 52918.836

---------- Setting up coulomb interaction ----------
Initialized slab truncation along lattice direction 001

---------- Setting up 2D ewald sum ----------
Optimum gaussian width for ewald sums = 10.498040 bohr.
Real space sums over 289 unit cells with max indices [  8  8  0  ]
Reciprocal space sums over 81 terms with max indices [  4  4  0  ]

---------- Allocating electronic variables ----------
Initializing wave functions:  linear combination of atomic orbitals
Note: number of bands (6) exceeds available atomic orbitals (5)
K pseudo-atom occupations:   s ( 2 1 )  p ( 6 )
	FillingsUpdate:  mu: -0.085572254  nElectrons: 9.000000  magneticMoment: [ Abs: 0.74000  Tot: +0.74000 ]
LCAOMinimize: Iter:   0  F: -28.3796004847434844  |grad|_K:  1.960e-06  alpha:  1.000e+00
	FillingsUpdate:  mu: -0.085571837  nElectrons: 9.000000  magneticMoment: [ Abs: 0.74000  Tot: +0.74000 ]
LCAOMinimize: Iter:   1  F: -28.3796004873477550  |grad|_K:  9.246e-09  alpha:  9.914e-01  linmin: -3.657e-03  cgtest:  1.273e-01  t[s]:     15.19
LCAOMinimize: Encountered beta<0, resetting CG.
	FillingsUpdate:  mu: -0.085571837  nElectrons: 9.000000  magneticMoment: [ Abs: 0.74000  Tot: +0.74000 ]
LCAOMinimize: Iter:   2  F: -28.3796004873478189  |grad|_K:  4.255e-09  alpha:  5.392e-01  linmin: -3.640e-02  cgtest:  1.000e+00  t[s]:     19.21
LCAOMinimize: Encountered beta<0, resetting CG.
LCAOMinimize: Converged (|Delta F|<1.000000e-06 for 2 iters).


---- Citations for features of the code used in this run ----

   Software package:
      R. Sundararaman, K. Letchworth-Weaver, K.A. Schwarz, D. Gunceler, Y. Ozhabes and T.A. Arias, 'JDFTx: software for joint density-functional theory', SoftwareX 6, 278 (2017)

   gga-PBE exchange-correlation functional:
      J.P. Perdew, K. Burke and M. Ernzerhof, Phys. Rev. Lett. 77, 3865 (1996)

   Pseudopotentials:
      M Schlipf and F Gygi, Comput. Phys. Commun. 196, 36 (2015)

   Truncated Coulomb potentials:
      R. Sundararaman and T.A. Arias, Phys. Rev. B 87, 165122 (2013)

This list may not be complete. Please suggest additional citations or
report any other bugs at https://github.com/shankar1729/jdftx/issues

Initialization completed successfully at t[s]:     19.48


-------- Electronic minimization -----------
Will mix electronic density at each iteration.
	FillingsUpdate:  mu: -0.085571837  nElectrons: 9.000000  magneticMoment: [ Abs: 0.74000  Tot: +0.74000 ]
	FillingsUpdate:  mu: -0.085682862  nElectrons: 9.000000  magneticMoment: [ Abs: 0.74000  Tot: +0.74000 ]
SCF: Cycle:  0   F: -28.379700064916477   dF: -9.958e-05   |Residual|: 1.617e-03   |deigs|: 1.677e-01  t[s]:     27.73
	FillingsUpdate:  mu: -0.085698017  nElectrons: 9.000000  magneticMoment: [ Abs: 0.74157  Tot: +0.74000 ]
SCF: Cycle:  1   F: -28.379701688697811   dF: -1.624e-06   |Residual|: 4.170e-04   |deigs|: 1.189e-02  t[s]:     34.25
	FillingsUpdate:  mu: -0.085648469  nElectrons: 9.000000  magneticMoment: [ Abs: 0.74157  Tot: +0.74000 ]
SCF: Cycle:  2   F: -28.379702157663296   dF: -4.690e-07   |Residual|: 2.632e-04   |deigs|: 1.856e-03  t[s]:     40.85
	FillingsUpdate:  mu: -0.085614085  nElectrons: 9.000000  magneticMoment: [ Abs: 0.74183  Tot: +0.74000 ]
SCF: Cycle:  3   F: -28.379702423518303   dF: -2.659e-07   |Residual|: 2.002e-04   |deigs|: 6.300e-04  t[s]:     47.50
	FillingsUpdate:  mu: -0.085522274  nElectrons: 9.000000  magneticMoment: [ Abs: 0.74176  Tot: +0.74000 ]
SCF: Cycle:  4   F: -28.379702607363821   dF: -1.838e-07   |Residual|: 1.347e-04   |deigs|: 4.343e-04  t[s]:     54.29
	FillingsUpdate:  mu: -0.085414783  nElectrons: 9.000000  magneticMoment: [ Abs: 0.74177  Tot: +0.74000 ]
SCF: Cycle:  5   F: -28.379702657918429   dF: -5.055e-08   |Residual|: 8.608e-05   |deigs|: 5.447e-04  t[s]:     61.33
	FillingsUpdate:  mu: -0.085371879  nElectrons: 9.000000  magneticMoment: [ Abs: 0.74171  Tot: +0.74000 ]
SCF: Cycle:  6   F: -28.379702732072865   dF: -7.415e-08   |Residual|: 6.548e-05   |deigs|: 3.376e-04  t[s]:     68.33
	FillingsUpdate:  mu: -0.085354227  nElectrons: 9.000000  magneticMoment: [ Abs: 0.74175  Tot: +0.74000 ]
SCF: Cycle:  7   F: -28.379702798326523   dF: -6.625e-08   |Residual|: 4.955e-05   |deigs|: 1.701e-04  t[s]:     75.47
	FillingsUpdate:  mu: -0.085336846  nElectrons: 9.000000  magneticMoment: [ Abs: 0.74173  Tot: +0.74000 ]
SCF: Cycle:  8   F: -28.379702838905299   dF: -4.058e-08   |Residual|: 4.301e-05   |deigs|: 1.242e-04  t[s]:     82.74
	FillingsUpdate:  mu: -0.085312311  nElectrons: 9.000000  magneticMoment: [ Abs: 0.74174  Tot: +0.74000 ]
SCF: Cycle:  9   F: -28.379702851611974   dF: -1.271e-08   |Residual|: 3.602e-05   |deigs|: 1.617e-04  t[s]:     90.09
	FillingsUpdate:  mu: -0.085293912  nElectrons: 9.000000  magneticMoment: [ Abs: 0.74176  Tot: +0.74000 ]
SCF: Cycle: 10   F: -28.379702823564219   dF: +2.805e-08   |Residual|: 2.970e-05   |deigs|: 1.454e-04  t[s]:     97.65
	FillingsUpdate:  mu: -0.085266252  nElectrons: 9.000000  magneticMoment: [ Abs: 0.74184  Tot: +0.74000 ]
SCF: Cycle: 11   F: -28.379702715931142   dF: +1.076e-07   |Residual|: 2.668e-05   |deigs|: 8.655e-05  t[s]:    105.12
	FillingsUpdate:  mu: -0.085241687  nElectrons: 9.000000  magneticMoment: [ Abs: 0.74193  Tot: +0.74000 ]
SCF: Cycle: 12   F: -28.379702510616902   dF: +2.053e-07   |Residual|: 2.454e-05   |deigs|: 1.005e-04  t[s]:    112.62
	FillingsUpdate:  mu: -0.085238925  nElectrons: 9.000000  magneticMoment: [ Abs: 0.74189  Tot: +0.74000 ]
SCF: Cycle: 13   F: -28.379702568930291   dF: -5.831e-08   |Residual|: 2.292e-05   |deigs|: 7.207e-05  t[s]:    119.96
	FillingsUpdate:  mu: -0.085202332  nElectrons: 9.000000  magneticMoment: [ Abs: 0.74190  Tot: +0.74000 ]
SCF: Cycle: 14   F: -28.379702853662042   dF: -2.847e-07   |Residual|: 1.984e-05   |deigs|: 8.532e-05  t[s]:    127.47
	FillingsUpdate:  mu: -0.085164716  nElectrons: 9.000000  magneticMoment: [ Abs: 0.74188  Tot: +0.74000 ]
SCF: Cycle: 15   F: -28.379702733515764   dF: +1.201e-07   |Residual|: 1.929e-05   |deigs|: 7.346e-05  t[s]:    134.57
	FillingsUpdate:  mu: -0.085139285  nElectrons: 9.000000  magneticMoment: [ Abs: 0.74179  Tot: +0.74000 ]
SCF: Cycle: 16   F: -28.379702793949800   dF: -6.043e-08   |Residual|: 1.827e-05   |deigs|: 5.153e-05  t[s]:    141.88
	FillingsUpdate:  mu: -0.085125022  nElectrons: 9.000000  magneticMoment: [ Abs: 0.74178  Tot: +0.74000 ]
SCF: Cycle: 17   F: -28.379702732220458   dF: +6.173e-08   |Residual|: 1.462e-05   |deigs|: 3.288e-05  t[s]:    149.32
	FillingsUpdate:  mu: -0.085112563  nElectrons: 9.000000  magneticMoment: [ Abs: 0.74177  Tot: +0.74000 ]
SCF: Cycle: 18   F: -28.379702793005492   dF: -6.079e-08   |Residual|: 1.070e-05   |deigs|: 2.072e-05  t[s]:    156.73
	FillingsUpdate:  mu: -0.085105812  nElectrons: 9.000000  magneticMoment: [ Abs: 0.74174  Tot: +0.74000 ]
SCF: Cycle: 19   F: -28.379702923036106   dF: -1.300e-07   |Residual|: 6.245e-06   |deigs|: 1.197e-05  t[s]:    163.95
	FillingsUpdate:  mu: -0.085105486  nElectrons: 9.000000  magneticMoment: [ Abs: 0.74175  Tot: +0.74000 ]
SCF: Cycle: 20   F: -28.379702937133015   dF: -1.410e-08   |Residual|: 4.023e-06   |deigs|: 6.965e-06  t[s]:    170.78
	FillingsUpdate:  mu: -0.085107003  nElectrons: 9.000000  magneticMoment: [ Abs: 0.74175  Tot: +0.74000 ]
SCF: Cycle: 21   F: -28.379702944686098   dF: -7.553e-09   |Residual|: 2.927e-06   |deigs|: 7.529e-06  t[s]:    178.14
	FillingsUpdate:  mu: -0.085106395  nElectrons: 9.000000  magneticMoment: [ Abs: 0.74174  Tot: +0.74000 ]
SCF: Cycle: 22   F: -28.379702944202936   dF: +4.832e-10   |Residual|: 2.084e-06   |deigs|: 8.518e-06  t[s]:    185.42
	FillingsUpdate:  mu: -0.085105455  nElectrons: 9.000000  magneticMoment: [ Abs: 0.74174  Tot: +0.74000 ]
SCF: Cycle: 23   F: -28.379702948575311   dF: -4.372e-09   |Residual|: 1.506e-06   |deigs|: 1.172e-05  t[s]:    192.77
	FillingsUpdate:  mu: -0.085103880  nElectrons: 9.000000  magneticMoment: [ Abs: 0.74174  Tot: +0.74000 ]
SCF: Cycle: 24   F: -28.379702949882930   dF: -1.308e-09   |Residual|: 9.753e-07   |deigs|: 1.457e-05  t[s]:    199.62
SCF: Converged (|Delta E|<1.000000e-08 for 2 iters).


# Ionic positions in lattice coordinates:
ion K   0.000000000000000   0.000000000000000   0.000000000000000 0

# Forces in Lattice coordinates:
force K   0.000000000000000  -0.000000000000000   0.000000000000000 0

# Energy components:
   Eewald =       -9.0240130501663280
       EH =       13.7808338845387048
     Eloc =      -35.9915716577474853
      Enl =       -2.7668817934827787
   Epulay =        0.0000000066859396
      Exc =       -4.2438464990959819
       KE =        9.8657764539380537
-------------------------------------
     Etot =      -28.3797026553298792
       TS =        0.0000002945530498
-------------------------------------
        F =      -28.3797029498829296

IonicMinimize: Iter:   0  F: -28.379702949882930  |grad|_K:  0.000e+00  t[s]:    200.04
IonicMinimize: Converged (|grad|_K<1.000000e-04).

#--- Lowdin population analysis ---
# oxidation-state K +0.001
# magnetic-moments K +0.740

End date and time: Sat Feb  5 23:55:58 2022  (Duration: 0-0:03:20.11)
Done!
