
*************** JDFTx 1.6.0 (git hash 42ebbcc2) ***************

Start date and time: Sat Feb  5 23:40:14 2022
Executable jdftx with command-line: -i Alkali.in
Running on hosts (process indices):  d-3-7-1 (0-18)
Divided in process groups (process indices):  0 (0)  1 (1)  2 (2)  3 (3)  4 (4)  5 (5)  6 (6)  7 (7)  8 (8)  9 (9)  10 (10)  11 (11)  12 (12)  13 (13)  14 (14)  15 (15)  16 (16)  17 (17)  18 (18)
Resource initialization completed at t[s]:      0.00
Run totals: 19 processes, 48 threads, 0 GPUs


Input parsed successfully to the following command list (including defaults):

basis kpoint-dependent
coords-type Lattice
core-overlap-check vector
coulomb-interaction Slab 001
davidson-band-ratio 1.1
dump End None
dump-name $INPUT.$VAR
elec-cutoff 20
elec-eigen-algo Davidson
elec-ex-corr gga-PBE
elec-initial-magnetization -0.180000 yes
elec-smearing Fermi 1e-05
electronic-minimize  \
	dirUpdateScheme      FletcherReeves \
	linminMethod         DirUpdateRecommended \
	nIterations          100 \
	history              15 \
	knormThreshold       0 \
	energyDiffThreshold  1e-08 \
	nEnergyDiff          2 \
	alphaTstart          1 \
	alphaTmin            1e-10 \
	updateTestStepSize   yes \
	alphaTreduceFactor   0.1 \
	alphaTincreaseFactor 3 \
	nAlphaAdjustMax      3 \
	wolfeEnergy          0.0001 \
	wolfeGradient        0.9 \
	fdTest               no
electronic-scf  \
	nIterations	10000 \
	energyDiffThreshold	1e-08 \
	residualThreshold	1e-07 \
	mixFraction	0.5 \
	qMetric	0.8 \
	history	10 \
	nEigSteps	2 \
	eigDiffThreshold	1e-08 \
	mixedVariable	Density \
	qKerker	0.8 \
	qKappa	-1 \
	verbose	no \
	mixFractionMag	1.5
exchange-regularization WignerSeitzTruncated
fluid None
fluid-ex-corr (null) lda-PZ
fluid-gummel-loop 10 1.000000e-05
fluid-minimize  \
	dirUpdateScheme      PolakRibiere \
	linminMethod         DirUpdateRecommended \
	nIterations          100 \
	history              15 \
	knormThreshold       0 \
	energyDiffThreshold  0 \
	nEnergyDiff          2 \
	alphaTstart          1 \
	alphaTmin            1e-10 \
	updateTestStepSize   yes \
	alphaTreduceFactor   0.1 \
	alphaTincreaseFactor 3 \
	nAlphaAdjustMax      3 \
	wolfeEnergy          0.0001 \
	wolfeGradient        0.9 \
	fdTest               no
fluid-solvent H2O 55.338 ScalarEOS \
	epsBulk 78.4 \
	pMol 0.92466 \
	epsInf 1.77 \
	Pvap 1.06736e-10 \
	sigmaBulk 4.62e-05 \
	Rvdw 2.61727 \
	Res 1.42 \
	tauNuc 343133 \
	poleEl 15 7 1
forces-output-coords Positions
ion K   0.000000000000000   0.000000000000000   0.000000000000000 0
ion-species SG15/$ID_ONCV_PBE.upf
ion-width 0
ionic-minimize  \
	dirUpdateScheme      L-BFGS \
	linminMethod         DirUpdateRecommended \
	nIterations          0 \
	history              15 \
	knormThreshold       0.0001 \
	energyDiffThreshold  1e-06 \
	nEnergyDiff          2 \
	alphaTstart          1 \
	alphaTmin            1e-10 \
	updateTestStepSize   yes \
	alphaTreduceFactor   0.1 \
	alphaTincreaseFactor 3 \
	nAlphaAdjustMax      3 \
	wolfeEnergy          0.0001 \
	wolfeGradient        0.9 \
	fdTest               no
kpoint   0.000000000000   0.000000000000   0.000000000000  1.00000000000000
kpoint-folding 12 12 1 
latt-move-scale 1 1 1
latt-scale 4 4 1 
lattice  \
	   4.727486978767153   -2.363743489383575    0.000000000000000  \
	  -0.000000000000000    4.094123819672498    0.000000000000000  \
	   0.000000000000000    0.000000000000000   40.000000000000000 
lattice-minimize  \
	dirUpdateScheme      L-BFGS \
	linminMethod         DirUpdateRecommended \
	nIterations          0 \
	history              15 \
	knormThreshold       0 \
	energyDiffThreshold  1e-06 \
	nEnergyDiff          2 \
	alphaTstart          1 \
	alphaTmin            1e-10 \
	updateTestStepSize   yes \
	alphaTreduceFactor   0.1 \
	alphaTincreaseFactor 3 \
	nAlphaAdjustMax      3 \
	wolfeEnergy          0.0001 \
	wolfeGradient        0.9 \
	fdTest               no
lcao-params -1 1e-06 1e-05
pcm-variant GLSSA13
spintype z-spin
subspace-rotation-factor 1 yes
symmetries automatic
symmetry-threshold 0.0001



---------- Setting up symmetries ----------

Found 24 point-group symmetries of the bravais lattice
Found 24 space-group symmetries with basis
Applied RMS atom displacement 0 bohrs to make symmetries exact.

---------- Initializing the Grid ----------
R = 
[      18.9099     -9.45497            0  ]
[            0      16.3765            0  ]
[            0            0           40  ]
unit cell volume = 12387.1
G =
[   0.332269   0.191835         -0  ]
[          0   0.383671         -0  ]
[         -0         -0    0.15708  ]
Minimum fftbox size, Smin = [  80  80  164  ]
Chosen fftbox size, S = [  80  80  168  ]

---------- Exchange Correlation functional ----------
Initalized PBE GGA exchange.
Initalized PBE GGA correlation.

---------- Setting up pseudopotentials ----------
Width of ionic core gaussian charges (only for fluid interactions / plotting) set to 0

Reading pseudopotential file '/home/gridsan/aligho/DFT/build-Nov24/pseudopotentials/SG15/K_ONCV_PBE.upf':
  'K' pseudopotential, 'PBE' functional
  Generated using ONCVPSP code by D. R. Hamann
  Author: Martin Schlipf and Francois Gygi  Date: 150915.
  9 valence electrons, 3 orbitals, 6 projectors, 2222 radial grid points, with lMax = 2
  Transforming local potential to a uniform radial grid of dG=0.02 with 1489 points.
  Transforming nonlocal projectors to a uniform radial grid of dG=0.02 with 432 points.
    3S    l: 0   occupation:  2.0   eigenvalue: -1.298836
    3P    l: 1   occupation:  6.0   eigenvalue: -0.691386
    4S    l: 0   occupation:  1.0   eigenvalue: -0.085223
  Transforming atomic orbitals to a uniform radial grid of dG=0.02 with 432 points.
  Core radius for overlap checks: 2.06 bohrs.
  Reading pulay file /home/gridsan/aligho/DFT/build-Nov24/pseudopotentials/SG15/K_ONCV_PBE.pulay ... using dE_dnG = -1.597219e-05 computed for Ecut = 20.

Initialized 1 species with 1 total atoms.

Folded 1 k-points by 12x12x1 to 144 k-points.

---------- Setting up k-points, bands, fillings ----------
Reduced to 19 k-points under symmetry. 
Computing the number of bands and number of electrons
Calculating initial fillings.
nElectrons:   9.000000   nBands: 6   nStates: 38

----- Setting up reduced wavefunction bases (one per k-point) -----
average nbasis = 52924.021 , ideal nbasis = 52918.836

---------- Setting up coulomb interaction ----------
Initialized slab truncation along lattice direction 001

---------- Setting up 2D ewald sum ----------
Optimum gaussian width for ewald sums = 10.498040 bohr.
Real space sums over 289 unit cells with max indices [  8  8  0  ]
Reciprocal space sums over 81 terms with max indices [  4  4  0  ]

---------- Allocating electronic variables ----------
Initializing wave functions:  linear combination of atomic orbitals
Note: number of bands (6) exceeds available atomic orbitals (5)
K pseudo-atom occupations:   s ( 2 1 )  p ( 6 )
	FillingsUpdate:  mu: -0.085896602  nElectrons: 9.000000  magneticMoment: [ Abs: 0.18000  Tot: -0.18000 ]
LCAOMinimize: Iter:   0  F: -28.3774810516329339  |grad|_K:  3.846e-06  alpha:  1.000e+00
	FillingsUpdate:  mu: -0.085895799  nElectrons: 9.000000  magneticMoment: [ Abs: 0.18000  Tot: -0.18000 ]
LCAOMinimize: Iter:   1  F: -28.3774810616361535  |grad|_K:  1.594e-08  alpha:  9.887e-01  linmin: -6.459e-03  cgtest:  2.830e-01  t[s]:     15.26
LCAOMinimize: Encountered beta<0, resetting CG.
LCAOMinimize: 	Step increased F by 5.684342e-14, reducing alpha to 4.687640e-02.
LCAOMinimize: 	Step increased F by 5.329071e-14, reducing alpha to 4.687640e-03.
LCAOMinimize: 	Step increased F by 9.237056e-14, reducing alpha to 4.687640e-04.
LCAOMinimize: 	Step failed to reduce F after 3 attempts. Quitting step.
LCAOMinimize: 	Undoing step.
LCAOMinimize: 	Step failed along negative gradient direction.
LCAOMinimize: Probably at roundoff error limit. (Stopping)


---- Citations for features of the code used in this run ----

   Software package:
      R. Sundararaman, K. Letchworth-Weaver, K.A. Schwarz, D. Gunceler, Y. Ozhabes and T.A. Arias, 'JDFTx: software for joint density-functional theory', SoftwareX 6, 278 (2017)

   gga-PBE exchange-correlation functional:
      J.P. Perdew, K. Burke and M. Ernzerhof, Phys. Rev. Lett. 77, 3865 (1996)

   Pseudopotentials:
      M Schlipf and F Gygi, Comput. Phys. Commun. 196, 36 (2015)

   Truncated Coulomb potentials:
      R. Sundararaman and T.A. Arias, Phys. Rev. B 87, 165122 (2013)

This list may not be complete. Please suggest additional citations or
report any other bugs at https://github.com/shankar1729/jdftx/issues

Initialization completed successfully at t[s]:     26.64


-------- Electronic minimization -----------
Will mix electronic density at each iteration.
	FillingsUpdate:  mu: -0.085895799  nElectrons: 9.000000  magneticMoment: [ Abs: 0.18000  Tot: -0.18000 ]
	FillingsUpdate:  mu: -0.085970797  nElectrons: 9.000000  magneticMoment: [ Abs: 0.18000  Tot: -0.18000 ]
SCF: Cycle:  0   F: -28.377562599971785   dF: -8.154e-05   |Residual|: 6.315e-04   |deigs|: 1.759e-01  t[s]:     34.92
	FillingsUpdate:  mu: -0.086006335  nElectrons: 9.000000  magneticMoment: [ Abs: 0.18024  Tot: -0.18000 ]
SCF: Cycle:  1   F: -28.377563602558489   dF: -1.003e-06   |Residual|: 3.969e-04   |deigs|: 4.601e-03  t[s]:     41.49
	FillingsUpdate:  mu: -0.086050285  nElectrons: 9.000000  magneticMoment: [ Abs: 0.18033  Tot: -0.18000 ]
SCF: Cycle:  2   F: -28.377563899647548   dF: -2.971e-07   |Residual|: 3.134e-04   |deigs|: 1.739e-03  t[s]:     48.12
	FillingsUpdate:  mu: -0.086130074  nElectrons: 9.000000  magneticMoment: [ Abs: 0.18047  Tot: -0.18000 ]
SCF: Cycle:  3   F: -28.377564184164022   dF: -2.845e-07   |Residual|: 2.159e-04   |deigs|: 6.153e-04  t[s]:     54.84
	FillingsUpdate:  mu: -0.086220918  nElectrons: 9.000000  magneticMoment: [ Abs: 0.18047  Tot: -0.18000 ]
SCF: Cycle:  4   F: -28.377564524647074   dF: -3.405e-07   |Residual|: 1.328e-04   |deigs|: 7.085e-04  t[s]:     61.67
	FillingsUpdate:  mu: -0.086262635  nElectrons: 9.000000  magneticMoment: [ Abs: 0.18057  Tot: -0.18000 ]
SCF: Cycle:  5   F: -28.377564715678201   dF: -1.910e-07   |Residual|: 9.647e-05   |deigs|: 5.592e-04  t[s]:     68.61
	FillingsUpdate:  mu: -0.086264576  nElectrons: 9.000000  magneticMoment: [ Abs: 0.18050  Tot: -0.18000 ]
SCF: Cycle:  6   F: -28.377564859402245   dF: -1.437e-07   |Residual|: 5.963e-05   |deigs|: 5.111e-04  t[s]:     75.62
	FillingsUpdate:  mu: -0.086258963  nElectrons: 9.000000  magneticMoment: [ Abs: 0.18047  Tot: -0.18000 ]
SCF: Cycle:  7   F: -28.377564938131805   dF: -7.873e-08   |Residual|: 4.381e-05   |deigs|: 4.209e-04  t[s]:     82.84
	FillingsUpdate:  mu: -0.086245171  nElectrons: 9.000000  magneticMoment: [ Abs: 0.18044  Tot: -0.18000 ]
SCF: Cycle:  8   F: -28.377564976319633   dF: -3.819e-08   |Residual|: 3.031e-05   |deigs|: 2.560e-04  t[s]:     90.11
	FillingsUpdate:  mu: -0.086229763  nElectrons: 9.000000  magneticMoment: [ Abs: 0.18039  Tot: -0.18000 ]
SCF: Cycle:  9   F: -28.377564996727795   dF: -2.041e-08   |Residual|: 2.238e-05   |deigs|: 1.207e-04  t[s]:     97.50
	FillingsUpdate:  mu: -0.086219928  nElectrons: 9.000000  magneticMoment: [ Abs: 0.18040  Tot: -0.18000 ]
SCF: Cycle: 10   F: -28.377564997207525   dF: -4.797e-10   |Residual|: 1.976e-05   |deigs|: 4.972e-05  t[s]:    105.03
	FillingsUpdate:  mu: -0.086204829  nElectrons: 9.000000  magneticMoment: [ Abs: 0.18046  Tot: -0.18000 ]
SCF: Cycle: 11   F: -28.377564974336938   dF: +2.287e-08   |Residual|: 1.770e-05   |deigs|: 4.683e-05  t[s]:    112.53
	FillingsUpdate:  mu: -0.086190205  nElectrons: 9.000000  magneticMoment: [ Abs: 0.18046  Tot: -0.18000 ]
SCF: Cycle: 12   F: -28.377564973368496   dF: +9.684e-10   |Residual|: 1.617e-05   |deigs|: 7.295e-05  t[s]:    120.01
	FillingsUpdate:  mu: -0.086173850  nElectrons: 9.000000  magneticMoment: [ Abs: 0.18042  Tot: -0.18000 ]
SCF: Cycle: 13   F: -28.377564966342803   dF: +7.026e-09   |Residual|: 1.435e-05   |deigs|: 8.397e-05  t[s]:    127.54
	FillingsUpdate:  mu: -0.086163169  nElectrons: 9.000000  magneticMoment: [ Abs: 0.18042  Tot: -0.18000 ]
SCF: Cycle: 14   F: -28.377564959523745   dF: +6.819e-09   |Residual|: 1.321e-05   |deigs|: 8.496e-05  t[s]:    135.09
	FillingsUpdate:  mu: -0.086143510  nElectrons: 9.000000  magneticMoment: [ Abs: 0.18041  Tot: -0.18000 ]
SCF: Cycle: 15   F: -28.377564960616382   dF: -1.093e-09   |Residual|: 1.218e-05   |deigs|: 8.424e-05  t[s]:    142.62
	FillingsUpdate:  mu: -0.086126189  nElectrons: 9.000000  magneticMoment: [ Abs: 0.18040  Tot: -0.18000 ]
SCF: Cycle: 16   F: -28.377564969330322   dF: -8.714e-09   |Residual|: 1.128e-05   |deigs|: 8.960e-05  t[s]:    150.19
SCF: Converged (|Delta E|<1.000000e-08 for 2 iters).


# Ionic positions in lattice coordinates:
ion K   0.000000000000000   0.000000000000000   0.000000000000000 0

# Forces in Lattice coordinates:
force K   0.000000000000000  -0.000000000000000   0.000000000000000 0

# Energy components:
   Eewald =       -9.0240130501663280
       EH =       13.7560366177465951
     Eloc =      -35.9649372036561559
      Enl =       -2.7673664150232575
   Epulay =        0.0000000066859396
      Exc =       -4.2388186338354430
       KE =        9.8615339907823376
-------------------------------------
     Etot =      -28.3775646874663146
       TS =        0.0000002818640082
-------------------------------------
        F =      -28.3775649693303222

IonicMinimize: Iter:   0  F: -28.377564969330322  |grad|_K:  0.000e+00  t[s]:    150.60
IonicMinimize: Converged (|grad|_K<1.000000e-04).

#--- Lowdin population analysis ---
# oxidation-state K +0.001
# magnetic-moments K -0.180

End date and time: Sat Feb  5 23:42:45 2022  (Duration: 0-0:02:30.67)
Done!
