
*************** JDFTx 1.6.0 (git hash 42ebbcc2) ***************

Start date and time: Sat Feb  5 23:51:13 2022
Executable jdftx with command-line: -i Alkali.in
Running on hosts (process indices):  d-4-8-2 (0-18)
Divided in process groups (process indices):  0 (0)  1 (1)  2 (2)  3 (3)  4 (4)  5 (5)  6 (6)  7 (7)  8 (8)  9 (9)  10 (10)  11 (11)  12 (12)  13 (13)  14 (14)  15 (15)  16 (16)  17 (17)  18 (18)
Resource initialization completed at t[s]:      0.00
Run totals: 19 processes, 48 threads, 0 GPUs


Input parsed successfully to the following command list (including defaults):

basis kpoint-dependent
coords-type Lattice
core-overlap-check vector
coulomb-interaction Slab 001
davidson-band-ratio 1.1
dump End None
dump-name $INPUT.$VAR
elec-cutoff 20
elec-eigen-algo Davidson
elec-ex-corr gga-PBE
elec-initial-magnetization 0.460000 yes
elec-smearing Fermi 1e-05
electronic-minimize  \
	dirUpdateScheme      FletcherReeves \
	linminMethod         DirUpdateRecommended \
	nIterations          100 \
	history              15 \
	knormThreshold       0 \
	energyDiffThreshold  1e-08 \
	nEnergyDiff          2 \
	alphaTstart          1 \
	alphaTmin            1e-10 \
	updateTestStepSize   yes \
	alphaTreduceFactor   0.1 \
	alphaTincreaseFactor 3 \
	nAlphaAdjustMax      3 \
	wolfeEnergy          0.0001 \
	wolfeGradient        0.9 \
	fdTest               no
electronic-scf  \
	nIterations	10000 \
	energyDiffThreshold	1e-08 \
	residualThreshold	1e-07 \
	mixFraction	0.5 \
	qMetric	0.8 \
	history	10 \
	nEigSteps	2 \
	eigDiffThreshold	1e-08 \
	mixedVariable	Density \
	qKerker	0.8 \
	qKappa	-1 \
	verbose	no \
	mixFractionMag	1.5
exchange-regularization WignerSeitzTruncated
fluid None
fluid-ex-corr (null) lda-PZ
fluid-gummel-loop 10 1.000000e-05
fluid-minimize  \
	dirUpdateScheme      PolakRibiere \
	linminMethod         DirUpdateRecommended \
	nIterations          100 \
	history              15 \
	knormThreshold       0 \
	energyDiffThreshold  0 \
	nEnergyDiff          2 \
	alphaTstart          1 \
	alphaTmin            1e-10 \
	updateTestStepSize   yes \
	alphaTreduceFactor   0.1 \
	alphaTincreaseFactor 3 \
	nAlphaAdjustMax      3 \
	wolfeEnergy          0.0001 \
	wolfeGradient        0.9 \
	fdTest               no
fluid-solvent H2O 55.338 ScalarEOS \
	epsBulk 78.4 \
	pMol 0.92466 \
	epsInf 1.77 \
	Pvap 1.06736e-10 \
	sigmaBulk 4.62e-05 \
	Rvdw 2.61727 \
	Res 1.42 \
	tauNuc 343133 \
	poleEl 15 7 1
forces-output-coords Positions
ion K   0.000000000000000   0.000000000000000   0.000000000000000 0
ion-species SG15/$ID_ONCV_PBE.upf
ion-width 0
ionic-minimize  \
	dirUpdateScheme      L-BFGS \
	linminMethod         DirUpdateRecommended \
	nIterations          0 \
	history              15 \
	knormThreshold       0.0001 \
	energyDiffThreshold  1e-06 \
	nEnergyDiff          2 \
	alphaTstart          1 \
	alphaTmin            1e-10 \
	updateTestStepSize   yes \
	alphaTreduceFactor   0.1 \
	alphaTincreaseFactor 3 \
	nAlphaAdjustMax      3 \
	wolfeEnergy          0.0001 \
	wolfeGradient        0.9 \
	fdTest               no
kpoint   0.000000000000   0.000000000000   0.000000000000  1.00000000000000
kpoint-folding 12 12 1 
latt-move-scale 1 1 1
latt-scale 4 4 1 
lattice  \
	   4.727486978767153   -2.363743489383575    0.000000000000000  \
	  -0.000000000000000    4.094123819672498    0.000000000000000  \
	   0.000000000000000    0.000000000000000   40.000000000000000 
lattice-minimize  \
	dirUpdateScheme      L-BFGS \
	linminMethod         DirUpdateRecommended \
	nIterations          0 \
	history              15 \
	knormThreshold       0 \
	energyDiffThreshold  1e-06 \
	nEnergyDiff          2 \
	alphaTstart          1 \
	alphaTmin            1e-10 \
	updateTestStepSize   yes \
	alphaTreduceFactor   0.1 \
	alphaTincreaseFactor 3 \
	nAlphaAdjustMax      3 \
	wolfeEnergy          0.0001 \
	wolfeGradient        0.9 \
	fdTest               no
lcao-params -1 1e-06 1e-05
pcm-variant GLSSA13
spintype z-spin
subspace-rotation-factor 1 yes
symmetries automatic
symmetry-threshold 0.0001



---------- Setting up symmetries ----------

Found 24 point-group symmetries of the bravais lattice
Found 24 space-group symmetries with basis
Applied RMS atom displacement 0 bohrs to make symmetries exact.

---------- Initializing the Grid ----------
R = 
[      18.9099     -9.45497            0  ]
[            0      16.3765            0  ]
[            0            0           40  ]
unit cell volume = 12387.1
G =
[   0.332269   0.191835         -0  ]
[          0   0.383671         -0  ]
[         -0         -0    0.15708  ]
Minimum fftbox size, Smin = [  80  80  164  ]
Chosen fftbox size, S = [  80  80  168  ]

---------- Exchange Correlation functional ----------
Initalized PBE GGA exchange.
Initalized PBE GGA correlation.

---------- Setting up pseudopotentials ----------
Width of ionic core gaussian charges (only for fluid interactions / plotting) set to 0

Reading pseudopotential file '/home/gridsan/aligho/DFT/build-Nov24/pseudopotentials/SG15/K_ONCV_PBE.upf':
  'K' pseudopotential, 'PBE' functional
  Generated using ONCVPSP code by D. R. Hamann
  Author: Martin Schlipf and Francois Gygi  Date: 150915.
  9 valence electrons, 3 orbitals, 6 projectors, 2222 radial grid points, with lMax = 2
  Transforming local potential to a uniform radial grid of dG=0.02 with 1489 points.
  Transforming nonlocal projectors to a uniform radial grid of dG=0.02 with 432 points.
    3S    l: 0   occupation:  2.0   eigenvalue: -1.298836
    3P    l: 1   occupation:  6.0   eigenvalue: -0.691386
    4S    l: 0   occupation:  1.0   eigenvalue: -0.085223
  Transforming atomic orbitals to a uniform radial grid of dG=0.02 with 432 points.
  Core radius for overlap checks: 2.06 bohrs.
  Reading pulay file /home/gridsan/aligho/DFT/build-Nov24/pseudopotentials/SG15/K_ONCV_PBE.pulay ... using dE_dnG = -1.597219e-05 computed for Ecut = 20.

Initialized 1 species with 1 total atoms.

Folded 1 k-points by 12x12x1 to 144 k-points.

---------- Setting up k-points, bands, fillings ----------
Reduced to 19 k-points under symmetry. 
Computing the number of bands and number of electrons
Calculating initial fillings.
nElectrons:   9.000000   nBands: 6   nStates: 38

----- Setting up reduced wavefunction bases (one per k-point) -----
average nbasis = 52924.021 , ideal nbasis = 52918.836

---------- Setting up coulomb interaction ----------
Initialized slab truncation along lattice direction 001

---------- Setting up 2D ewald sum ----------
Optimum gaussian width for ewald sums = 10.498040 bohr.
Real space sums over 289 unit cells with max indices [  8  8  0  ]
Reciprocal space sums over 81 terms with max indices [  4  4  0  ]

---------- Allocating electronic variables ----------
Initializing wave functions:  linear combination of atomic orbitals
Note: number of bands (6) exceeds available atomic orbitals (5)
K pseudo-atom occupations:   s ( 2 1 )  p ( 6 )
	FillingsUpdate:  mu: -0.085636887  nElectrons: 9.000000  magneticMoment: [ Abs: 0.46000  Tot: +0.46000 ]
LCAOMinimize: Iter:   0  F: -28.3782129930004068  |grad|_K:  3.224e-06  alpha:  1.000e+00
	FillingsUpdate:  mu: -0.085636223  nElectrons: 9.000000  magneticMoment: [ Abs: 0.46000  Tot: +0.46000 ]
LCAOMinimize: Iter:   1  F: -28.3782130000398070  |grad|_K:  1.482e-08  alpha:  9.900e-01  linmin: -1.649e-03  cgtest:  1.828e-01  t[s]:     15.00
LCAOMinimize: Encountered beta<0, resetting CG.
	FillingsUpdate:  mu: -0.085636223  nElectrons: 9.000000  magneticMoment: [ Abs: 0.46000  Tot: +0.46000 ]
LCAOMinimize: Iter:   2  F: -28.3782130000400450  |grad|_K:  6.519e-09  alpha:  5.597e-01  linmin: -7.959e-03  cgtest:  1.000e+00  t[s]:     19.00
LCAOMinimize: Encountered beta<0, resetting CG.
LCAOMinimize: Converged (|Delta F|<1.000000e-06 for 2 iters).


---- Citations for features of the code used in this run ----

   Software package:
      R. Sundararaman, K. Letchworth-Weaver, K.A. Schwarz, D. Gunceler, Y. Ozhabes and T.A. Arias, 'JDFTx: software for joint density-functional theory', SoftwareX 6, 278 (2017)

   gga-PBE exchange-correlation functional:
      J.P. Perdew, K. Burke and M. Ernzerhof, Phys. Rev. Lett. 77, 3865 (1996)

   Pseudopotentials:
      M Schlipf and F Gygi, Comput. Phys. Commun. 196, 36 (2015)

   Truncated Coulomb potentials:
      R. Sundararaman and T.A. Arias, Phys. Rev. B 87, 165122 (2013)

This list may not be complete. Please suggest additional citations or
report any other bugs at https://github.com/shankar1729/jdftx/issues

Initialization completed successfully at t[s]:     19.26


-------- Electronic minimization -----------
Will mix electronic density at each iteration.
	FillingsUpdate:  mu: -0.085636223  nElectrons: 9.000000  magneticMoment: [ Abs: 0.46000  Tot: +0.46000 ]
	FillingsUpdate:  mu: -0.085720911  nElectrons: 9.000000  magneticMoment: [ Abs: 0.46000  Tot: +0.46000 ]
SCF: Cycle:  0   F: -28.378293681372845   dF: -8.068e-05   |Residual|: 1.036e-03   |deigs|: 1.739e-01  t[s]:     27.40
	FillingsUpdate:  mu: -0.085734486  nElectrons: 9.000000  magneticMoment: [ Abs: 0.46074  Tot: +0.46000 ]
SCF: Cycle:  1   F: -28.378294668741063   dF: -9.874e-07   |Residual|: 3.207e-04   |deigs|: 6.758e-03  t[s]:     33.83
	FillingsUpdate:  mu: -0.085742606  nElectrons: 9.000000  magneticMoment: [ Abs: 0.46084  Tot: +0.46000 ]
SCF: Cycle:  2   F: -28.378294889248480   dF: -2.205e-07   |Residual|: 2.039e-04   |deigs|: 1.796e-03  t[s]:     40.37
	FillingsUpdate:  mu: -0.085755744  nElectrons: 9.000000  magneticMoment: [ Abs: 0.46102  Tot: +0.46000 ]
SCF: Cycle:  3   F: -28.378295045559099   dF: -1.563e-07   |Residual|: 1.550e-04   |deigs|: 4.969e-04  t[s]:     46.95
	FillingsUpdate:  mu: -0.085767219  nElectrons: 9.000000  magneticMoment: [ Abs: 0.46099  Tot: +0.46000 ]
SCF: Cycle:  4   F: -28.378295245876959   dF: -2.003e-07   |Residual|: 1.152e-04   |deigs|: 1.792e-04  t[s]:     53.74
	FillingsUpdate:  mu: -0.085786755  nElectrons: 9.000000  magneticMoment: [ Abs: 0.46107  Tot: +0.46000 ]
SCF: Cycle:  5   F: -28.378295395057830   dF: -1.492e-07   |Residual|: 7.593e-05   |deigs|: 5.568e-04  t[s]:     60.59
	FillingsUpdate:  mu: -0.085784721  nElectrons: 9.000000  magneticMoment: [ Abs: 0.46105  Tot: +0.46000 ]
SCF: Cycle:  6   F: -28.378295493410235   dF: -9.835e-08   |Residual|: 5.090e-05   |deigs|: 3.658e-04  t[s]:     67.54
	FillingsUpdate:  mu: -0.085782111  nElectrons: 9.000000  magneticMoment: [ Abs: 0.46104  Tot: +0.46000 ]
SCF: Cycle:  7   F: -28.378295549504671   dF: -5.609e-08   |Residual|: 3.741e-05   |deigs|: 5.123e-04  t[s]:     74.59
	FillingsUpdate:  mu: -0.085771198  nElectrons: 9.000000  magneticMoment: [ Abs: 0.46103  Tot: +0.46000 ]
SCF: Cycle:  8   F: -28.378295583498769   dF: -3.399e-08   |Residual|: 3.056e-05   |deigs|: 3.308e-04  t[s]:     81.79
	FillingsUpdate:  mu: -0.085748583  nElectrons: 9.000000  magneticMoment: [ Abs: 0.46102  Tot: +0.46000 ]
SCF: Cycle:  9   F: -28.378295608721960   dF: -2.522e-08   |Residual|: 2.293e-05   |deigs|: 1.815e-04  t[s]:     89.12
	FillingsUpdate:  mu: -0.085734317  nElectrons: 9.000000  magneticMoment: [ Abs: 0.46101  Tot: +0.46000 ]
SCF: Cycle: 10   F: -28.378295610337979   dF: -1.616e-09   |Residual|: 2.118e-05   |deigs|: 1.022e-04  t[s]:     96.52
	FillingsUpdate:  mu: -0.085716461  nElectrons: 9.000000  magneticMoment: [ Abs: 0.46107  Tot: +0.46000 ]
SCF: Cycle: 11   F: -28.378295574544566   dF: +3.579e-08   |Residual|: 2.002e-05   |deigs|: 8.520e-05  t[s]:    103.88
	FillingsUpdate:  mu: -0.085691216  nElectrons: 9.000000  magneticMoment: [ Abs: 0.46118  Tot: +0.46000 ]
SCF: Cycle: 12   F: -28.378295476800766   dF: +9.774e-08   |Residual|: 1.796e-05   |deigs|: 8.247e-05  t[s]:    111.25
	FillingsUpdate:  mu: -0.085668137  nElectrons: 9.000000  magneticMoment: [ Abs: 0.46113  Tot: +0.46000 ]
SCF: Cycle: 13   F: -28.378295530362390   dF: -5.356e-08   |Residual|: 1.686e-05   |deigs|: 7.469e-05  t[s]:    118.22
	FillingsUpdate:  mu: -0.085647542  nElectrons: 9.000000  magneticMoment: [ Abs: 0.46113  Tot: +0.46000 ]
SCF: Cycle: 14   F: -28.378295561441806   dF: -3.108e-08   |Residual|: 1.482e-05   |deigs|: 6.847e-05  t[s]:    125.47
	FillingsUpdate:  mu: -0.085631939  nElectrons: 9.000000  magneticMoment: [ Abs: 0.46113  Tot: +0.46000 ]
SCF: Cycle: 15   F: -28.378295588876746   dF: -2.743e-08   |Residual|: 1.304e-05   |deigs|: 8.445e-05  t[s]:    132.73
	FillingsUpdate:  mu: -0.085614454  nElectrons: 9.000000  magneticMoment: [ Abs: 0.46108  Tot: +0.46000 ]
SCF: Cycle: 16   F: -28.378295530128774   dF: +5.875e-08   |Residual|: 1.284e-05   |deigs|: 9.655e-05  t[s]:    140.13
	FillingsUpdate:  mu: -0.085604331  nElectrons: 9.000000  magneticMoment: [ Abs: 0.46105  Tot: +0.46000 ]
SCF: Cycle: 17   F: -28.378295580357818   dF: -5.023e-08   |Residual|: 1.046e-05   |deigs|: 7.045e-05  t[s]:    146.96
	FillingsUpdate:  mu: -0.085596950  nElectrons: 9.000000  magneticMoment: [ Abs: 0.46104  Tot: +0.46000 ]
SCF: Cycle: 18   F: -28.378295627032916   dF: -4.668e-08   |Residual|: 7.757e-06   |deigs|: 4.799e-05  t[s]:    153.84
	FillingsUpdate:  mu: -0.085589538  nElectrons: 9.000000  magneticMoment: [ Abs: 0.46100  Tot: +0.46000 ]
SCF: Cycle: 19   F: -28.378295632591339   dF: -5.558e-09   |Residual|: 5.799e-06   |deigs|: 2.740e-05  t[s]:    160.60
	FillingsUpdate:  mu: -0.085587051  nElectrons: 9.000000  magneticMoment: [ Abs: 0.46100  Tot: +0.46000 ]
SCF: Cycle: 20   F: -28.378295660569332   dF: -2.798e-08   |Residual|: 4.099e-06   |deigs|: 1.521e-05  t[s]:    167.97
	FillingsUpdate:  mu: -0.085586715  nElectrons: 9.000000  magneticMoment: [ Abs: 0.46100  Tot: +0.46000 ]
SCF: Cycle: 21   F: -28.378295659470535   dF: +1.099e-09   |Residual|: 3.224e-06   |deigs|: 7.912e-06  t[s]:    174.77
	FillingsUpdate:  mu: -0.085585919  nElectrons: 9.000000  magneticMoment: [ Abs: 0.46100  Tot: +0.46000 ]
SCF: Cycle: 22   F: -28.378295662217724   dF: -2.747e-09   |Residual|: 2.424e-06   |deigs|: 4.284e-06  t[s]:    182.13
	FillingsUpdate:  mu: -0.085585831  nElectrons: 9.000000  magneticMoment: [ Abs: 0.46101  Tot: +0.46000 ]
SCF: Cycle: 23   F: -28.378295665890775   dF: -3.673e-09   |Residual|: 1.434e-06   |deigs|: 2.973e-06  t[s]:    189.00
SCF: Converged (|Delta E|<1.000000e-08 for 2 iters).


# Ionic positions in lattice coordinates:
ion K   0.000000000000000   0.000000000000000   0.000000000000000 0

# Forces in Lattice coordinates:
force K   0.000000000000000   0.000000000000000   0.000000000000000 0

# Energy components:
   Eewald =       -9.0240130501663280
       EH =       13.7653785903913786
     Eloc =      -35.9749667756427058
      Enl =       -2.7671789592329397
   Epulay =        0.0000000066859396
      Exc =       -4.2406264977937900
       KE =        9.8631126449000170
-------------------------------------
     Etot =      -28.3782940408584317
       TS =        0.0000016250323423
-------------------------------------
        F =      -28.3782956658907750

IonicMinimize: Iter:   0  F: -28.378295665890775  |grad|_K:  0.000e+00  t[s]:    189.41
IonicMinimize: Converged (|grad|_K<1.000000e-04).

#--- Lowdin population analysis ---
# oxidation-state K +0.001
# magnetic-moments K +0.460

End date and time: Sat Feb  5 23:54:23 2022  (Duration: 0-0:03:09.47)
Done!
