
*************** JDFTx 1.6.0 (git hash 42ebbcc2) ***************

Start date and time: Sat Feb  5 23:39:34 2022
Executable jdftx with command-line: -i Alkali.in
Running on hosts (process indices):  d-3-15-1 (0-18)
Divided in process groups (process indices):  0 (0)  1 (1)  2 (2)  3 (3)  4 (4)  5 (5)  6 (6)  7 (7)  8 (8)  9 (9)  10 (10)  11 (11)  12 (12)  13 (13)  14 (14)  15 (15)  16 (16)  17 (17)  18 (18)
Resource initialization completed at t[s]:      0.00
Run totals: 19 processes, 48 threads, 0 GPUs


Input parsed successfully to the following command list (including defaults):

basis kpoint-dependent
coords-type Lattice
core-overlap-check vector
coulomb-interaction Slab 001
davidson-band-ratio 1.1
dump End None
dump-name $INPUT.$VAR
elec-cutoff 20
elec-eigen-algo Davidson
elec-ex-corr gga-PBE
elec-initial-magnetization -0.220000 yes
elec-smearing Fermi 1e-05
electronic-minimize  \
	dirUpdateScheme      FletcherReeves \
	linminMethod         DirUpdateRecommended \
	nIterations          100 \
	history              15 \
	knormThreshold       0 \
	energyDiffThreshold  1e-08 \
	nEnergyDiff          2 \
	alphaTstart          1 \
	alphaTmin            1e-10 \
	updateTestStepSize   yes \
	alphaTreduceFactor   0.1 \
	alphaTincreaseFactor 3 \
	nAlphaAdjustMax      3 \
	wolfeEnergy          0.0001 \
	wolfeGradient        0.9 \
	fdTest               no
electronic-scf  \
	nIterations	10000 \
	energyDiffThreshold	1e-08 \
	residualThreshold	1e-07 \
	mixFraction	0.5 \
	qMetric	0.8 \
	history	10 \
	nEigSteps	2 \
	eigDiffThreshold	1e-08 \
	mixedVariable	Density \
	qKerker	0.8 \
	qKappa	-1 \
	verbose	no \
	mixFractionMag	1.5
exchange-regularization WignerSeitzTruncated
fluid None
fluid-ex-corr (null) lda-PZ
fluid-gummel-loop 10 1.000000e-05
fluid-minimize  \
	dirUpdateScheme      PolakRibiere \
	linminMethod         DirUpdateRecommended \
	nIterations          100 \
	history              15 \
	knormThreshold       0 \
	energyDiffThreshold  0 \
	nEnergyDiff          2 \
	alphaTstart          1 \
	alphaTmin            1e-10 \
	updateTestStepSize   yes \
	alphaTreduceFactor   0.1 \
	alphaTincreaseFactor 3 \
	nAlphaAdjustMax      3 \
	wolfeEnergy          0.0001 \
	wolfeGradient        0.9 \
	fdTest               no
fluid-solvent H2O 55.338 ScalarEOS \
	epsBulk 78.4 \
	pMol 0.92466 \
	epsInf 1.77 \
	Pvap 1.06736e-10 \
	sigmaBulk 4.62e-05 \
	Rvdw 2.61727 \
	Res 1.42 \
	tauNuc 343133 \
	poleEl 15 7 1
forces-output-coords Positions
ion K   0.000000000000000   0.000000000000000   0.000000000000000 0
ion-species SG15/$ID_ONCV_PBE.upf
ion-width 0
ionic-minimize  \
	dirUpdateScheme      L-BFGS \
	linminMethod         DirUpdateRecommended \
	nIterations          0 \
	history              15 \
	knormThreshold       0.0001 \
	energyDiffThreshold  1e-06 \
	nEnergyDiff          2 \
	alphaTstart          1 \
	alphaTmin            1e-10 \
	updateTestStepSize   yes \
	alphaTreduceFactor   0.1 \
	alphaTincreaseFactor 3 \
	nAlphaAdjustMax      3 \
	wolfeEnergy          0.0001 \
	wolfeGradient        0.9 \
	fdTest               no
kpoint   0.000000000000   0.000000000000   0.000000000000  1.00000000000000
kpoint-folding 12 12 1 
latt-move-scale 1 1 1
latt-scale 4 4 1 
lattice  \
	   4.727486978767153   -2.363743489383575    0.000000000000000  \
	  -0.000000000000000    4.094123819672498    0.000000000000000  \
	   0.000000000000000    0.000000000000000   40.000000000000000 
lattice-minimize  \
	dirUpdateScheme      L-BFGS \
	linminMethod         DirUpdateRecommended \
	nIterations          0 \
	history              15 \
	knormThreshold       0 \
	energyDiffThreshold  1e-06 \
	nEnergyDiff          2 \
	alphaTstart          1 \
	alphaTmin            1e-10 \
	updateTestStepSize   yes \
	alphaTreduceFactor   0.1 \
	alphaTincreaseFactor 3 \
	nAlphaAdjustMax      3 \
	wolfeEnergy          0.0001 \
	wolfeGradient        0.9 \
	fdTest               no
lcao-params -1 1e-06 1e-05
pcm-variant GLSSA13
spintype z-spin
subspace-rotation-factor 1 yes
symmetries automatic
symmetry-threshold 0.0001



---------- Setting up symmetries ----------

Found 24 point-group symmetries of the bravais lattice
Found 24 space-group symmetries with basis
Applied RMS atom displacement 0 bohrs to make symmetries exact.

---------- Initializing the Grid ----------
R = 
[      18.9099     -9.45497            0  ]
[            0      16.3765            0  ]
[            0            0           40  ]
unit cell volume = 12387.1
G =
[   0.332269   0.191835         -0  ]
[          0   0.383671         -0  ]
[         -0         -0    0.15708  ]
Minimum fftbox size, Smin = [  80  80  164  ]
Chosen fftbox size, S = [  80  80  168  ]

---------- Exchange Correlation functional ----------
Initalized PBE GGA exchange.
Initalized PBE GGA correlation.

---------- Setting up pseudopotentials ----------
Width of ionic core gaussian charges (only for fluid interactions / plotting) set to 0

Reading pseudopotential file '/home/gridsan/aligho/DFT/build-Nov24/pseudopotentials/SG15/K_ONCV_PBE.upf':
  'K' pseudopotential, 'PBE' functional
  Generated using ONCVPSP code by D. R. Hamann
  Author: Martin Schlipf and Francois Gygi  Date: 150915.
  9 valence electrons, 3 orbitals, 6 projectors, 2222 radial grid points, with lMax = 2
  Transforming local potential to a uniform radial grid of dG=0.02 with 1489 points.
  Transforming nonlocal projectors to a uniform radial grid of dG=0.02 with 432 points.
    3S    l: 0   occupation:  2.0   eigenvalue: -1.298836
    3P    l: 1   occupation:  6.0   eigenvalue: -0.691386
    4S    l: 0   occupation:  1.0   eigenvalue: -0.085223
  Transforming atomic orbitals to a uniform radial grid of dG=0.02 with 432 points.
  Core radius for overlap checks: 2.06 bohrs.
  Reading pulay file /home/gridsan/aligho/DFT/build-Nov24/pseudopotentials/SG15/K_ONCV_PBE.pulay ... using dE_dnG = -1.597219e-05 computed for Ecut = 20.

Initialized 1 species with 1 total atoms.

Folded 1 k-points by 12x12x1 to 144 k-points.

---------- Setting up k-points, bands, fillings ----------
Reduced to 19 k-points under symmetry. 
Computing the number of bands and number of electrons
Calculating initial fillings.
nElectrons:   9.000000   nBands: 6   nStates: 38

----- Setting up reduced wavefunction bases (one per k-point) -----
average nbasis = 52924.021 , ideal nbasis = 52918.836

---------- Setting up coulomb interaction ----------
Initialized slab truncation along lattice direction 001

---------- Setting up 2D ewald sum ----------
Optimum gaussian width for ewald sums = 10.498040 bohr.
Real space sums over 289 unit cells with max indices [  8  8  0  ]
Reciprocal space sums over 81 terms with max indices [  4  4  0  ]

---------- Allocating electronic variables ----------
Initializing wave functions:  linear combination of atomic orbitals
Note: number of bands (6) exceeds available atomic orbitals (5)
K pseudo-atom occupations:   s ( 2 1 )  p ( 6 )
	FillingsUpdate:  mu: -0.085779675  nElectrons: 9.000000  magneticMoment: [ Abs: 0.22000  Tot: -0.22000 ]
LCAOMinimize: Iter:   0  F: -28.3775474662111336  |grad|_K:  3.794e-06  alpha:  1.000e+00
	FillingsUpdate:  mu: -0.085778878  nElectrons: 9.000000  magneticMoment: [ Abs: 0.22000  Tot: -0.22000 ]
LCAOMinimize: Iter:   1  F: -28.3775474759465105  |grad|_K:  1.604e-08  alpha:  9.886e-01  linmin: -7.034e-03  cgtest:  3.046e-01  t[s]:     14.94
LCAOMinimize: Encountered beta<0, resetting CG.
LCAOMinimize: 	Wrong curvature in test step, increasing alphaT to 2.965902e+00.
	FillingsUpdate:  mu: -0.085778876  nElectrons: 9.000000  magneticMoment: [ Abs: 0.22000  Tot: -0.22000 ]
LCAOMinimize: Iter:   2  F: -28.3775474759468871  |grad|_K:  1.873e-10  alpha: -6.050e+00  linmin: -1.461e-02  cgtest:  9.976e-01  t[s]:     18.89
LCAOMinimize: Encountered beta<0, resetting CG.
LCAOMinimize: Converged (|Delta F|<1.000000e-06 for 2 iters).


---- Citations for features of the code used in this run ----

   Software package:
      R. Sundararaman, K. Letchworth-Weaver, K.A. Schwarz, D. Gunceler, Y. Ozhabes and T.A. Arias, 'JDFTx: software for joint density-functional theory', SoftwareX 6, 278 (2017)

   gga-PBE exchange-correlation functional:
      J.P. Perdew, K. Burke and M. Ernzerhof, Phys. Rev. Lett. 77, 3865 (1996)

   Pseudopotentials:
      M Schlipf and F Gygi, Comput. Phys. Commun. 196, 36 (2015)

   Truncated Coulomb potentials:
      R. Sundararaman and T.A. Arias, Phys. Rev. B 87, 165122 (2013)

This list may not be complete. Please suggest additional citations or
report any other bugs at https://github.com/shankar1729/jdftx/issues

Initialization completed successfully at t[s]:     19.15


-------- Electronic minimization -----------
Will mix electronic density at each iteration.
	FillingsUpdate:  mu: -0.085778876  nElectrons: 9.000000  magneticMoment: [ Abs: 0.22000  Tot: -0.22000 ]
	FillingsUpdate:  mu: -0.085846894  nElectrons: 9.000000  magneticMoment: [ Abs: 0.22000  Tot: -0.22000 ]
SCF: Cycle:  0   F: -28.377628540791346   dF: -8.106e-05   |Residual|: 6.753e-04   |deigs|: 1.758e-01  t[s]:     27.34
	FillingsUpdate:  mu: -0.085879547  nElectrons: 9.000000  magneticMoment: [ Abs: 0.22030  Tot: -0.22000 ]
SCF: Cycle:  1   F: -28.377629518014917   dF: -9.772e-07   |Residual|: 3.861e-04   |deigs|: 4.699e-03  t[s]:     33.84
	FillingsUpdate:  mu: -0.085917672  nElectrons: 9.000000  magneticMoment: [ Abs: 0.22039  Tot: -0.22000 ]
SCF: Cycle:  2   F: -28.377629797028305   dF: -2.790e-07   |Residual|: 3.044e-04   |deigs|: 1.685e-03  t[s]:     40.34
	FillingsUpdate:  mu: -0.085984785  nElectrons: 9.000000  magneticMoment: [ Abs: 0.22055  Tot: -0.22000 ]
SCF: Cycle:  3   F: -28.377630050897860   dF: -2.539e-07   |Residual|: 2.160e-04   |deigs|: 5.942e-04  t[s]:     47.05
	FillingsUpdate:  mu: -0.086071080  nElectrons: 9.000000  magneticMoment: [ Abs: 0.22055  Tot: -0.22000 ]
SCF: Cycle:  4   F: -28.377630390343985   dF: -3.394e-07   |Residual|: 1.330e-04   |deigs|: 7.103e-04  t[s]:     53.74
	FillingsUpdate:  mu: -0.086116808  nElectrons: 9.000000  magneticMoment: [ Abs: 0.22067  Tot: -0.22000 ]
SCF: Cycle:  5   F: -28.377630582026352   dF: -1.917e-07   |Residual|: 9.394e-05   |deigs|: 5.896e-04  t[s]:     60.66
	FillingsUpdate:  mu: -0.086117914  nElectrons: 9.000000  magneticMoment: [ Abs: 0.22060  Tot: -0.22000 ]
SCF: Cycle:  6   F: -28.377630713863962   dF: -1.318e-07   |Residual|: 5.955e-05   |deigs|: 5.039e-04  t[s]:     67.56
	FillingsUpdate:  mu: -0.086113721  nElectrons: 9.000000  magneticMoment: [ Abs: 0.22056  Tot: -0.22000 ]
SCF: Cycle:  7   F: -28.377630793271660   dF: -7.941e-08   |Residual|: 4.307e-05   |deigs|: 4.328e-04  t[s]:     74.63
	FillingsUpdate:  mu: -0.086101314  nElectrons: 9.000000  magneticMoment: [ Abs: 0.22054  Tot: -0.22000 ]
SCF: Cycle:  8   F: -28.377630831702991   dF: -3.843e-08   |Residual|: 3.114e-05   |deigs|: 2.510e-04  t[s]:     81.82
	FillingsUpdate:  mu: -0.086083461  nElectrons: 9.000000  magneticMoment: [ Abs: 0.22048  Tot: -0.22000 ]
SCF: Cycle:  9   F: -28.377630853801850   dF: -2.210e-08   |Residual|: 2.232e-05   |deigs|: 1.308e-04  t[s]:     89.04
	FillingsUpdate:  mu: -0.086072955  nElectrons: 9.000000  magneticMoment: [ Abs: 0.22048  Tot: -0.22000 ]
SCF: Cycle: 10   F: -28.377630855421469   dF: -1.620e-09   |Residual|: 2.001e-05   |deigs|: 5.530e-05  t[s]:     96.51
	FillingsUpdate:  mu: -0.086058249  nElectrons: 9.000000  magneticMoment: [ Abs: 0.22055  Tot: -0.22000 ]
SCF: Cycle: 11   F: -28.377630833133221   dF: +2.229e-08   |Residual|: 1.790e-05   |deigs|: 4.507e-05  t[s]:    103.93
	FillingsUpdate:  mu: -0.086042293  nElectrons: 9.000000  magneticMoment: [ Abs: 0.22056  Tot: -0.22000 ]
SCF: Cycle: 12   F: -28.377630836610884   dF: -3.478e-09   |Residual|: 1.625e-05   |deigs|: 6.575e-05  t[s]:    111.42
	FillingsUpdate:  mu: -0.086024819  nElectrons: 9.000000  magneticMoment: [ Abs: 0.22051  Tot: -0.22000 ]
SCF: Cycle: 13   F: -28.377630820207941   dF: +1.640e-08   |Residual|: 1.471e-05   |deigs|: 8.311e-05  t[s]:    118.83
	FillingsUpdate:  mu: -0.086014055  nElectrons: 9.000000  magneticMoment: [ Abs: 0.22051  Tot: -0.22000 ]
SCF: Cycle: 14   F: -28.377630811264741   dF: +8.943e-09   |Residual|: 1.327e-05   |deigs|: 9.456e-05  t[s]:    126.34
	FillingsUpdate:  mu: -0.085994615  nElectrons: 9.000000  magneticMoment: [ Abs: 0.22051  Tot: -0.22000 ]
SCF: Cycle: 15   F: -28.377630818295007   dF: -7.030e-09   |Residual|: 1.219e-05   |deigs|: 9.756e-05  t[s]:    133.71
	FillingsUpdate:  mu: -0.085976832  nElectrons: 9.000000  magneticMoment: [ Abs: 0.22049  Tot: -0.22000 ]
SCF: Cycle: 16   F: -28.377630832665965   dF: -1.437e-08   |Residual|: 1.142e-05   |deigs|: 9.011e-05  t[s]:    141.03
	FillingsUpdate:  mu: -0.085965036  nElectrons: 9.000000  magneticMoment: [ Abs: 0.22048  Tot: -0.22000 ]
SCF: Cycle: 17   F: -28.377630800672247   dF: +3.199e-08   |Residual|: 1.034e-05   |deigs|: 6.092e-05  t[s]:    148.33
	FillingsUpdate:  mu: -0.085956075  nElectrons: 9.000000  magneticMoment: [ Abs: 0.22046  Tot: -0.22000 ]
SCF: Cycle: 18   F: -28.377630887017865   dF: -8.635e-08   |Residual|: 8.156e-06   |deigs|: 3.813e-05  t[s]:    155.23
	FillingsUpdate:  mu: -0.085950059  nElectrons: 9.000000  magneticMoment: [ Abs: 0.22046  Tot: -0.22000 ]
SCF: Cycle: 19   F: -28.377630872073375   dF: +1.494e-08   |Residual|: 6.295e-06   |deigs|: 2.111e-05  t[s]:    162.05
	FillingsUpdate:  mu: -0.085946668  nElectrons: 9.000000  magneticMoment: [ Abs: 0.22048  Tot: -0.22000 ]
SCF: Cycle: 20   F: -28.377630891230080   dF: -1.916e-08   |Residual|: 4.734e-06   |deigs|: 1.223e-05  t[s]:    169.28
	FillingsUpdate:  mu: -0.085945755  nElectrons: 9.000000  magneticMoment: [ Abs: 0.22046  Tot: -0.22000 ]
SCF: Cycle: 21   F: -28.377630896415706   dF: -5.186e-09   |Residual|: 3.672e-06   |deigs|: 6.052e-06  t[s]:    176.05
	FillingsUpdate:  mu: -0.085944391  nElectrons: 9.000000  magneticMoment: [ Abs: 0.22046  Tot: -0.22000 ]
SCF: Cycle: 22   F: -28.377630898871235   dF: -2.456e-09   |Residual|: 2.639e-06   |deigs|: 3.430e-06  t[s]:    183.10
SCF: Converged (|Delta E|<1.000000e-08 for 2 iters).


# Ionic positions in lattice coordinates:
ion K   0.000000000000000   0.000000000000000   0.000000000000000 0

# Forces in Lattice coordinates:
force K   0.000000000000000   0.000000000000000   0.000000000000000 0

# Energy components:
   Eewald =       -9.0240130501663280
       EH =       13.7567417753302230
     Eloc =      -35.9656950087360698
      Enl =       -2.7673500894595122
   Epulay =        0.0000000066859396
      Exc =       -4.2389703526883089
       KE =        9.8616563129731016
-------------------------------------
     Etot =      -28.3776304060609519
       TS =        0.0000004928102820
-------------------------------------
        F =      -28.3776308988712351

IonicMinimize: Iter:   0  F: -28.377630898871235  |grad|_K:  0.000e+00  t[s]:    183.51
IonicMinimize: Converged (|grad|_K<1.000000e-04).

#--- Lowdin population analysis ---
# oxidation-state K +0.001
# magnetic-moments K -0.220

End date and time: Sat Feb  5 23:42:38 2022  (Duration: 0-0:03:03.57)
Done!
