
*************** JDFTx 1.6.0 (git hash 42ebbcc2) ***************

Start date and time: Sat Feb  5 23:51:13 2022
Executable jdftx with command-line: -i Alkali.in
Running on hosts (process indices):  d-3-4-2 (0-18)
Divided in process groups (process indices):  0 (0)  1 (1)  2 (2)  3 (3)  4 (4)  5 (5)  6 (6)  7 (7)  8 (8)  9 (9)  10 (10)  11 (11)  12 (12)  13 (13)  14 (14)  15 (15)  16 (16)  17 (17)  18 (18)
Resource initialization completed at t[s]:      0.00
Run totals: 19 processes, 48 threads, 0 GPUs


Input parsed successfully to the following command list (including defaults):

basis kpoint-dependent
coords-type Lattice
core-overlap-check vector
coulomb-interaction Slab 001
davidson-band-ratio 1.1
dump End None
dump-name $INPUT.$VAR
elec-cutoff 20
elec-eigen-algo Davidson
elec-ex-corr gga-PBE
elec-initial-magnetization 0.380000 yes
elec-smearing Fermi 1e-05
electronic-minimize  \
	dirUpdateScheme      FletcherReeves \
	linminMethod         DirUpdateRecommended \
	nIterations          100 \
	history              15 \
	knormThreshold       0 \
	energyDiffThreshold  1e-08 \
	nEnergyDiff          2 \
	alphaTstart          1 \
	alphaTmin            1e-10 \
	updateTestStepSize   yes \
	alphaTreduceFactor   0.1 \
	alphaTincreaseFactor 3 \
	nAlphaAdjustMax      3 \
	wolfeEnergy          0.0001 \
	wolfeGradient        0.9 \
	fdTest               no
electronic-scf  \
	nIterations	10000 \
	energyDiffThreshold	1e-08 \
	residualThreshold	1e-07 \
	mixFraction	0.5 \
	qMetric	0.8 \
	history	10 \
	nEigSteps	2 \
	eigDiffThreshold	1e-08 \
	mixedVariable	Density \
	qKerker	0.8 \
	qKappa	-1 \
	verbose	no \
	mixFractionMag	1.5
exchange-regularization WignerSeitzTruncated
fluid None
fluid-ex-corr (null) lda-PZ
fluid-gummel-loop 10 1.000000e-05
fluid-minimize  \
	dirUpdateScheme      PolakRibiere \
	linminMethod         DirUpdateRecommended \
	nIterations          100 \
	history              15 \
	knormThreshold       0 \
	energyDiffThreshold  0 \
	nEnergyDiff          2 \
	alphaTstart          1 \
	alphaTmin            1e-10 \
	updateTestStepSize   yes \
	alphaTreduceFactor   0.1 \
	alphaTincreaseFactor 3 \
	nAlphaAdjustMax      3 \
	wolfeEnergy          0.0001 \
	wolfeGradient        0.9 \
	fdTest               no
fluid-solvent H2O 55.338 ScalarEOS \
	epsBulk 78.4 \
	pMol 0.92466 \
	epsInf 1.77 \
	Pvap 1.06736e-10 \
	sigmaBulk 4.62e-05 \
	Rvdw 2.61727 \
	Res 1.42 \
	tauNuc 343133 \
	poleEl 15 7 1
forces-output-coords Positions
ion K   0.000000000000000   0.000000000000000   0.000000000000000 0
ion-species SG15/$ID_ONCV_PBE.upf
ion-width 0
ionic-minimize  \
	dirUpdateScheme      L-BFGS \
	linminMethod         DirUpdateRecommended \
	nIterations          0 \
	history              15 \
	knormThreshold       0.0001 \
	energyDiffThreshold  1e-06 \
	nEnergyDiff          2 \
	alphaTstart          1 \
	alphaTmin            1e-10 \
	updateTestStepSize   yes \
	alphaTreduceFactor   0.1 \
	alphaTincreaseFactor 3 \
	nAlphaAdjustMax      3 \
	wolfeEnergy          0.0001 \
	wolfeGradient        0.9 \
	fdTest               no
kpoint   0.000000000000   0.000000000000   0.000000000000  1.00000000000000
kpoint-folding 12 12 1 
latt-move-scale 1 1 1
latt-scale 4 4 1 
lattice  \
	   4.727486978767153   -2.363743489383575    0.000000000000000  \
	  -0.000000000000000    4.094123819672498    0.000000000000000  \
	   0.000000000000000    0.000000000000000   40.000000000000000 
lattice-minimize  \
	dirUpdateScheme      L-BFGS \
	linminMethod         DirUpdateRecommended \
	nIterations          0 \
	history              15 \
	knormThreshold       0 \
	energyDiffThreshold  1e-06 \
	nEnergyDiff          2 \
	alphaTstart          1 \
	alphaTmin            1e-10 \
	updateTestStepSize   yes \
	alphaTreduceFactor   0.1 \
	alphaTincreaseFactor 3 \
	nAlphaAdjustMax      3 \
	wolfeEnergy          0.0001 \
	wolfeGradient        0.9 \
	fdTest               no
lcao-params -1 1e-06 1e-05
pcm-variant GLSSA13
spintype z-spin
subspace-rotation-factor 1 yes
symmetries automatic
symmetry-threshold 0.0001



---------- Setting up symmetries ----------

Found 24 point-group symmetries of the bravais lattice
Found 24 space-group symmetries with basis
Applied RMS atom displacement 0 bohrs to make symmetries exact.

---------- Initializing the Grid ----------
R = 
[      18.9099     -9.45497            0  ]
[            0      16.3765            0  ]
[            0            0           40  ]
unit cell volume = 12387.1
G =
[   0.332269   0.191835         -0  ]
[          0   0.383671         -0  ]
[         -0         -0    0.15708  ]
Minimum fftbox size, Smin = [  80  80  164  ]
Chosen fftbox size, S = [  80  80  168  ]

---------- Exchange Correlation functional ----------
Initalized PBE GGA exchange.
Initalized PBE GGA correlation.

---------- Setting up pseudopotentials ----------
Width of ionic core gaussian charges (only for fluid interactions / plotting) set to 0

Reading pseudopotential file '/home/gridsan/aligho/DFT/build-Nov24/pseudopotentials/SG15/K_ONCV_PBE.upf':
  'K' pseudopotential, 'PBE' functional
  Generated using ONCVPSP code by D. R. Hamann
  Author: Martin Schlipf and Francois Gygi  Date: 150915.
  9 valence electrons, 3 orbitals, 6 projectors, 2222 radial grid points, with lMax = 2
  Transforming local potential to a uniform radial grid of dG=0.02 with 1489 points.
  Transforming nonlocal projectors to a uniform radial grid of dG=0.02 with 432 points.
    3S    l: 0   occupation:  2.0   eigenvalue: -1.298836
    3P    l: 1   occupation:  6.0   eigenvalue: -0.691386
    4S    l: 0   occupation:  1.0   eigenvalue: -0.085223
  Transforming atomic orbitals to a uniform radial grid of dG=0.02 with 432 points.
  Core radius for overlap checks: 2.06 bohrs.
  Reading pulay file /home/gridsan/aligho/DFT/build-Nov24/pseudopotentials/SG15/K_ONCV_PBE.pulay ... using dE_dnG = -1.597219e-05 computed for Ecut = 20.

Initialized 1 species with 1 total atoms.

Folded 1 k-points by 12x12x1 to 144 k-points.

---------- Setting up k-points, bands, fillings ----------
Reduced to 19 k-points under symmetry. 
Computing the number of bands and number of electrons
Calculating initial fillings.
nElectrons:   9.000000   nBands: 6   nStates: 38

----- Setting up reduced wavefunction bases (one per k-point) -----
average nbasis = 52924.021 , ideal nbasis = 52918.836

---------- Setting up coulomb interaction ----------
Initialized slab truncation along lattice direction 001

---------- Setting up 2D ewald sum ----------
Optimum gaussian width for ewald sums = 10.498040 bohr.
Real space sums over 289 unit cells with max indices [  8  8  0  ]
Reciprocal space sums over 81 terms with max indices [  4  4  0  ]

---------- Allocating electronic variables ----------
Initializing wave functions:  linear combination of atomic orbitals
Note: number of bands (6) exceeds available atomic orbitals (5)
K pseudo-atom occupations:   s ( 2 1 )  p ( 6 )
	FillingsUpdate:  mu: -0.085677523  nElectrons: 9.000000  magneticMoment: [ Abs: 0.38000  Tot: +0.38000 ]
LCAOMinimize: Iter:   0  F: -28.3779317947236613  |grad|_K:  3.467e-06  alpha:  1.000e+00
	FillingsUpdate:  mu: -0.085676817  nElectrons: 9.000000  magneticMoment: [ Abs: 0.38000  Tot: +0.38000 ]
LCAOMinimize: Iter:   1  F: -28.3779318028583418  |grad|_K:  1.600e-08  alpha:  9.896e-01  linmin: -2.466e-03  cgtest:  2.165e-01  t[s]:     14.92
LCAOMinimize: Encountered beta<0, resetting CG.
LCAOMinimize: 	Wrong curvature in test step, increasing alphaT to 2.968933e+00.
	FillingsUpdate:  mu: -0.085676816  nElectrons: 9.000000  magneticMoment: [ Abs: 0.38000  Tot: +0.38000 ]
LCAOMinimize: Iter:   2  F: -28.3779318028588179  |grad|_K:  1.671e-10  alpha: -1.342e+00  linmin: -9.130e-03  cgtest:  9.702e-01  t[s]:     18.86
LCAOMinimize: Encountered beta<0, resetting CG.
LCAOMinimize: Converged (|Delta F|<1.000000e-06 for 2 iters).


---- Citations for features of the code used in this run ----

   Software package:
      R. Sundararaman, K. Letchworth-Weaver, K.A. Schwarz, D. Gunceler, Y. Ozhabes and T.A. Arias, 'JDFTx: software for joint density-functional theory', SoftwareX 6, 278 (2017)

   gga-PBE exchange-correlation functional:
      J.P. Perdew, K. Burke and M. Ernzerhof, Phys. Rev. Lett. 77, 3865 (1996)

   Pseudopotentials:
      M Schlipf and F Gygi, Comput. Phys. Commun. 196, 36 (2015)

   Truncated Coulomb potentials:
      R. Sundararaman and T.A. Arias, Phys. Rev. B 87, 165122 (2013)

This list may not be complete. Please suggest additional citations or
report any other bugs at https://github.com/shankar1729/jdftx/issues

Initialization completed successfully at t[s]:     19.12


-------- Electronic minimization -----------
Will mix electronic density at each iteration.
	FillingsUpdate:  mu: -0.085676816  nElectrons: 9.000000  magneticMoment: [ Abs: 0.38000  Tot: +0.38000 ]
	FillingsUpdate:  mu: -0.085754137  nElectrons: 9.000000  magneticMoment: [ Abs: 0.38000  Tot: +0.38000 ]
SCF: Cycle:  0   F: -28.378011573774614   dF: -7.977e-05   |Residual|: 8.982e-04   |deigs|: 1.748e-01  t[s]:     27.14
	FillingsUpdate:  mu: -0.085773127  nElectrons: 9.000000  magneticMoment: [ Abs: 0.38057  Tot: +0.38000 ]
SCF: Cycle:  1   F: -28.378012504648343   dF: -9.309e-07   |Residual|: 3.359e-04   |deigs|: 5.764e-03  t[s]:     33.49
	FillingsUpdate:  mu: -0.085792225  nElectrons: 9.000000  magneticMoment: [ Abs: 0.38068  Tot: +0.38000 ]
SCF: Cycle:  2   F: -28.378012730083103   dF: -2.254e-07   |Residual|: 2.387e-04   |deigs|: 1.792e-03  t[s]:     39.89
	FillingsUpdate:  mu: -0.085819023  nElectrons: 9.000000  magneticMoment: [ Abs: 0.38085  Tot: +0.38000 ]
SCF: Cycle:  3   F: -28.378012894150988   dF: -1.641e-07   |Residual|: 1.830e-04   |deigs|: 5.786e-04  t[s]:     46.41
	FillingsUpdate:  mu: -0.085857358  nElectrons: 9.000000  magneticMoment: [ Abs: 0.38081  Tot: +0.38000 ]
SCF: Cycle:  4   F: -28.378013141331106   dF: -2.472e-07   |Residual|: 1.261e-04   |deigs|: 5.313e-04  t[s]:     53.04
	FillingsUpdate:  mu: -0.085898470  nElectrons: 9.000000  magneticMoment: [ Abs: 0.38097  Tot: +0.38000 ]
SCF: Cycle:  5   F: -28.378013320961557   dF: -1.796e-07   |Residual|: 8.133e-05   |deigs|: 3.039e-04  t[s]:     59.86
	FillingsUpdate:  mu: -0.085901119  nElectrons: 9.000000  magneticMoment: [ Abs: 0.38092  Tot: +0.38000 ]
SCF: Cycle:  6   F: -28.378013421761089   dF: -1.008e-07   |Residual|: 5.360e-05   |deigs|: 6.803e-04  t[s]:     66.71
	FillingsUpdate:  mu: -0.085900537  nElectrons: 9.000000  magneticMoment: [ Abs: 0.38091  Tot: +0.38000 ]
SCF: Cycle:  7   F: -28.378013486474195   dF: -6.471e-08   |Residual|: 3.853e-05   |deigs|: 6.130e-04  t[s]:     73.70
	FillingsUpdate:  mu: -0.085889771  nElectrons: 9.000000  magneticMoment: [ Abs: 0.38088  Tot: +0.38000 ]
SCF: Cycle:  8   F: -28.378013523646324   dF: -3.717e-08   |Residual|: 3.033e-05   |deigs|: 1.783e-04  t[s]:     80.76
	FillingsUpdate:  mu: -0.085868342  nElectrons: 9.000000  magneticMoment: [ Abs: 0.38083  Tot: +0.38000 ]
SCF: Cycle:  9   F: -28.378013547546878   dF: -2.390e-08   |Residual|: 2.225e-05   |deigs|: 8.781e-05  t[s]:     87.91
	FillingsUpdate:  mu: -0.085854227  nElectrons: 9.000000  magneticMoment: [ Abs: 0.38082  Tot: +0.38000 ]
SCF: Cycle: 10   F: -28.378013546920865   dF: +6.260e-10   |Residual|: 2.069e-05   |deigs|: 4.830e-05  t[s]:     95.09
	FillingsUpdate:  mu: -0.085836130  nElectrons: 9.000000  magneticMoment: [ Abs: 0.38091  Tot: +0.38000 ]
SCF: Cycle: 11   F: -28.378013511228811   dF: +3.569e-08   |Residual|: 1.922e-05   |deigs|: 5.845e-05  t[s]:    102.38
	FillingsUpdate:  mu: -0.085815004  nElectrons: 9.000000  magneticMoment: [ Abs: 0.38098  Tot: +0.38000 ]
SCF: Cycle: 12   F: -28.378013495704487   dF: +1.552e-08   |Residual|: 1.690e-05   |deigs|: 7.932e-05  t[s]:    109.61
	FillingsUpdate:  mu: -0.085794729  nElectrons: 9.000000  magneticMoment: [ Abs: 0.38092  Tot: +0.38000 ]
SCF: Cycle: 13   F: -28.378013501485153   dF: -5.781e-09   |Residual|: 1.536e-05   |deigs|: 7.915e-05  t[s]:    116.92
	FillingsUpdate:  mu: -0.085780512  nElectrons: 9.000000  magneticMoment: [ Abs: 0.38090  Tot: +0.38000 ]
SCF: Cycle: 14   F: -28.378013459704437   dF: +4.178e-08   |Residual|: 1.405e-05   |deigs|: 6.633e-05  t[s]:    124.17
	FillingsUpdate:  mu: -0.085766642  nElectrons: 9.000000  magneticMoment: [ Abs: 0.38092  Tot: +0.38000 ]
SCF: Cycle: 15   F: -28.378013518905949   dF: -5.920e-08   |Residual|: 1.219e-05   |deigs|: 5.639e-05  t[s]:    131.41
	FillingsUpdate:  mu: -0.085744498  nElectrons: 9.000000  magneticMoment: [ Abs: 0.38089  Tot: +0.38000 ]
SCF: Cycle: 16   F: -28.378013500657044   dF: +1.825e-08   |Residual|: 1.190e-05   |deigs|: 6.852e-05  t[s]:    138.08
	FillingsUpdate:  mu: -0.085731442  nElectrons: 9.000000  magneticMoment: [ Abs: 0.38086  Tot: +0.38000 ]
SCF: Cycle: 17   F: -28.378013505119455   dF: -4.462e-09   |Residual|: 1.010e-05   |deigs|: 7.549e-05  t[s]:    145.17
	FillingsUpdate:  mu: -0.085725864  nElectrons: 9.000000  magneticMoment: [ Abs: 0.38084  Tot: +0.38000 ]
SCF: Cycle: 18   F: -28.378013573268586   dF: -6.815e-08   |Residual|: 7.619e-06   |deigs|: 7.220e-05  t[s]:    152.48
	FillingsUpdate:  mu: -0.085720279  nElectrons: 9.000000  magneticMoment: [ Abs: 0.38082  Tot: +0.38000 ]
SCF: Cycle: 19   F: -28.378013584204961   dF: -1.094e-08   |Residual|: 5.630e-06   |deigs|: 5.468e-05  t[s]:    159.15
	FillingsUpdate:  mu: -0.085716063  nElectrons: 9.000000  magneticMoment: [ Abs: 0.38082  Tot: +0.38000 ]
SCF: Cycle: 20   F: -28.378013585792758   dF: -1.588e-09   |Residual|: 4.185e-06   |deigs|: 3.736e-05  t[s]:    166.37
	FillingsUpdate:  mu: -0.085714977  nElectrons: 9.000000  magneticMoment: [ Abs: 0.38082  Tot: +0.38000 ]
SCF: Cycle: 21   F: -28.378013598108449   dF: -1.232e-08   |Residual|: 2.988e-06   |deigs|: 2.122e-05  t[s]:    173.32
	FillingsUpdate:  mu: -0.085714546  nElectrons: 9.000000  magneticMoment: [ Abs: 0.38082  Tot: +0.38000 ]
SCF: Cycle: 22   F: -28.378013598993778   dF: -8.853e-10   |Residual|: 2.148e-06   |deigs|: 1.180e-05  t[s]:    179.62
	FillingsUpdate:  mu: -0.085714665  nElectrons: 9.000000  magneticMoment: [ Abs: 0.38082  Tot: +0.38000 ]
SCF: Cycle: 23   F: -28.378013602358198   dF: -3.364e-09   |Residual|: 1.419e-06   |deigs|: 6.895e-06  t[s]:    186.49
SCF: Converged (|Delta E|<1.000000e-08 for 2 iters).


# Ionic positions in lattice coordinates:
ion K   0.000000000000000   0.000000000000000   0.000000000000000 0

# Forces in Lattice coordinates:
force K  -0.000000000000000   0.000000000000000   0.000000000000000 0

# Energy components:
   Eewald =       -9.0240130501663280
       EH =       13.7620551321473439
     Eloc =      -35.9713990653474767
      Enl =       -2.7672408785205596
   Epulay =        0.0000000066859396
      Exc =       -4.2399650875597867
       KE =        9.8625508155846724
-------------------------------------
     Etot =      -28.3780121271762020
       TS =        0.0000014751819949
-------------------------------------
        F =      -28.3780136023581981

IonicMinimize: Iter:   0  F: -28.378013602358198  |grad|_K:  0.000e+00  t[s]:    186.88
IonicMinimize: Converged (|grad|_K<1.000000e-04).

#--- Lowdin population analysis ---
# oxidation-state K +0.001
# magnetic-moments K +0.380

End date and time: Sat Feb  5 23:54:20 2022  (Duration: 0-0:03:06.94)
Done!
