2.03
--------------------------------------------------------------------------
The library attempted to open the following supporting CUDA libraries,
but each of them failed.  CUDA-aware support is disabled.
libcuda.so.1: cannot open shared object file: No such file or directory
libcuda.dylib: cannot open shared object file: No such file or directory
/usr/lib64/libcuda.so.1: cannot open shared object file: No such file or directory
/usr/lib64/libcuda.dylib: cannot open shared object file: No such file or directory
If you are not interested in CUDA-aware support, then run with
--mca opal_warn_on_missing_libcuda 0 to suppress this message.  If you are interested
in CUDA-aware support, then try setting LD_LIBRARY_PATH to the location
of libcuda.so.1 to get passed this issue.
--------------------------------------------------------------------------
--------------------------------------------------------------------------
No OpenFabrics connection schemes reported that they were able to be
used on a specific port.  As such, the openib BTL (OpenFabrics
support) will be disabled for this port.

  Local host:           d-3-15-1
  Local device:         mlx5_1
  Local port:           1
  CPCs attempted:       rdmacm, udcm
--------------------------------------------------------------------------

*************** JDFTx 1.6.0 (git hash 42ebbcc2) ***************

Start date and time: Sun Jan 16 15:08:05 2022
Executable jdftx with command-line: -i Lithium.in
Running on hosts (process indices):  d-3-15-1 (0-18)
Divided in process groups (process indices):  0 (0)  1 (1)  2 (2)  3 (3)  4 (4)  5 (5)  6 (6)  7 (7)  8 (8)  9 (9)  10 (10)  11 (11)  12 (12)  13 (13)  14 (14)  15 (15)  16 (16)  17 (17)  18 (18)
Resource initialization completed at t[s]:      0.00
Run totals: 19 processes, 48 threads, 0 GPUs


Input parsed successfully to the following command list (including defaults):

basis kpoint-dependent
coords-type Lattice
core-overlap-check vector
coulomb-interaction Slab 001
davidson-band-ratio 1.1
dump End None
dump-name $INPUT.$VAR
elec-cutoff 20
elec-eigen-algo Davidson
elec-ex-corr gga-PBE
elec-smearing Fermi 0.01
electronic-minimize  \
	dirUpdateScheme      FletcherReeves \
	linminMethod         DirUpdateRecommended \
	nIterations          100 \
	history              15 \
	knormThreshold       0 \
	energyDiffThreshold  1e-08 \
	nEnergyDiff          2 \
	alphaTstart          1 \
	alphaTmin            1e-10 \
	updateTestStepSize   yes \
	alphaTreduceFactor   0.1 \
	alphaTincreaseFactor 3 \
	nAlphaAdjustMax      3 \
	wolfeEnergy          0.0001 \
	wolfeGradient        0.9 \
	fdTest               no
electronic-scf  \
	nIterations	10000 \
	energyDiffThreshold	1e-08 \
	residualThreshold	1e-07 \
	mixFraction	0.5 \
	qMetric	0.8 \
	history	10 \
	nEigSteps	2 \
	eigDiffThreshold	1e-08 \
	mixedVariable	Density \
	qKerker	0.8 \
	qKappa	-1 \
	verbose	no \
	mixFractionMag	1.5
exchange-regularization WignerSeitzTruncated
fluid None
fluid-ex-corr (null) lda-PZ
fluid-gummel-loop 10 1.000000e-05
fluid-minimize  \
	dirUpdateScheme      PolakRibiere \
	linminMethod         DirUpdateRecommended \
	nIterations          100 \
	history              15 \
	knormThreshold       0 \
	energyDiffThreshold  0 \
	nEnergyDiff          2 \
	alphaTstart          1 \
	alphaTmin            1e-10 \
	updateTestStepSize   yes \
	alphaTreduceFactor   0.1 \
	alphaTincreaseFactor 3 \
	nAlphaAdjustMax      3 \
	wolfeEnergy          0.0001 \
	wolfeGradient        0.9 \
	fdTest               no
fluid-solvent H2O 55.338 ScalarEOS \
	epsBulk 78.4 \
	pMol 0.92466 \
	epsInf 1.77 \
	Pvap 1.06736e-10 \
	sigmaBulk 4.62e-05 \
	Rvdw 2.61727 \
	Res 1.42 \
	tauNuc 343133 \
	poleEl 15 7 1
forces-output-coords Positions
ion Li   0.000000000000000   0.000000000000000   0.000000000000000 0
ion-species SG15/$ID_ONCV_PBE.upf
ion-width 0
ionic-minimize  \
	dirUpdateScheme      L-BFGS \
	linminMethod         DirUpdateRecommended \
	nIterations          0 \
	history              15 \
	knormThreshold       0.0001 \
	energyDiffThreshold  1e-06 \
	nEnergyDiff          2 \
	alphaTstart          1 \
	alphaTmin            1e-10 \
	updateTestStepSize   yes \
	alphaTreduceFactor   0.1 \
	alphaTincreaseFactor 3 \
	nAlphaAdjustMax      3 \
	wolfeEnergy          0.0001 \
	wolfeGradient        0.9 \
	fdTest               no
kpoint   0.000000000000   0.000000000000   0.000000000000  1.00000000000000
kpoint-folding 12 12 1 
latt-move-scale 1 1 1
latt-scale 2.03 2.03 1 
lattice  \
	   4.727486978767153   -2.363743489383575    0.000000000000000  \
	  -0.000000000000000    4.094123819672498    0.000000000000000  \
	   0.000000000000000    0.000000000000000   40.000000000000000 
lattice-minimize  \
	dirUpdateScheme      L-BFGS \
	linminMethod         DirUpdateRecommended \
	nIterations          0 \
	history              15 \
	knormThreshold       0 \
	energyDiffThreshold  1e-06 \
	nEnergyDiff          2 \
	alphaTstart          1 \
	alphaTmin            1e-10 \
	updateTestStepSize   yes \
	alphaTreduceFactor   0.1 \
	alphaTincreaseFactor 3 \
	nAlphaAdjustMax      3 \
	wolfeEnergy          0.0001 \
	wolfeGradient        0.9 \
	fdTest               no
lcao-params -1 1e-06 0.01
pcm-variant GLSSA13
spintype no-spin
subspace-rotation-factor 1 yes
symmetries automatic
symmetry-threshold 0.0001



---------- Setting up symmetries ----------

Found 24 point-group symmetries of the bravais lattice
Found 24 space-group symmetries with basis
Applied RMS atom displacement 0 bohrs to make symmetries exact.

---------- Initializing the Grid ----------
R = 
[       9.5968      -4.7984            0  ]
[            0      8.31107            0  ]
[            0            0           40  ]
unit cell volume = 3190.39
G =
[   0.654717   0.378001         -0  ]
[          0   0.756002         -0  ]
[         -0         -0    0.15708  ]
Minimum fftbox size, Smin = [  40  40  164  ]
Chosen fftbox size, S = [  40  40  168  ]

---------- Exchange Correlation functional ----------
Initalized PBE GGA exchange.
Initalized PBE GGA correlation.

---------- Setting up pseudopotentials ----------
Width of ionic core gaussian charges (only for fluid interactions / plotting) set to 0

Reading pseudopotential file '/home/gridsan/aligho/DFT/build-Nov24/pseudopotentials/SG15/Li_ONCV_PBE.upf':
  'Li' pseudopotential, 'PBE' functional
  Generated using ONCVPSP code by D. R. Hamann
  Author: Martin Schlipf and Francois Gygi  Date: 150915.
  3 valence electrons, 2 orbitals, 4 projectors, 1328 radial grid points, with lMax = 1
  Transforming local potential to a uniform radial grid of dG=0.02 with 1472 points.
  Transforming nonlocal projectors to a uniform radial grid of dG=0.02 with 432 points.
    1S    l: 0   occupation:  2.0   eigenvalue: -1.905623
    2S    l: 0   occupation:  1.0   eigenvalue: -0.105624
  Transforming atomic orbitals to a uniform radial grid of dG=0.02 with 432 points.
  WARNING: large normalization error in atomic orbital 1s (integral: 0.000000).
  Core radius for overlap checks: 1.63 bohrs.
  Reading pulay file /home/gridsan/aligho/DFT/build-Nov24/pseudopotentials/SG15/Li_ONCV_PBE.pulay ... using dE_dnG = -1.230239e-02 computed for Ecut = 20.

Initialized 1 species with 1 total atoms.

Folded 1 k-points by 12x12x1 to 144 k-points.

---------- Setting up k-points, bands, fillings ----------
Reduced to 19 k-points under symmetry. 
Computing the number of bands and number of electrons
Calculating initial fillings.
nElectrons:   3.000000   nBands: 3   nStates: 19

----- Setting up reduced wavefunction bases (one per k-point) -----
average nbasis = 13631.354 , ideal nbasis = 13629.577

---------- Setting up coulomb interaction ----------
Initialized slab truncation along lattice direction 001

---------- Setting up 2D ewald sum ----------
Optimum gaussian width for ewald sums = 5.327755 bohr.
Real space sums over 289 unit cells with max indices [  8  8  0  ]
Reciprocal space sums over 81 terms with max indices [  4  4  0  ]

---------- Allocating electronic variables ----------
Initializing wave functions:  linear combination of atomic orbitals
Note: number of bands (3) exceeds available atomic orbitals (2)
Li pseudo-atom occupations:   s ( 2 1 )
	FillingsUpdate:  mu: +0.338401508  nElectrons: 3.000000
LCAOMinimize: Iter:   0  F: -1.1998598437727988  |grad|_K:  3.127e-03  alpha:  1.000e+00
LCAOMinimize: 	Predicted alpha/alphaT>3.000000, increasing alphaT to 3.000000e+00.
	FillingsUpdate:  mu: +0.338401369  nElectrons: 3.000000
LCAOMinimize: Iter:   1  F: -1.1998676140864004  |grad|_K:  3.120e-03  alpha:  4.648e-03  linmin: -1.389e-02  cgtest:  9.976e-01  t[s]:      2.60
LCAOMinimize: 	Wrong curvature in test step, increasing alphaT to 1.394367e-02.
	FillingsUpdate:  mu: +0.338401230  nElectrons: 3.000000
LCAOMinimize: Iter:   2  F: -1.1998753500456225  |grad|_K:  3.113e-03  alpha: -4.330e+01  linmin: -1.386e-02  cgtest:  9.976e-01  t[s]:      3.14
LCAOMinimize: 	Predicted alpha/alphaT>3.000000, increasing alphaT to 3.000000e+00.
	FillingsUpdate:  mu: +0.338401093  nElectrons: 3.000000
LCAOMinimize: Iter:   3  F: -1.1998829923052232  |grad|_K:  3.106e-03  alpha:  4.612e-03  linmin: -1.383e-02  cgtest:  9.976e-01  t[s]:      3.90
LCAOMinimize: 	Wrong curvature in test step, increasing alphaT to 1.383669e-02.
	FillingsUpdate:  mu: +0.338400957  nElectrons: 3.000000
LCAOMinimize: Iter:   4  F: -1.1998906007697485  |grad|_K:  3.099e-03  alpha: -3.192e+01  linmin: -1.380e-02  cgtest:  9.976e-01  t[s]:      4.45
LCAOMinimize: 	Predicted alpha/alphaT>3.000000, increasing alphaT to 3.000000e+00.
[d-3-15-1:56041] 18 more processes have sent help message help-mpi-common-cuda.txt / dlopen failed
[d-3-15-1:56041] Set MCA parameter "orte_base_help_aggregate" to 0 to see all help / error messages
[d-3-15-1:56041] 18 more processes have sent help message help-mpi-btl-openib-cpc-base.txt / no cpcs for port
	FillingsUpdate:  mu: +0.338400822  nElectrons: 3.000000
LCAOMinimize: Iter:   5  F: -1.1998981212329116  |grad|_K:  3.092e-03  alpha:  4.579e-03  linmin: -1.377e-02  cgtest:  9.976e-01  t[s]:      5.22
LCAOMinimize: 	Wrong curvature in test step, increasing alphaT to 1.373716e-02.
	FillingsUpdate:  mu: +0.338400687  nElectrons: 3.000000
LCAOMinimize: Iter:   6  F: -1.1999056089366282  |grad|_K:  3.085e-03  alpha: -2.555e+01  linmin: -1.374e-02  cgtest:  9.976e-01  t[s]:      5.75
LCAOMinimize: 	Predicted alpha/alphaT>3.000000, increasing alphaT to 3.000000e+00.
	FillingsUpdate:  mu: +0.338400554  nElectrons: 3.000000
LCAOMinimize: Iter:   7  F: -1.1999130161822185  |grad|_K:  3.079e-03  alpha:  4.550e-03  linmin: -1.371e-02  cgtest:  9.976e-01  t[s]:      6.52
LCAOMinimize: 	Wrong curvature in test step, increasing alphaT to 1.364877e-02.
	FillingsUpdate:  mu: +0.338400421  nElectrons: 3.000000
LCAOMinimize: Iter:   8  F: -1.1999203916084422  |grad|_K:  3.072e-03  alpha: -2.149e+01  linmin: -1.368e-02  cgtest:  9.976e-01  t[s]:      7.08
LCAOMinimize: 	Predicted alpha/alphaT>3.000000, increasing alphaT to 3.000000e+00.
	FillingsUpdate:  mu: +0.338400289  nElectrons: 3.000000
LCAOMinimize: Iter:   9  F: -1.1999276970086761  |grad|_K:  3.065e-03  alpha:  4.526e-03  linmin: -1.365e-02  cgtest:  9.976e-01  t[s]:      7.88
LCAOMinimize: 	Wrong curvature in test step, increasing alphaT to 1.357729e-02.
	FillingsUpdate:  mu: +0.338400157  nElectrons: 3.000000
LCAOMinimize: Iter:  10  F: -1.1999349714174063  |grad|_K:  3.059e-03  alpha: -1.866e+01  linmin: -1.362e-02  cgtest:  9.976e-01  t[s]:      8.41
LCAOMinimize: 	Predicted alpha/alphaT>3.000000, increasing alphaT to 3.000000e+00.
	FillingsUpdate:  mu: +0.338400027  nElectrons: 3.000000
LCAOMinimize: Iter:  11  F: -1.1999421924973810  |grad|_K:  3.052e-03  alpha:  4.512e-03  linmin: -1.360e-02  cgtest:  9.976e-01  t[s]:      9.18
LCAOMinimize: 	Wrong curvature in test step, increasing alphaT to 1.353496e-02.
	FillingsUpdate:  mu: +0.338399896  nElectrons: 3.000000
LCAOMinimize: Iter:  12  F: -1.1999493832518267  |grad|_K:  3.046e-03  alpha: -1.657e+01  linmin: -1.357e-02  cgtest:  9.976e-01  t[s]:      9.73
LCAOMinimize: 	Predicted alpha/alphaT>3.000000, increasing alphaT to 3.000000e+00.
	FillingsUpdate:  mu: +0.338399766  nElectrons: 3.000000
LCAOMinimize: Iter:  13  F: -1.1999565512814931  |grad|_K:  3.040e-03  alpha:  4.516e-03  linmin: -1.355e-02  cgtest:  9.976e-01  t[s]:     10.50
LCAOMinimize: 	Wrong curvature in test step, increasing alphaT to 1.354888e-02.
	FillingsUpdate:  mu: +0.338399636  nElectrons: 3.000000
LCAOMinimize: Iter:  14  F: -1.1999636893851664  |grad|_K:  3.033e-03  alpha: -1.498e+01  linmin: -1.352e-02  cgtest:  9.976e-01  t[s]:     11.05
LCAOMinimize: 	Predicted alpha/alphaT>3.000000, increasing alphaT to 3.000000e+00.
	FillingsUpdate:  mu: +0.338399506  nElectrons: 3.000000
LCAOMinimize: Iter:  15  F: -1.1999708659362336  |grad|_K:  3.027e-03  alpha:  4.560e-03  linmin: -1.350e-02  cgtest:  9.976e-01  t[s]:     11.84
LCAOMinimize: 	Wrong curvature in test step, increasing alphaT to 1.367877e-02.
	FillingsUpdate:  mu: +0.338399376  nElectrons: 3.000000
LCAOMinimize: Iter:  16  F: -1.1999780124499462  |grad|_K:  3.020e-03  alpha: -1.372e+01  linmin: -1.348e-02  cgtest:  9.976e-01  t[s]:     12.37
LCAOMinimize: 	Predicted alpha/alphaT>3.000000, increasing alphaT to 3.000000e+00.
	FillingsUpdate:  mu: +0.338399242  nElectrons: 3.000000
LCAOMinimize: Iter:  17  F: -1.1999853213684970  |grad|_K:  3.014e-03  alpha:  4.683e-03  linmin: -1.346e-02  cgtest:  9.975e-01  t[s]:     13.15
LCAOMinimize: 	Wrong curvature in test step, increasing alphaT to 1.404820e-02.
	FillingsUpdate:  mu: +0.338399109  nElectrons: 3.000000
LCAOMinimize: Iter:  18  F: -1.1999925991109397  |grad|_K:  3.007e-03  alpha: -1.268e+01  linmin: -1.343e-02  cgtest:  9.975e-01  t[s]:     13.69
LCAOMinimize: 	Predicted alpha/alphaT>3.000000, increasing alphaT to 3.000000e+00.
	FillingsUpdate:  mu: +0.338398969  nElectrons: 3.000000
LCAOMinimize: Iter:  19  F: -1.2000002754131254  |grad|_K:  3.001e-03  alpha:  4.960e-03  linmin: -1.341e-02  cgtest:  9.973e-01  t[s]:     14.47
LCAOMinimize: 	Wrong curvature in test step, increasing alphaT to 1.488078e-02.
	FillingsUpdate:  mu: +0.338398829  nElectrons: 3.000000
LCAOMinimize: Iter:  20  F: -1.2000079173428708  |grad|_K:  2.994e-03  alpha: -1.180e+01  linmin: -1.339e-02  cgtest:  9.973e-01  t[s]:     15.00
LCAOMinimize: 	Predicted alpha/alphaT>3.000000, increasing alphaT to 3.000000e+00.
	FillingsUpdate:  mu: +0.338398673  nElectrons: 3.000000
LCAOMinimize: Iter:  21  F: -1.2000163625993667  |grad|_K:  2.986e-03  alpha:  5.506e-03  linmin: -1.337e-02  cgtest:  9.970e-01  t[s]:     15.77
LCAOMinimize: 	Wrong curvature in test step, increasing alphaT to 1.651876e-02.
	FillingsUpdate:  mu: +0.338398519  nElectrons: 3.000000
LCAOMinimize: Iter:  22  F: -1.2000247663377137  |grad|_K:  2.979e-03  alpha: -1.101e+01  linmin: -1.334e-02  cgtest:  9.970e-01  t[s]:     16.31
LCAOMinimize: 	Predicted alpha/alphaT>3.000000, increasing alphaT to 3.000000e+00.
	FillingsUpdate:  mu: +0.338398337  nElectrons: 3.000000
LCAOMinimize: Iter:  23  F: -1.2000345947654634  |grad|_K:  2.970e-03  alpha:  6.471e-03  linmin: -1.332e-02  cgtest:  9.965e-01  t[s]:     17.12
LCAOMinimize: 	Wrong curvature in test step, increasing alphaT to 1.941433e-02.
	FillingsUpdate:  mu: +0.338398157  nElectrons: 3.000000
LCAOMinimize: Iter:  24  F: -1.2000443671382610  |grad|_K:  2.962e-03  alpha: -1.027e+01  linmin: -1.330e-02  cgtest:  9.965e-01  t[s]:     17.69
LCAOMinimize: 	Predicted alpha/alphaT>3.000000, increasing alphaT to 3.000000e+00.
	FillingsUpdate:  mu: +0.338397934  nElectrons: 3.000000
LCAOMinimize: Iter:  25  F: -1.2000563783722717  |grad|_K:  2.951e-03  alpha:  8.000e-03  linmin: -1.327e-02  cgtest:  9.956e-01  t[s]:     18.46
LCAOMinimize: 	Wrong curvature in test step, increasing alphaT to 2.399881e-02.
	FillingsUpdate:  mu: +0.338397713  nElectrons: 3.000000
LCAOMinimize: Iter:  26  F: -1.2000683060791291  |grad|_K:  2.941e-03  alpha: -9.560e+00  linmin: -1.324e-02  cgtest:  9.956e-01  t[s]:     18.99
LCAOMinimize: 	Predicted alpha/alphaT>3.000000, increasing alphaT to 3.000000e+00.
	FillingsUpdate:  mu: +0.338397423  nElectrons: 3.000000
LCAOMinimize: Iter:  27  F: -1.2000838402643148  |grad|_K:  2.927e-03  alpha:  1.049e-02  linmin: -1.321e-02  cgtest:  9.942e-01  t[s]:     19.79
LCAOMinimize: 	Wrong curvature in test step, increasing alphaT to 3.147356e-02.
	FillingsUpdate:  mu: +0.338397135  nElectrons: 3.000000
LCAOMinimize: Iter:  28  F: -1.2000992350426638  |grad|_K:  2.913e-03  alpha: -8.876e+00  linmin: -1.318e-02  cgtest:  9.942e-01  t[s]:     20.34
LCAOMinimize: 	Predicted alpha/alphaT>3.000000, increasing alphaT to 3.000000e+00.
	FillingsUpdate:  mu: +0.338396626  nElectrons: 3.000000
LCAOMinimize: Iter:  29  F: -1.2001262503033663  |grad|_K:  2.889e-03  alpha:  1.857e-02  linmin: -1.313e-02  cgtest:  9.896e-01  t[s]:     21.10
LCAOMinimize: 	Wrong curvature in test step, increasing alphaT to 5.571668e-02.
	FillingsUpdate:  mu: +0.338396121  nElectrons: 3.000000
LCAOMinimize: Iter:  30  F: -1.2001528533198484  |grad|_K:  2.866e-03  alpha: -8.117e+00  linmin: -1.309e-02  cgtest:  9.896e-01  t[s]:     21.66
LCAOMinimize: None of the convergence criteria satisfied after 30 iterations.


---- Citations for features of the code used in this run ----

   Software package:
      R. Sundararaman, K. Letchworth-Weaver, K.A. Schwarz, D. Gunceler, Y. Ozhabes and T.A. Arias, 'JDFTx: software for joint density-functional theory', SoftwareX 6, 278 (2017)

   gga-PBE exchange-correlation functional:
      J.P. Perdew, K. Burke and M. Ernzerhof, Phys. Rev. Lett. 77, 3865 (1996)

   Pseudopotentials:
      M Schlipf and F Gygi, Comput. Phys. Commun. 196, 36 (2015)

   Truncated Coulomb potentials:
      R. Sundararaman and T.A. Arias, Phys. Rev. B 87, 165122 (2013)

This list may not be complete. Please suggest additional citations or
report any other bugs at https://github.com/shankar1729/jdftx/issues

Initialization completed successfully at t[s]:     21.70


-------- Electronic minimization -----------
Will mix electronic density at each iteration.
	FillingsUpdate:  mu: +0.338396121  nElectrons: 3.000000
	FillingsUpdate:  mu: -0.948378908  nElectrons: 3.000000
SCF: Cycle:  0   F: -6.852374369078077   dF: -5.652e+00   |Residual|: 1.178e+00   |deigs|: 4.168e+00  t[s]:     22.64
	FillingsUpdate:  mu: -0.838864822  nElectrons: 3.000000
SCF: Cycle:  1   F: -6.937822750641180   dF: -8.545e-02   |Residual|: 7.717e-01   |deigs|: 2.389e-01  t[s]:     23.33
	FillingsUpdate:  mu: -0.588875048  nElectrons: 3.000000
SCF: Cycle:  2   F: -7.054769730484936   dF: -1.169e-01   |Residual|: 4.084e-01   |deigs|: 7.783e-01  t[s]:     24.01
	FillingsUpdate:  mu: -0.632136859  nElectrons: 3.000000
SCF: Cycle:  3   F: -7.062171953274778   dF: -7.402e-03   |Residual|: 2.053e-01   |deigs|: 1.271e-01  t[s]:     24.70
	FillingsUpdate:  mu: -0.591190907  nElectrons: 3.000000
SCF: Cycle:  4   F: -7.059690307643044   dF: +2.482e-03   |Residual|: 9.576e-02   |deigs|: 4.368e-02  t[s]:     25.41
	FillingsUpdate:  mu: -0.544466194  nElectrons: 3.000000
SCF: Cycle:  5   F: -7.060353181456560   dF: -6.629e-04   |Residual|: 1.153e-01   |deigs|: 4.473e-02  t[s]:     26.12
	FillingsUpdate:  mu: -0.415008570  nElectrons: 3.000000
SCF: Cycle:  6   F: -7.063623486727787   dF: -3.270e-03   |Residual|: 2.706e-01   |deigs|: 2.564e-01  t[s]:     26.84
	FillingsUpdate:  mu: -0.327889525  nElectrons: 3.000000
SCF: Cycle:  7   F: -7.065407551545908   dF: -1.784e-03   |Residual|: 3.951e-01   |deigs|: 1.795e-01  t[s]:     27.56
	FillingsUpdate:  mu: -0.310056491  nElectrons: 3.000000
SCF: Cycle:  8   F: -7.068813339957950   dF: -3.406e-03   |Residual|: 1.797e-01   |deigs|: 5.055e-02  t[s]:     28.29
	FillingsUpdate:  mu: -0.208275238  nElectrons: 3.000000
SCF: Cycle:  9   F: -7.056164442092233   dF: +1.265e-02   |Residual|: 5.698e-01   |deigs|: 3.006e-01  t[s]:     29.06
	FillingsUpdate:  mu: -0.224209898  nElectrons: 3.000000
SCF: Cycle: 10   F: -7.068898663517116   dF: -1.273e-02   |Residual|: 2.135e-01   |deigs|: 1.245e-01  t[s]:     29.87
	FillingsUpdate:  mu: -0.082976299  nElectrons: 3.000000
SCF: Cycle: 11   F: -7.069545461706344   dF: -6.468e-04   |Residual|: 6.852e-02   |deigs|: 1.431e-01  t[s]:     30.64
	FillingsUpdate:  mu: -0.111114006  nElectrons: 3.000000
SCF: Cycle: 12   F: -7.070555580585889   dF: -1.010e-03   |Residual|: 4.036e-02   |deigs|: 6.305e-02  t[s]:     31.40
	FillingsUpdate:  mu: -0.095975028  nElectrons: 3.000000
SCF: Cycle: 13   F: -7.071226998722484   dF: -6.714e-04   |Residual|: 4.618e-02   |deigs|: 3.284e-02  t[s]:     32.17
	FillingsUpdate:  mu: -0.102786553  nElectrons: 3.000000
SCF: Cycle: 14   F: -7.071753619042288   dF: -5.266e-04   |Residual|: 5.748e-03   |deigs|: 2.069e-02  t[s]:     32.95
	FillingsUpdate:  mu: -0.118096620  nElectrons: 3.000000
SCF: Cycle: 15   F: -7.071919145067484   dF: -1.655e-04   |Residual|: 6.800e-03   |deigs|: 2.327e-02  t[s]:     33.77
	FillingsUpdate:  mu: -0.111377198  nElectrons: 3.000000
SCF: Cycle: 16   F: -7.071925225523684   dF: -6.080e-06   |Residual|: 2.323e-03   |deigs|: 1.213e-02  t[s]:     34.56
	FillingsUpdate:  mu: -0.112846366  nElectrons: 3.000000
SCF: Cycle: 17   F: -7.071929819579013   dF: -4.594e-06   |Residual|: 4.317e-04   |deigs|: 2.730e-03  t[s]:     35.32
	FillingsUpdate:  mu: -0.112143367  nElectrons: 3.000000
SCF: Cycle: 18   F: -7.071930454166815   dF: -6.346e-07   |Residual|: 3.189e-04   |deigs|: 7.478e-04  t[s]:     36.06
	FillingsUpdate:  mu: -0.112693264  nElectrons: 3.000000
SCF: Cycle: 19   F: -7.071930569538944   dF: -1.154e-07   |Residual|: 2.718e-04   |deigs|: 6.460e-04  t[s]:     36.81
	FillingsUpdate:  mu: -0.112486519  nElectrons: 3.000000
SCF: Cycle: 20   F: -7.071930620243644   dF: -5.070e-08   |Residual|: 1.405e-04   |deigs|: 2.337e-04  t[s]:     37.59
	FillingsUpdate:  mu: -0.112381368  nElectrons: 3.000000
SCF: Cycle: 21   F: -7.071930656380445   dF: -3.614e-08   |Residual|: 8.999e-05   |deigs|: 9.999e-05  t[s]:     38.38
	FillingsUpdate:  mu: -0.112310702  nElectrons: 3.000000
SCF: Cycle: 22   F: -7.071930673906015   dF: -1.753e-08   |Residual|: 2.779e-05   |deigs|: 1.238e-04  t[s]:     39.15
	FillingsUpdate:  mu: -0.112341268  nElectrons: 3.000000
SCF: Cycle: 23   F: -7.071930687141514   dF: -1.324e-08   |Residual|: 1.010e-05   |deigs|: 5.059e-05  t[s]:     39.90
	FillingsUpdate:  mu: -0.112339958  nElectrons: 3.000000
SCF: Cycle: 24   F: -7.071930698303732   dF: -1.116e-08   |Residual|: 6.019e-06   |deigs|: 1.586e-05  t[s]:     40.70
	FillingsUpdate:  mu: -0.112362274  nElectrons: 3.000000
SCF: Cycle: 25   F: -7.071930706827215   dF: -8.523e-09   |Residual|: 4.072e-06   |deigs|: 2.725e-05  t[s]:     41.52
	FillingsUpdate:  mu: -0.112362758  nElectrons: 3.000000
SCF: Cycle: 26   F: -7.071930794915564   dF: -8.809e-08   |Residual|: 2.709e-06   |deigs|: 1.523e-04  t[s]:     42.26
	FillingsUpdate:  mu: -0.112374692  nElectrons: 3.000000
SCF: Cycle: 27   F: -7.071930918537082   dF: -1.236e-07   |Residual|: 2.096e-06   |deigs|: 1.995e-04  t[s]:     42.98
	FillingsUpdate:  mu: -0.112380270  nElectrons: 3.000000
SCF: Cycle: 28   F: -7.071930976323825   dF: -5.779e-08   |Residual|: 1.669e-06   |deigs|: 8.621e-05  t[s]:     43.68
	FillingsUpdate:  mu: -0.112389504  nElectrons: 3.000000
SCF: Cycle: 29   F: -7.071931021352110   dF: -4.503e-08   |Residual|: 1.921e-06   |deigs|: 6.636e-05  t[s]:     44.43
	FillingsUpdate:  mu: -0.112384371  nElectrons: 3.000000
SCF: Cycle: 30   F: -7.071931042729451   dF: -2.138e-08   |Residual|: 1.524e-06   |deigs|: 3.605e-05  t[s]:     45.15
	FillingsUpdate:  mu: -0.112386234  nElectrons: 3.000000
SCF: Cycle: 31   F: -7.071931058754528   dF: -1.603e-08   |Residual|: 4.937e-07   |deigs|: 2.684e-05  t[s]:     45.88
	FillingsUpdate:  mu: -0.112387845  nElectrons: 3.000000
SCF: Cycle: 32   F: -7.071931068607844   dF: -9.853e-09   |Residual|: 2.857e-07   |deigs|: 1.451e-05  t[s]:     46.56
	FillingsUpdate:  mu: -0.112388159  nElectrons: 3.000000
SCF: Cycle: 33   F: -7.071931080555130   dF: -1.195e-08   |Residual|: 2.882e-07   |deigs|: 1.613e-05  t[s]:     47.22
	FillingsUpdate:  mu: -0.112389075  nElectrons: 3.000000
SCF: Cycle: 34   F: -7.071931089663012   dF: -9.108e-09   |Residual|: 1.301e-07   |deigs|: 1.238e-05  t[s]:     47.90
	FillingsUpdate:  mu: -0.112390311  nElectrons: 3.000000
SCF: Cycle: 35   F: -7.071931096970669   dF: -7.308e-09   |Residual|: 1.804e-07   |deigs|: 1.003e-05  t[s]:     48.60
SCF: Converged (|Delta E|<1.000000e-08 for 2 iters).


# Ionic positions in lattice coordinates:
ion Li   0.000000000000000   0.000000000000000   0.000000000000000 0

# Forces in Lattice coordinates:
force Li  -0.000000000000000   0.000000000000000   0.000000000000000 0

# Energy components:
   Eewald =       -1.9757007225323120
       EH =        1.5557329853627495
     Eloc =       -6.2462167901833796
      Enl =       -3.5902688751158802
   Epulay =        0.0000068534818835
      Exc =       -1.5360877661573056
       KE =        4.7298306715865674
-------------------------------------
     Etot =       -7.0627036435576755
       TS =        0.0092274534129932
-------------------------------------
        F =       -7.0719310969706690

IonicMinimize: Iter:   0  F: -7.071931096970669  |grad|_K:  0.000e+00  t[s]:     48.65
IonicMinimize: Converged (|grad|_K<1.000000e-04).

#--- Lowdin population analysis ---
# oxidation-state Li +2.192

End date and time: Sun Jan 16 15:08:54 2022  (Duration: 0-0:00:48.66)
Done!
