1.04
--------------------------------------------------------------------------
The library attempted to open the following supporting CUDA libraries,
but each of them failed.  CUDA-aware support is disabled.
libcuda.so.1: cannot open shared object file: No such file or directory
libcuda.dylib: cannot open shared object file: No such file or directory
/usr/lib64/libcuda.so.1: cannot open shared object file: No such file or directory
/usr/lib64/libcuda.dylib: cannot open shared object file: No such file or directory
If you are not interested in CUDA-aware support, then run with
--mca opal_warn_on_missing_libcuda 0 to suppress this message.  If you are interested
in CUDA-aware support, then try setting LD_LIBRARY_PATH to the location
of libcuda.so.1 to get passed this issue.
--------------------------------------------------------------------------
--------------------------------------------------------------------------
No OpenFabrics connection schemes reported that they were able to be
used on a specific port.  As such, the openib BTL (OpenFabrics
support) will be disabled for this port.

  Local host:           d-16-7-2
  Local device:         mlx5_1
  Local port:           1
  CPCs attempted:       rdmacm, udcm
--------------------------------------------------------------------------

*************** JDFTx 1.6.0 (git hash 42ebbcc2) ***************

Start date and time: Sun Jan 16 15:06:50 2022
Executable jdftx with command-line: -i Lithium.in
Running on hosts (process indices):  d-16-7-2 (0-18)
Divided in process groups (process indices):  0 (0)  1 (1)  2 (2)  3 (3)  4 (4)  5 (5)  6 (6)  7 (7)  8 (8)  9 (9)  10 (10)  11 (11)  12 (12)  13 (13)  14 (14)  15 (15)  16 (16)  17 (17)  18 (18)
Resource initialization completed at t[s]:      0.00
Run totals: 19 processes, 48 threads, 0 GPUs


Input parsed successfully to the following command list (including defaults):

basis kpoint-dependent
coords-type Lattice
core-overlap-check vector
coulomb-interaction Slab 001
davidson-band-ratio 1.1
dump End None
dump-name $INPUT.$VAR
elec-cutoff 20
elec-eigen-algo Davidson
elec-ex-corr gga-PBE
elec-smearing Fermi 0.01
electronic-minimize  \
	dirUpdateScheme      FletcherReeves \
	linminMethod         DirUpdateRecommended \
	nIterations          100 \
	history              15 \
	knormThreshold       0 \
	energyDiffThreshold  1e-08 \
	nEnergyDiff          2 \
	alphaTstart          1 \
	alphaTmin            1e-10 \
	updateTestStepSize   yes \
	alphaTreduceFactor   0.1 \
	alphaTincreaseFactor 3 \
	nAlphaAdjustMax      3 \
	wolfeEnergy          0.0001 \
	wolfeGradient        0.9 \
	fdTest               no
electronic-scf  \
	nIterations	10000 \
	energyDiffThreshold	1e-08 \
	residualThreshold	1e-07 \
	mixFraction	0.5 \
	qMetric	0.8 \
	history	10 \
	nEigSteps	2 \
	eigDiffThreshold	1e-08 \
	mixedVariable	Density \
	qKerker	0.8 \
	qKappa	-1 \
	verbose	no \
	mixFractionMag	1.5
exchange-regularization WignerSeitzTruncated
fluid None
fluid-ex-corr (null) lda-PZ
fluid-gummel-loop 10 1.000000e-05
fluid-minimize  \
	dirUpdateScheme      PolakRibiere \
	linminMethod         DirUpdateRecommended \
	nIterations          100 \
	history              15 \
	knormThreshold       0 \
	energyDiffThreshold  0 \
	nEnergyDiff          2 \
	alphaTstart          1 \
	alphaTmin            1e-10 \
	updateTestStepSize   yes \
	alphaTreduceFactor   0.1 \
	alphaTincreaseFactor 3 \
	nAlphaAdjustMax      3 \
	wolfeEnergy          0.0001 \
	wolfeGradient        0.9 \
	fdTest               no
fluid-solvent H2O 55.338 ScalarEOS \
	epsBulk 78.4 \
	pMol 0.92466 \
	epsInf 1.77 \
	Pvap 1.06736e-10 \
	sigmaBulk 4.62e-05 \
	Rvdw 2.61727 \
	Res 1.42 \
	tauNuc 343133 \
	poleEl 15 7 1
forces-output-coords Positions
ion Li   0.000000000000000   0.000000000000000   0.000000000000000 0
ion-species SG15/$ID_ONCV_PBE.upf
ion-width 0
ionic-minimize  \
	dirUpdateScheme      L-BFGS \
	linminMethod         DirUpdateRecommended \
	nIterations          0 \
	history              15 \
	knormThreshold       0.0001 \
	energyDiffThreshold  1e-06 \
	nEnergyDiff          2 \
	alphaTstart          1 \
	alphaTmin            1e-10 \
	updateTestStepSize   yes \
	alphaTreduceFactor   0.1 \
	alphaTincreaseFactor 3 \
	nAlphaAdjustMax      3 \
	wolfeEnergy          0.0001 \
	wolfeGradient        0.9 \
	fdTest               no
kpoint   0.000000000000   0.000000000000   0.000000000000  1.00000000000000
kpoint-folding 12 12 1 
latt-move-scale 1 1 1
latt-scale 1.04 1.04 1 
lattice  \
	   4.727486978767153   -2.363743489383574    0.000000000000000  \
	  -0.000000000000000    4.094123819672497    0.000000000000000  \
	   0.000000000000000    0.000000000000000   40.000000000000000 
lattice-minimize  \
	dirUpdateScheme      L-BFGS \
	linminMethod         DirUpdateRecommended \
	nIterations          0 \
	history              15 \
	knormThreshold       0 \
	energyDiffThreshold  1e-06 \
	nEnergyDiff          2 \
	alphaTstart          1 \
	alphaTmin            1e-10 \
	updateTestStepSize   yes \
	alphaTreduceFactor   0.1 \
	alphaTincreaseFactor 3 \
	nAlphaAdjustMax      3 \
	wolfeEnergy          0.0001 \
	wolfeGradient        0.9 \
	fdTest               no
lcao-params -1 1e-06 0.01
pcm-variant GLSSA13
spintype no-spin
subspace-rotation-factor 1 yes
symmetries automatic
symmetry-threshold 0.0001



---------- Setting up symmetries ----------

Found 24 point-group symmetries of the bravais lattice
Found 24 space-group symmetries with basis
Applied RMS atom displacement 0 bohrs to make symmetries exact.

---------- Initializing the Grid ----------
R = 
[      4.91659     -2.45829            0  ]
[            0      4.25789            0  ]
[            0            0           40  ]
unit cell volume = 837.371
G =
[    1.27796   0.737829         -0  ]
[          0    1.47566         -0  ]
[         -0         -0    0.15708  ]
Minimum fftbox size, Smin = [  20  20  164  ]
Chosen fftbox size, S = [  20  20  168  ]

---------- Exchange Correlation functional ----------
Initalized PBE GGA exchange.
Initalized PBE GGA correlation.

---------- Setting up pseudopotentials ----------
Width of ionic core gaussian charges (only for fluid interactions / plotting) set to 0

Reading pseudopotential file '/home/gridsan/aligho/DFT/build-Nov24/pseudopotentials/SG15/Li_ONCV_PBE.upf':
  'Li' pseudopotential, 'PBE' functional
  Generated using ONCVPSP code by D. R. Hamann
  Author: Martin Schlipf and Francois Gygi  Date: 150915.
  3 valence electrons, 2 orbitals, 4 projectors, 1328 radial grid points, with lMax = 1
  Transforming local potential to a uniform radial grid of dG=0.02 with 1444 points.
  Transforming nonlocal projectors to a uniform radial grid of dG=0.02 with 432 points.
    1S    l: 0   occupation:  2.0   eigenvalue: -1.905623
    2S    l: 0   occupation:  1.0   eigenvalue: -0.105624
  Transforming atomic orbitals to a uniform radial grid of dG=0.02 with 432 points.
  WARNING: large normalization error in atomic orbital 1s (integral: 0.000000).
  Core radius for overlap checks: 1.63 bohrs.
  Reading pulay file /home/gridsan/aligho/DFT/build-Nov24/pseudopotentials/SG15/Li_ONCV_PBE.pulay ... using dE_dnG = -1.230239e-02 computed for Ecut = 20.

Initialized 1 species with 1 total atoms.

Folded 1 k-points by 12x12x1 to 144 k-points.

---------- Setting up k-points, bands, fillings ----------
Reduced to 19 k-points under symmetry. 
Computing the number of bands and number of electrons
Calculating initial fillings.
nElectrons:   3.000000   nBands: 3   nStates: 19

----- Setting up reduced wavefunction bases (one per k-point) -----
average nbasis = 3577.146 , ideal nbasis = 3577.313

---------- Setting up coulomb interaction ----------
Initialized slab truncation along lattice direction 001

---------- Setting up 2D ewald sum ----------
Optimum gaussian width for ewald sums = 2.729490 bohr.
Real space sums over 289 unit cells with max indices [  8  8  0  ]
Reciprocal space sums over 81 terms with max indices [  4  4  0  ]

---------- Allocating electronic variables ----------
Initializing wave functions:  linear combination of atomic orbitals
Note: number of bands (3) exceeds available atomic orbitals (2)
Li pseudo-atom occupations:   s ( 2 1 )
	FillingsUpdate:  mu: +0.531040369  nElectrons: 3.000000
LCAOMinimize: Iter:   0  F: -0.5425481787962472  |grad|_K:  6.124e-02  alpha:  1.000e+00
	FillingsUpdate:  mu: +0.538624565  nElectrons: 3.000000
LCAOMinimize: Iter:   1  F: -0.6530372683909789  |grad|_K:  8.044e-03  alpha:  6.117e-01  linmin: -5.304e-02  cgtest:  2.607e+00  t[s]:      1.07
LCAOMinimize: Encountered beta<0, resetting CG.
LCAOMinimize: 	Predicted alpha/alphaT>3.000000, increasing alphaT to 1.835223e+00.
	FillingsUpdate:  mu: +0.540435531  nElectrons: 3.000000
LCAOMinimize: Iter:   2  F: -0.6597758985870886  |grad|_K:  5.584e-04  alpha:  1.039e+00  linmin:  2.249e-02  cgtest: -1.129e+00  t[s]:      1.39
	FillingsUpdate:  mu: +0.540436853  nElectrons: 3.000000
LCAOMinimize: Iter:   3  F: -0.6597774801620656  |grad|_K:  5.333e-04  alpha:  1.176e+00  linmin: -2.499e-04  cgtest:  9.831e-01  t[s]:      1.62
LCAOMinimize: Encountered beta<0, resetting CG.
	FillingsUpdate:  mu: +0.540353391  nElectrons: 3.000000
LCAOMinimize: Iter:   4  F: -0.6598014326087407  |grad|_K:  5.625e-06  alpha:  9.810e-01  linmin:  7.073e-03  cgtest: -2.340e-01  t[s]:      1.84
	FillingsUpdate:  mu: +0.540353301  nElectrons: 3.000000
LCAOMinimize: Iter:   5  F: -0.6598014351791578  |grad|_K:  1.355e-06  alpha:  1.012e+00  linmin:  8.853e-05  cgtest:  2.500e-01  t[s]:      2.08
LCAOMinimize: Encountered beta<0, resetting CG.
	FillingsUpdate:  mu: +0.540353512  nElectrons: 3.000000
LCAOMinimize: Iter:   6  F: -0.6598014353310753  |grad|_K:  1.315e-08  alpha:  9.760e-01  linmin: -7.184e-03  cgtest:  1.837e-01  t[s]:      2.31
LCAOMinimize: Encountered beta<0, resetting CG.
LCAOMinimize: Converged (|Delta F|<1.000000e-06 for 2 iters).


---- Citations for features of the code used in this run ----

   Software package:
      R. Sundararaman, K. Letchworth-Weaver, K.A. Schwarz, D. Gunceler, Y. Ozhabes and T.A. Arias, 'JDFTx: software for joint density-functional theory', SoftwareX 6, 278 (2017)

   gga-PBE exchange-correlation functional:
      J.P. Perdew, K. Burke and M. Ernzerhof, Phys. Rev. Lett. 77, 3865 (1996)

   Pseudopotentials:
      M Schlipf and F Gygi, Comput. Phys. Commun. 196, 36 (2015)

   Truncated Coulomb potentials:
      R. Sundararaman and T.A. Arias, Phys. Rev. B 87, 165122 (2013)

This list may not be complete. Please suggest additional citations or
report any other bugs at https://github.com/shankar1729/jdftx/issues

Initialization completed successfully at t[s]:      2.35


-------- Electronic minimization -----------
Will mix electronic density at each iteration.
	FillingsUpdate:  mu: +0.540353512  nElectrons: 3.000000
	FillingsUpdate:  mu: -2.806487558  nElectrons: 3.000000
SCF: Cycle:  0   F: -5.672707780776646   dF: -5.013e+00   |Residual|: 6.911e-01   |deigs|: 4.364e+00  t[s]:      2.70
	FillingsUpdate:  mu: -2.800895441  nElectrons: 3.000000
SCF: Cycle:  1   F: -6.842583100791590   dF: -1.170e+00   |Residual|: 7.095e-01   |deigs|: 6.112e-01  t[s]:      2.92
	FillingsUpdate:  mu: -3.236513697  nElectrons: 3.000000
SCF: Cycle:  2   F: -6.895189356221874   dF: -5.261e-02   |Residual|: 1.925e+00   |deigs|: 8.517e-01  t[s]:      3.14
	FillingsUpdate:  mu: -2.180594531  nElectrons: 3.000000
SCF: Cycle:  3   F: -7.041330656486941   dF: -1.461e-01   |Residual|: 5.253e-01   |deigs|: 1.927e+00  t[s]:      3.36
	FillingsUpdate:  mu: -2.449205182  nElectrons: 3.000000
SCF: Cycle:  4   F: -7.041270554993498   dF: +6.010e-05   |Residual|: 3.021e-01   |deigs|: 5.815e-01  t[s]:      3.59
	FillingsUpdate:  mu: -2.189828298  nElectrons: 3.000000
SCF: Cycle:  5   F: -6.969935427467366   dF: +7.134e-02   |Residual|: 1.009e+00   |deigs|: 2.397e-01  t[s]:      3.82
	FillingsUpdate:  mu: -1.923386422  nElectrons: 3.000000
SCF: Cycle:  6   F: -6.980845948140417   dF: -1.091e-02   |Residual|: 9.926e-01   |deigs|: 2.715e-01  t[s]:      4.05
	FillingsUpdate:  mu: -1.086041869  nElectrons: 3.000000
SCF: Cycle:  7   F: -7.067037602859566   dF: -8.619e-02   |Residual|: 4.317e-01   |deigs|: 1.362e+00  t[s]:      4.28
	FillingsUpdate:  mu: -1.182329740  nElectrons: 3.000000
SCF: Cycle:  8   F: -7.073368140510397   dF: -6.331e-03   |Residual|: 2.463e-01   |deigs|: 4.220e-01  t[s]:      4.51
	FillingsUpdate:  mu: -0.842643815  nElectrons: 3.000000
SCF: Cycle:  9   F: -7.085795014065532   dF: -1.243e-02   |Residual|: 5.841e-02   |deigs|: 4.139e-01  t[s]:      4.74
[d-16-7-2:85423] 18 more processes have sent help message help-mpi-common-cuda.txt / dlopen failed
[d-16-7-2:85423] Set MCA parameter "orte_base_help_aggregate" to 0 to see all help / error messages
[d-16-7-2:85423] 18 more processes have sent help message help-mpi-btl-openib-cpc-base.txt / no cpcs for port
	FillingsUpdate:  mu: -0.632631625  nElectrons: 3.000000
SCF: Cycle: 10   F: -7.078755092097890   dF: +7.040e-03   |Residual|: 1.721e-01   |deigs|: 1.770e-01  t[s]:      4.97
	FillingsUpdate:  mu: -0.202490987  nElectrons: 3.000000
SCF: Cycle: 11   F: -7.087901962923171   dF: -9.147e-03   |Residual|: 1.269e-01   |deigs|: 5.186e-01  t[s]:      5.19
	FillingsUpdate:  mu: -0.389562482  nElectrons: 3.000000
SCF: Cycle: 12   F: -7.083724871375777   dF: +4.177e-03   |Residual|: 6.014e-02   |deigs|: 2.438e-01  t[s]:      5.42
	FillingsUpdate:  mu: -0.152789603  nElectrons: 3.000000
SCF: Cycle: 13   F: -7.088596771870414   dF: -4.872e-03   |Residual|: 2.035e-02   |deigs|: 2.569e-01  t[s]:      5.64
	FillingsUpdate:  mu: -0.127472832  nElectrons: 3.000000
SCF: Cycle: 14   F: -7.089507888119808   dF: -9.111e-04   |Residual|: 1.087e-02   |deigs|: 2.021e-02  t[s]:      5.86
	FillingsUpdate:  mu: -0.148554423  nElectrons: 3.000000
SCF: Cycle: 15   F: -7.089353336248474   dF: +1.546e-04   |Residual|: 1.113e-02   |deigs|: 2.271e-02  t[s]:      6.08
	FillingsUpdate:  mu: -0.124730838  nElectrons: 3.000000
SCF: Cycle: 16   F: -7.089672573530821   dF: -3.192e-04   |Residual|: 6.858e-03   |deigs|: 2.828e-02  t[s]:      6.30
	FillingsUpdate:  mu: -0.142336833  nElectrons: 3.000000
SCF: Cycle: 17   F: -7.089677381120129   dF: -4.808e-06   |Residual|: 2.329e-03   |deigs|: 2.059e-02  t[s]:      6.52
	FillingsUpdate:  mu: -0.143320752  nElectrons: 3.000000
SCF: Cycle: 18   F: -7.089682953963544   dF: -5.573e-06   |Residual|: 1.660e-03   |deigs|: 1.525e-03  t[s]:      6.74
	FillingsUpdate:  mu: -0.137600621  nElectrons: 3.000000
SCF: Cycle: 19   F: -7.089693353917142   dF: -1.040e-05   |Residual|: 4.098e-04   |deigs|: 6.466e-03  t[s]:      6.96
	FillingsUpdate:  mu: -0.140309399  nElectrons: 3.000000
SCF: Cycle: 20   F: -7.089694132628042   dF: -7.787e-07   |Residual|: 3.000e-04   |deigs|: 3.264e-03  t[s]:      7.18
	FillingsUpdate:  mu: -0.139872016  nElectrons: 3.000000
SCF: Cycle: 21   F: -7.089694622151145   dF: -4.895e-07   |Residual|: 7.741e-05   |deigs|: 7.723e-04  t[s]:      7.40
	FillingsUpdate:  mu: -0.140189272  nElectrons: 3.000000
SCF: Cycle: 22   F: -7.089694664154753   dF: -4.200e-08   |Residual|: 6.590e-05   |deigs|: 3.364e-03  t[s]:      7.62
	FillingsUpdate:  mu: -0.140250575  nElectrons: 3.000000
SCF: Cycle: 23   F: -7.089694677853558   dF: -1.370e-08   |Residual|: 2.518e-05   |deigs|: 5.169e-04  t[s]:      7.84
	FillingsUpdate:  mu: -0.140324935  nElectrons: 3.000000
SCF: Cycle: 24   F: -7.089694681842406   dF: -3.989e-09   |Residual|: 1.484e-05   |deigs|: 7.879e-05  t[s]:      8.06
	FillingsUpdate:  mu: -0.140442683  nElectrons: 3.000000
SCF: Cycle: 25   F: -7.089694682149593   dF: -3.072e-10   |Residual|: 7.210e-06   |deigs|: 1.237e-04  t[s]:      8.28
SCF: Converged (|Delta E|<1.000000e-08 for 2 iters).


# Ionic positions in lattice coordinates:
ion Li   0.000000000000000   0.000000000000000   0.000000000000000 0

# Forces in Lattice coordinates:
force Li   0.000000000000000  -0.000000000000000   0.000000000000000 0

# Energy components:
   Eewald =       -3.8564158334044150
       EH =       -0.2134279148451343
     Eloc =       -2.6817587026326062
      Enl =       -3.6232855478195996
   Epulay =       -0.0000024601580657
      Exc =       -1.6159913578255110
       KE =        4.9065355868026757
-------------------------------------
     Etot =       -7.0843462298826552
       TS =        0.0053484522669374
-------------------------------------
        F =       -7.0896946821495925

IonicMinimize: Iter:   0  F: -7.089694682149593  |grad|_K:  0.000e+00  t[s]:      8.29
IonicMinimize: Converged (|grad|_K<1.000000e-04).

#--- Lowdin population analysis ---
# oxidation-state Li +1.979

End date and time: Sun Jan 16 15:06:58 2022  (Duration: 0-0:00:08.30)
Done!
