2.99
--------------------------------------------------------------------------
The library attempted to open the following supporting CUDA libraries,
but each of them failed.  CUDA-aware support is disabled.
libcuda.so.1: cannot open shared object file: No such file or directory
libcuda.dylib: cannot open shared object file: No such file or directory
/usr/lib64/libcuda.so.1: cannot open shared object file: No such file or directory
/usr/lib64/libcuda.dylib: cannot open shared object file: No such file or directory
If you are not interested in CUDA-aware support, then run with
--mca opal_warn_on_missing_libcuda 0 to suppress this message.  If you are interested
in CUDA-aware support, then try setting LD_LIBRARY_PATH to the location
of libcuda.so.1 to get passed this issue.
--------------------------------------------------------------------------
--------------------------------------------------------------------------
No OpenFabrics connection schemes reported that they were able to be
used on a specific port.  As such, the openib BTL (OpenFabrics
support) will be disabled for this port.

  Local host:           d-5-3-1
  Local device:         mlx5_1
  Local port:           1
  CPCs attempted:       rdmacm, udcm
--------------------------------------------------------------------------

*************** JDFTx 1.6.0 (git hash 42ebbcc2) ***************

Start date and time: Sun Jan 16 15:09:16 2022
Executable jdftx with command-line: -i Lithium.in
Running on hosts (process indices):  d-5-3-1 (0-18)
Divided in process groups (process indices):  0 (0)  1 (1)  2 (2)  3 (3)  4 (4)  5 (5)  6 (6)  7 (7)  8 (8)  9 (9)  10 (10)  11 (11)  12 (12)  13 (13)  14 (14)  15 (15)  16 (16)  17 (17)  18 (18)
Resource initialization completed at t[s]:      0.00
Run totals: 19 processes, 48 threads, 0 GPUs


Input parsed successfully to the following command list (including defaults):

basis kpoint-dependent
coords-type Lattice
core-overlap-check vector
coulomb-interaction Slab 001
davidson-band-ratio 1.1
dump End None
dump-name $INPUT.$VAR
elec-cutoff 20
elec-eigen-algo Davidson
elec-ex-corr gga-PBE
elec-smearing Fermi 0.01
electronic-minimize  \
	dirUpdateScheme      FletcherReeves \
	linminMethod         DirUpdateRecommended \
	nIterations          100 \
	history              15 \
	knormThreshold       0 \
	energyDiffThreshold  1e-08 \
	nEnergyDiff          2 \
	alphaTstart          1 \
	alphaTmin            1e-10 \
	updateTestStepSize   yes \
	alphaTreduceFactor   0.1 \
	alphaTincreaseFactor 3 \
	nAlphaAdjustMax      3 \
	wolfeEnergy          0.0001 \
	wolfeGradient        0.9 \
	fdTest               no
electronic-scf  \
	nIterations	10000 \
	energyDiffThreshold	1e-08 \
	residualThreshold	1e-07 \
	mixFraction	0.5 \
	qMetric	0.8 \
	history	10 \
	nEigSteps	2 \
	eigDiffThreshold	1e-08 \
	mixedVariable	Density \
	qKerker	0.8 \
	qKappa	-1 \
	verbose	no \
	mixFractionMag	1.5
exchange-regularization WignerSeitzTruncated
fluid None
fluid-ex-corr (null) lda-PZ
fluid-gummel-loop 10 1.000000e-05
fluid-minimize  \
	dirUpdateScheme      PolakRibiere \
	linminMethod         DirUpdateRecommended \
	nIterations          100 \
	history              15 \
	knormThreshold       0 \
	energyDiffThreshold  0 \
	nEnergyDiff          2 \
	alphaTstart          1 \
	alphaTmin            1e-10 \
	updateTestStepSize   yes \
	alphaTreduceFactor   0.1 \
	alphaTincreaseFactor 3 \
	nAlphaAdjustMax      3 \
	wolfeEnergy          0.0001 \
	wolfeGradient        0.9 \
	fdTest               no
fluid-solvent H2O 55.338 ScalarEOS \
	epsBulk 78.4 \
	pMol 0.92466 \
	epsInf 1.77 \
	Pvap 1.06736e-10 \
	sigmaBulk 4.62e-05 \
	Rvdw 2.61727 \
	Res 1.42 \
	tauNuc 343133 \
	poleEl 15 7 1
forces-output-coords Positions
ion Li   0.000000000000000   0.000000000000000   0.000000000000000 0
ion-species SG15/$ID_ONCV_PBE.upf
ion-width 0
ionic-minimize  \
	dirUpdateScheme      L-BFGS \
	linminMethod         DirUpdateRecommended \
	nIterations          0 \
	history              15 \
	knormThreshold       0.0001 \
	energyDiffThreshold  1e-06 \
	nEnergyDiff          2 \
	alphaTstart          1 \
	alphaTmin            1e-10 \
	updateTestStepSize   yes \
	alphaTreduceFactor   0.1 \
	alphaTincreaseFactor 3 \
	nAlphaAdjustMax      3 \
	wolfeEnergy          0.0001 \
	wolfeGradient        0.9 \
	fdTest               no
kpoint   0.000000000000   0.000000000000   0.000000000000  1.00000000000000
kpoint-folding 12 12 1 
latt-move-scale 1 1 1
latt-scale 2.99 2.99 1 
lattice  \
	   4.727486978767153   -2.363743489383575    0.000000000000000  \
	  -0.000000000000000    4.094123819672498    0.000000000000000  \
	   0.000000000000000    0.000000000000000   40.000000000000000 
lattice-minimize  \
	dirUpdateScheme      L-BFGS \
	linminMethod         DirUpdateRecommended \
	nIterations          0 \
	history              15 \
	knormThreshold       0 \
	energyDiffThreshold  1e-06 \
	nEnergyDiff          2 \
	alphaTstart          1 \
	alphaTmin            1e-10 \
	updateTestStepSize   yes \
	alphaTreduceFactor   0.1 \
	alphaTincreaseFactor 3 \
	nAlphaAdjustMax      3 \
	wolfeEnergy          0.0001 \
	wolfeGradient        0.9 \
	fdTest               no
lcao-params -1 1e-06 0.01
pcm-variant GLSSA13
spintype no-spin
subspace-rotation-factor 1 yes
symmetries automatic
symmetry-threshold 0.0001



---------- Setting up symmetries ----------

Found 24 point-group symmetries of the bravais lattice
Found 24 space-group symmetries with basis
Applied RMS atom displacement 0 bohrs to make symmetries exact.

---------- Initializing the Grid ----------
R = 
[      14.1352     -7.06759            0  ]
[            0      12.2414            0  ]
[            0            0           40  ]
unit cell volume = 6921.4
G =
[   0.444507   0.256636         -0  ]
[          0   0.513272         -0  ]
[         -0         -0    0.15708  ]
Minimum fftbox size, Smin = [  60  60  164  ]
Chosen fftbox size, S = [  60  60  168  ]

---------- Exchange Correlation functional ----------
Initalized PBE GGA exchange.
Initalized PBE GGA correlation.

---------- Setting up pseudopotentials ----------
Width of ionic core gaussian charges (only for fluid interactions / plotting) set to 0

Reading pseudopotential file '/home/gridsan/aligho/DFT/build-Nov24/pseudopotentials/SG15/Li_ONCV_PBE.upf':
  'Li' pseudopotential, 'PBE' functional
  Generated using ONCVPSP code by D. R. Hamann
  Author: Martin Schlipf and Francois Gygi  Date: 150915.
  3 valence electrons, 2 orbitals, 4 projectors, 1328 radial grid points, with lMax = 1
  Transforming local potential to a uniform radial grid of dG=0.02 with 1493 points.
  Transforming nonlocal projectors to a uniform radial grid of dG=0.02 with 432 points.
    1S    l: 0   occupation:  2.0   eigenvalue: -1.905623
    2S    l: 0   occupation:  1.0   eigenvalue: -0.105624
  Transforming atomic orbitals to a uniform radial grid of dG=0.02 with 432 points.
  WARNING: large normalization error in atomic orbital 1s (integral: 0.000000).
  Core radius for overlap checks: 1.63 bohrs.
  Reading pulay file /home/gridsan/aligho/DFT/build-Nov24/pseudopotentials/SG15/Li_ONCV_PBE.pulay ... using dE_dnG = -1.230239e-02 computed for Ecut = 20.

Initialized 1 species with 1 total atoms.

Folded 1 k-points by 12x12x1 to 144 k-points.

---------- Setting up k-points, bands, fillings ----------
Reduced to 19 k-points under symmetry. 
Computing the number of bands and number of electrons
Calculating initial fillings.
nElectrons:   3.000000   nBands: 3   nStates: 19

----- Setting up reduced wavefunction bases (one per k-point) -----
average nbasis = 29571.813 , ideal nbasis = 29568.730

---------- Setting up coulomb interaction ----------
Initialized slab truncation along lattice direction 001

---------- Setting up 2D ewald sum ----------
Optimum gaussian width for ewald sums = 7.847285 bohr.
Real space sums over 289 unit cells with max indices [  8  8  0  ]
Reciprocal space sums over 81 terms with max indices [  4  4  0  ]

---------- Allocating electronic variables ----------
Initializing wave functions:  linear combination of atomic orbitals
Note: number of bands (3) exceeds available atomic orbitals (2)
Li pseudo-atom occupations:   s ( 2 1 )
	FillingsUpdate:  mu: +0.359007902  nElectrons: 3.000000
LCAOMinimize: Iter:   0  F: -1.2877227015726431  |grad|_K:  2.892e-03  alpha:  1.000e+00
	FillingsUpdate:  mu: +0.358980270  nElectrons: 3.000000
LCAOMinimize: Iter:   1  F: -1.2878490255073232  |grad|_K:  3.535e-03  alpha:  1.542e+00  linmin:  2.381e-02  cgtest: -4.406e-01  t[s]:      4.48
LCAOMinimize: 	Bad step direction: g.d > 0.
LCAOMinimize: 	Undoing step.
[d-5-3-1:67490] 18 more processes have sent help message help-mpi-common-cuda.txt / dlopen failed
[d-5-3-1:67490] Set MCA parameter "orte_base_help_aggregate" to 0 to see all help / error messages
[d-5-3-1:67490] 18 more processes have sent help message help-mpi-btl-openib-cpc-base.txt / no cpcs for port
LCAOMinimize: 	Step failed: resetting search direction.
	FillingsUpdate:  mu: +0.358980270  nElectrons: 3.000000
LCAOMinimize: Iter:   2  F: -1.2878490255073232  |grad|_K:  3.535e-03  alpha:  0.000e+00
	FillingsUpdate:  mu: +0.358985236  nElectrons: 3.000000
LCAOMinimize: Iter:   3  F: -1.2886893055236197  |grad|_K:  3.585e-05  alpha:  9.835e-01  linmin: -1.779e-02  cgtest:  6.942e-01  t[s]:      6.16
LCAOMinimize: Encountered beta<0, resetting CG.
	FillingsUpdate:  mu: +0.358985599  nElectrons: 3.000000
LCAOMinimize: Iter:   4  F: -1.2886894199037402  |grad|_K:  9.778e-07  alpha:  1.041e+00  linmin: -4.467e-04  cgtest:  9.457e-03  t[s]:      7.18
	FillingsUpdate:  mu: +0.358985601  nElectrons: 3.000000
LCAOMinimize: Iter:   5  F: -1.2886894199861880  |grad|_K:  1.775e-08  alpha:  1.027e+00  linmin:  1.938e-02  cgtest: -7.925e-01  t[s]:      8.21
LCAOMinimize: Converged (|Delta F|<1.000000e-06 for 2 iters).


---- Citations for features of the code used in this run ----

   Software package:
      R. Sundararaman, K. Letchworth-Weaver, K.A. Schwarz, D. Gunceler, Y. Ozhabes and T.A. Arias, 'JDFTx: software for joint density-functional theory', SoftwareX 6, 278 (2017)

   gga-PBE exchange-correlation functional:
      J.P. Perdew, K. Burke and M. Ernzerhof, Phys. Rev. Lett. 77, 3865 (1996)

   Pseudopotentials:
      M Schlipf and F Gygi, Comput. Phys. Commun. 196, 36 (2015)

   Truncated Coulomb potentials:
      R. Sundararaman and T.A. Arias, Phys. Rev. B 87, 165122 (2013)

This list may not be complete. Please suggest additional citations or
report any other bugs at https://github.com/shankar1729/jdftx/issues

Initialization completed successfully at t[s]:      8.27


-------- Electronic minimization -----------
Will mix electronic density at each iteration.
	FillingsUpdate:  mu: +0.358985601  nElectrons: 3.000000
	FillingsUpdate:  mu: -0.694260190  nElectrons: 3.000000
SCF: Cycle:  0   F: -6.887571666293364   dF: -5.599e+00   |Residual|: 1.221e+00   |deigs|: 4.164e+00  t[s]:      9.99
	FillingsUpdate:  mu: -0.581476233  nElectrons: 3.000000
SCF: Cycle:  1   F: -6.927684317451428   dF: -4.011e-02   |Residual|: 7.615e-01   |deigs|: 2.702e-01  t[s]:     11.35
	FillingsUpdate:  mu: -0.320213511  nElectrons: 3.000000
SCF: Cycle:  2   F: -7.053897137028140   dF: -1.262e-01   |Residual|: 3.281e-01   |deigs|: 7.234e-01  t[s]:     12.71
	FillingsUpdate:  mu: -0.365525561  nElectrons: 3.000000
SCF: Cycle:  3   F: -7.052934956588048   dF: +9.622e-04   |Residual|: 1.800e-01   |deigs|: 9.275e-02  t[s]:     14.12
	FillingsUpdate:  mu: -0.321208380  nElectrons: 3.000000
SCF: Cycle:  4   F: -7.047996744043030   dF: +4.938e-03   |Residual|: 1.429e-01   |deigs|: 3.840e-02  t[s]:     15.56
	FillingsUpdate:  mu: -0.316609914  nElectrons: 3.000000
SCF: Cycle:  5   F: -7.050021541125141   dF: -2.025e-03   |Residual|: 3.874e-02   |deigs|: 3.544e-02  t[s]:     17.02
	FillingsUpdate:  mu: -0.219141580  nElectrons: 3.000000
SCF: Cycle:  6   F: -7.056000726549470   dF: -5.979e-03   |Residual|: 1.732e-01   |deigs|: 1.966e-01  t[s]:     18.55
	FillingsUpdate:  mu: -0.273794564  nElectrons: 3.000000
SCF: Cycle:  7   F: -7.055415637266705   dF: +5.851e-04   |Residual|: 1.321e-01   |deigs|: 1.824e-01  t[s]:     20.07
	FillingsUpdate:  mu: -0.219447814  nElectrons: 3.000000
SCF: Cycle:  8   F: -7.052799280832109   dF: +2.616e-03   |Residual|: 3.560e-01   |deigs|: 6.254e-02  t[s]:     21.69
	FillingsUpdate:  mu: -0.146084397  nElectrons: 3.000000
SCF: Cycle:  9   F: -7.039987408465459   dF: +1.281e-02   |Residual|: 4.885e-01   |deigs|: 2.784e-01  t[s]:     23.31
	FillingsUpdate:  mu: -0.156385160  nElectrons: 3.000000
SCF: Cycle: 10   F: -7.057151193310467   dF: -1.716e-02   |Residual|: 3.862e-02   |deigs|: 1.293e-01  t[s]:     24.95
	FillingsUpdate:  mu: -0.154364213  nElectrons: 3.000000
SCF: Cycle: 11   F: -7.057816479532288   dF: -6.653e-04   |Residual|: 6.030e-02   |deigs|: 1.305e-02  t[s]:     26.56
	FillingsUpdate:  mu: -0.126756022  nElectrons: 3.000000
SCF: Cycle: 12   F: -7.058098390142988   dF: -2.819e-04   |Residual|: 2.296e-02   |deigs|: 5.271e-02  t[s]:     28.22
	FillingsUpdate:  mu: -0.098530423  nElectrons: 3.000000
SCF: Cycle: 13   F: -7.058338327796866   dF: -2.399e-04   |Residual|: 2.362e-02   |deigs|: 4.391e-02  t[s]:     29.87
	FillingsUpdate:  mu: -0.096909426  nElectrons: 3.000000
SCF: Cycle: 14   F: -7.058439227262119   dF: -1.009e-04   |Residual|: 7.699e-03   |deigs|: 9.905e-03  t[s]:     31.49
	FillingsUpdate:  mu: -0.107204159  nElectrons: 3.000000
SCF: Cycle: 15   F: -7.058732364230367   dF: -2.931e-04   |Residual|: 3.338e-03   |deigs|: 1.777e-02  t[s]:     33.13
	FillingsUpdate:  mu: -0.107760689  nElectrons: 3.000000
SCF: Cycle: 16   F: -7.058783900749113   dF: -5.154e-05   |Residual|: 1.189e-03   |deigs|: 1.022e-03  t[s]:     34.75
	FillingsUpdate:  mu: -0.106783851  nElectrons: 3.000000
SCF: Cycle: 17   F: -7.058787699317526   dF: -3.799e-06   |Residual|: 4.720e-04   |deigs|: 1.804e-03  t[s]:     36.41
	FillingsUpdate:  mu: -0.106261265  nElectrons: 3.000000
SCF: Cycle: 18   F: -7.058791221061847   dF: -3.522e-06   |Residual|: 3.313e-04   |deigs|: 8.407e-04  t[s]:     38.04
	FillingsUpdate:  mu: -0.106485395  nElectrons: 3.000000
SCF: Cycle: 19   F: -7.058791765680309   dF: -5.446e-07   |Residual|: 8.500e-05   |deigs|: 5.087e-04  t[s]:     39.66
	FillingsUpdate:  mu: -0.106497486  nElectrons: 3.000000
SCF: Cycle: 20   F: -7.058792097444401   dF: -3.318e-07   |Residual|: 6.899e-05   |deigs|: 9.800e-05  t[s]:     41.29
	FillingsUpdate:  mu: -0.106508198  nElectrons: 3.000000
SCF: Cycle: 21   F: -7.058792339268735   dF: -2.418e-07   |Residual|: 3.380e-05   |deigs|: 1.126e-04  t[s]:     42.97
	FillingsUpdate:  mu: -0.106563120  nElectrons: 3.000000
SCF: Cycle: 22   F: -7.058792560473509   dF: -2.212e-07   |Residual|: 2.525e-05   |deigs|: 1.486e-04  t[s]:     44.60
	FillingsUpdate:  mu: -0.106538111  nElectrons: 3.000000
SCF: Cycle: 23   F: -7.058792797377283   dF: -2.369e-07   |Residual|: 1.860e-05   |deigs|: 1.385e-04  t[s]:     46.22
	FillingsUpdate:  mu: -0.106554878  nElectrons: 3.000000
SCF: Cycle: 24   F: -7.058793045089081   dF: -2.477e-07   |Residual|: 1.338e-05   |deigs|: 1.493e-04  t[s]:     47.78
	FillingsUpdate:  mu: -0.106600940  nElectrons: 3.000000
SCF: Cycle: 25   F: -7.058793291588858   dF: -2.465e-07   |Residual|: 1.214e-05   |deigs|: 1.476e-04  t[s]:     49.36
	FillingsUpdate:  mu: -0.106617660  nElectrons: 3.000000
SCF: Cycle: 26   F: -7.058793449467419   dF: -1.579e-07   |Residual|: 9.526e-06   |deigs|: 8.370e-05  t[s]:     50.92
	FillingsUpdate:  mu: -0.106638287  nElectrons: 3.000000
SCF: Cycle: 27   F: -7.058794278909700   dF: -8.294e-07   |Residual|: 7.844e-06   |deigs|: 3.564e-04  t[s]:     52.48
	FillingsUpdate:  mu: -0.106643985  nElectrons: 3.000000
SCF: Cycle: 28   F: -7.058794452952844   dF: -1.740e-07   |Residual|: 7.102e-06   |deigs|: 7.347e-05  t[s]:     54.00
	FillingsUpdate:  mu: -0.106647861  nElectrons: 3.000000
SCF: Cycle: 29   F: -7.058794464027343   dF: -1.107e-08   |Residual|: 5.066e-06   |deigs|: 7.165e-06  t[s]:     55.58
	FillingsUpdate:  mu: -0.106660516  nElectrons: 3.000000
SCF: Cycle: 30   F: -7.058794471235958   dF: -7.209e-09   |Residual|: 4.134e-06   |deigs|: 1.262e-05  t[s]:     57.18
	FillingsUpdate:  mu: -0.106659856  nElectrons: 3.000000
SCF: Cycle: 31   F: -7.058794474731563   dF: -3.496e-09   |Residual|: 2.590e-06   |deigs|: 1.130e-06  t[s]:     58.78
SCF: Converged (|Delta E|<1.000000e-08 for 2 iters).


# Ionic positions in lattice coordinates:
ion Li   0.000000000000000   0.000000000000000   0.000000000000000 0

# Forces in Lattice coordinates:
force Li   0.000000000000000   0.000000000000000   0.000000000000000 0

# Energy components:
   Eewald =       -1.3413620290102310
       EH =        2.2030594787690498
     Eloc =       -7.5405131628356523
      Enl =       -3.6021848336010454
   Epulay =        0.0000054787423470
      Exc =       -1.5334276742085549
       KE =        4.7696900701633318
-------------------------------------
     Etot =       -7.0447326719807553
       TS =        0.0140618027508083
-------------------------------------
        F =       -7.0587944747315632

IonicMinimize: Iter:   0  F: -7.058794474731563  |grad|_K:  0.000e+00  t[s]:     58.88
IonicMinimize: Converged (|grad|_K<1.000000e-04).

#--- Lowdin population analysis ---
# oxidation-state Li +2.096

End date and time: Sun Jan 16 15:10:15 2022  (Duration: 0-0:00:58.89)
Done!
