3.47
--------------------------------------------------------------------------
The library attempted to open the following supporting CUDA libraries,
but each of them failed.  CUDA-aware support is disabled.
libcuda.so.1: cannot open shared object file: No such file or directory
libcuda.dylib: cannot open shared object file: No such file or directory
/usr/lib64/libcuda.so.1: cannot open shared object file: No such file or directory
/usr/lib64/libcuda.dylib: cannot open shared object file: No such file or directory
If you are not interested in CUDA-aware support, then run with
--mca opal_warn_on_missing_libcuda 0 to suppress this message.  If you are interested
in CUDA-aware support, then try setting LD_LIBRARY_PATH to the location
of libcuda.so.1 to get passed this issue.
--------------------------------------------------------------------------
--------------------------------------------------------------------------
No OpenFabrics connection schemes reported that they were able to be
used on a specific port.  As such, the openib BTL (OpenFabrics
support) will be disabled for this port.

  Local host:           d-3-11-2
  Local device:         mlx5_1
  Local port:           1
  CPCs attempted:       rdmacm, udcm
--------------------------------------------------------------------------

*************** JDFTx 1.6.0 (git hash 42ebbcc2) ***************

Start date and time: Sun Jan 16 15:10:26 2022
Executable jdftx with command-line: -i Lithium.in
Running on hosts (process indices):  d-3-11-2 (0-18)
Divided in process groups (process indices):  0 (0)  1 (1)  2 (2)  3 (3)  4 (4)  5 (5)  6 (6)  7 (7)  8 (8)  9 (9)  10 (10)  11 (11)  12 (12)  13 (13)  14 (14)  15 (15)  16 (16)  17 (17)  18 (18)
Resource initialization completed at t[s]:      0.00
Run totals: 19 processes, 48 threads, 0 GPUs


Input parsed successfully to the following command list (including defaults):

basis kpoint-dependent
coords-type Lattice
core-overlap-check vector
coulomb-interaction Slab 001
davidson-band-ratio 1.1
dump End None
dump-name $INPUT.$VAR
elec-cutoff 20
elec-eigen-algo Davidson
elec-ex-corr gga-PBE
elec-smearing Fermi 0.01
electronic-minimize  \
	dirUpdateScheme      FletcherReeves \
	linminMethod         DirUpdateRecommended \
	nIterations          100 \
	history              15 \
	knormThreshold       0 \
	energyDiffThreshold  1e-08 \
	nEnergyDiff          2 \
	alphaTstart          1 \
	alphaTmin            1e-10 \
	updateTestStepSize   yes \
	alphaTreduceFactor   0.1 \
	alphaTincreaseFactor 3 \
	nAlphaAdjustMax      3 \
	wolfeEnergy          0.0001 \
	wolfeGradient        0.9 \
	fdTest               no
electronic-scf  \
	nIterations	10000 \
	energyDiffThreshold	1e-08 \
	residualThreshold	1e-07 \
	mixFraction	0.5 \
	qMetric	0.8 \
	history	10 \
	nEigSteps	2 \
	eigDiffThreshold	1e-08 \
	mixedVariable	Density \
	qKerker	0.8 \
	qKappa	-1 \
	verbose	no \
	mixFractionMag	1.5
exchange-regularization WignerSeitzTruncated
fluid None
fluid-ex-corr (null) lda-PZ
fluid-gummel-loop 10 1.000000e-05
fluid-minimize  \
	dirUpdateScheme      PolakRibiere \
	linminMethod         DirUpdateRecommended \
	nIterations          100 \
	history              15 \
	knormThreshold       0 \
	energyDiffThreshold  0 \
	nEnergyDiff          2 \
	alphaTstart          1 \
	alphaTmin            1e-10 \
	updateTestStepSize   yes \
	alphaTreduceFactor   0.1 \
	alphaTincreaseFactor 3 \
	nAlphaAdjustMax      3 \
	wolfeEnergy          0.0001 \
	wolfeGradient        0.9 \
	fdTest               no
fluid-solvent H2O 55.338 ScalarEOS \
	epsBulk 78.4 \
	pMol 0.92466 \
	epsInf 1.77 \
	Pvap 1.06736e-10 \
	sigmaBulk 4.62e-05 \
	Rvdw 2.61727 \
	Res 1.42 \
	tauNuc 343133 \
	poleEl 15 7 1
forces-output-coords Positions
ion Li   0.000000000000000   0.000000000000000   0.000000000000000 0
ion-species SG15/$ID_ONCV_PBE.upf
ion-width 0
ionic-minimize  \
	dirUpdateScheme      L-BFGS \
	linminMethod         DirUpdateRecommended \
	nIterations          0 \
	history              15 \
	knormThreshold       0.0001 \
	energyDiffThreshold  1e-06 \
	nEnergyDiff          2 \
	alphaTstart          1 \
	alphaTmin            1e-10 \
	updateTestStepSize   yes \
	alphaTreduceFactor   0.1 \
	alphaTincreaseFactor 3 \
	nAlphaAdjustMax      3 \
	wolfeEnergy          0.0001 \
	wolfeGradient        0.9 \
	fdTest               no
kpoint   0.000000000000   0.000000000000   0.000000000000  1.00000000000000
kpoint-folding 12 12 1 
latt-move-scale 1 1 1
latt-scale 3.47 3.47 1 
lattice  \
	   4.727486978767154   -2.363743489383575    0.000000000000000  \
	  -0.000000000000000    4.094123819672498    0.000000000000000  \
	   0.000000000000000    0.000000000000000   40.000000000000000 
lattice-minimize  \
	dirUpdateScheme      L-BFGS \
	linminMethod         DirUpdateRecommended \
	nIterations          0 \
	history              15 \
	knormThreshold       0 \
	energyDiffThreshold  1e-06 \
	nEnergyDiff          2 \
	alphaTstart          1 \
	alphaTmin            1e-10 \
	updateTestStepSize   yes \
	alphaTreduceFactor   0.1 \
	alphaTincreaseFactor 3 \
	nAlphaAdjustMax      3 \
	wolfeEnergy          0.0001 \
	wolfeGradient        0.9 \
	fdTest               no
lcao-params -1 1e-06 0.01
pcm-variant GLSSA13
spintype no-spin
subspace-rotation-factor 1 yes
symmetries automatic
symmetry-threshold 0.0001



---------- Setting up symmetries ----------

Found 24 point-group symmetries of the bravais lattice
Found 24 space-group symmetries with basis
Applied RMS atom displacement 0 bohrs to make symmetries exact.

---------- Initializing the Grid ----------
R = 
[      16.4044     -8.20219            0  ]
[            0      14.2066            0  ]
[            0            0           40  ]
unit cell volume = 9322.02
G =
[   0.383019   0.221136         -0  ]
[          0   0.442272         -0  ]
[         -0         -0    0.15708  ]
Minimum fftbox size, Smin = [  68  68  164  ]
Chosen fftbox size, S = [  70  70  168  ]

---------- Exchange Correlation functional ----------
Initalized PBE GGA exchange.
Initalized PBE GGA correlation.

---------- Setting up pseudopotentials ----------
Width of ionic core gaussian charges (only for fluid interactions / plotting) set to 0

Reading pseudopotential file '/home/gridsan/aligho/DFT/build-Nov24/pseudopotentials/SG15/Li_ONCV_PBE.upf':
  'Li' pseudopotential, 'PBE' functional
  Generated using ONCVPSP code by D. R. Hamann
  Author: Martin Schlipf and Francois Gygi  Date: 150915.
  3 valence electrons, 2 orbitals, 4 projectors, 1328 radial grid points, with lMax = 1
  Transforming local potential to a uniform radial grid of dG=0.02 with 1500 points.
  Transforming nonlocal projectors to a uniform radial grid of dG=0.02 with 432 points.
    1S    l: 0   occupation:  2.0   eigenvalue: -1.905623
    2S    l: 0   occupation:  1.0   eigenvalue: -0.105624
  Transforming atomic orbitals to a uniform radial grid of dG=0.02 with 432 points.
  WARNING: large normalization error in atomic orbital 1s (integral: 0.000000).
  Core radius for overlap checks: 1.63 bohrs.
  Reading pulay file /home/gridsan/aligho/DFT/build-Nov24/pseudopotentials/SG15/Li_ONCV_PBE.pulay ... using dE_dnG = -1.230239e-02 computed for Ecut = 20.

Initialized 1 species with 1 total atoms.

Folded 1 k-points by 12x12x1 to 144 k-points.

---------- Setting up k-points, bands, fillings ----------
Reduced to 19 k-points under symmetry. 
Computing the number of bands and number of electrons
Calculating initial fillings.
nElectrons:   3.000000   nBands: 3   nStates: 19

----- Setting up reduced wavefunction bases (one per k-point) -----
average nbasis = 39825.229 , ideal nbasis = 39824.400

---------- Setting up coulomb interaction ----------
Initialized slab truncation along lattice direction 001

---------- Setting up 2D ewald sum ----------
Optimum gaussian width for ewald sums = 9.107050 bohr.
Real space sums over 289 unit cells with max indices [  8  8  0  ]
Reciprocal space sums over 81 terms with max indices [  4  4  0  ]

---------- Allocating electronic variables ----------
Initializing wave functions:  linear combination of atomic orbitals
Note: number of bands (3) exceeds available atomic orbitals (2)
Li pseudo-atom occupations:   s ( 2 1 )
	FillingsUpdate:  mu: +0.356292157  nElectrons: 3.000000
LCAOMinimize: Iter:   0  F: -1.3107144698177142  |grad|_K:  2.914e-03  alpha:  1.000e+00
[d-3-11-2:88073] 18 more processes have sent help message help-mpi-common-cuda.txt / dlopen failed
[d-3-11-2:88073] Set MCA parameter "orte_base_help_aggregate" to 0 to see all help / error messages
[d-3-11-2:88073] 18 more processes have sent help message help-mpi-btl-openib-cpc-base.txt / no cpcs for port
	FillingsUpdate:  mu: +0.356202890  nElectrons: 3.000000
LCAOMinimize: Iter:   1  F: -1.3114259861471431  |grad|_K:  1.608e-03  alpha:  1.367e+00  linmin:  1.676e-02  cgtest: -6.606e-01  t[s]:      6.01
LCAOMinimize: 	Bad step direction: g.d > 0.
LCAOMinimize: 	Undoing step.
LCAOMinimize: 	Step failed: resetting search direction.
	FillingsUpdate:  mu: +0.356202890  nElectrons: 3.000000
LCAOMinimize: Iter:   2  F: -1.3114259861471431  |grad|_K:  1.608e-03  alpha:  0.000e+00
	FillingsUpdate:  mu: +0.356232850  nElectrons: 3.000000
LCAOMinimize: Iter:   3  F: -1.3116351906541057  |grad|_K:  2.359e-05  alpha:  9.838e-01  linmin: -1.987e-02  cgtest:  7.210e-01  t[s]:      8.18
LCAOMinimize: Encountered beta<0, resetting CG.
	FillingsUpdate:  mu: +0.356233255  nElectrons: 3.000000
LCAOMinimize: Iter:   4  F: -1.3116352400495936  |grad|_K:  6.935e-07  alpha:  1.038e+00  linmin: -2.991e-04  cgtest:  8.803e-03  t[s]:      9.55
	FillingsUpdate:  mu: +0.356233247  nElectrons: 3.000000
LCAOMinimize: Iter:   5  F: -1.3116352400928792  |grad|_K:  1.980e-08  alpha:  1.040e+00  linmin:  1.814e-02  cgtest: -9.420e-01  t[s]:     10.95
LCAOMinimize: Converged (|Delta F|<1.000000e-06 for 2 iters).


---- Citations for features of the code used in this run ----

   Software package:
      R. Sundararaman, K. Letchworth-Weaver, K.A. Schwarz, D. Gunceler, Y. Ozhabes and T.A. Arias, 'JDFTx: software for joint density-functional theory', SoftwareX 6, 278 (2017)

   gga-PBE exchange-correlation functional:
      J.P. Perdew, K. Burke and M. Ernzerhof, Phys. Rev. Lett. 77, 3865 (1996)

   Pseudopotentials:
      M Schlipf and F Gygi, Comput. Phys. Commun. 196, 36 (2015)

   Truncated Coulomb potentials:
      R. Sundararaman and T.A. Arias, Phys. Rev. B 87, 165122 (2013)

This list may not be complete. Please suggest additional citations or
report any other bugs at https://github.com/shankar1729/jdftx/issues

Initialization completed successfully at t[s]:     11.03


-------- Electronic minimization -----------
Will mix electronic density at each iteration.
	FillingsUpdate:  mu: +0.356233247  nElectrons: 3.000000
	FillingsUpdate:  mu: -0.643407250  nElectrons: 3.000000
SCF: Cycle:  0   F: -6.887938481272320   dF: -5.576e+00   |Residual|: 1.226e+00   |deigs|: 4.155e+00  t[s]:     13.32
	FillingsUpdate:  mu: -0.529020943  nElectrons: 3.000000
SCF: Cycle:  1   F: -6.926641316117977   dF: -3.870e-02   |Residual|: 7.604e-01   |deigs|: 2.738e-01  t[s]:     15.16
	FillingsUpdate:  mu: -0.258684424  nElectrons: 3.000000
SCF: Cycle:  2   F: -7.054289765869170   dF: -1.276e-01   |Residual|: 3.196e-01   |deigs|: 7.199e-01  t[s]:     17.03
	FillingsUpdate:  mu: -0.309342791  nElectrons: 3.000000
SCF: Cycle:  3   F: -7.052077760435043   dF: +2.212e-03   |Residual|: 1.795e-01   |deigs|: 8.936e-02  t[s]:     18.95
	FillingsUpdate:  mu: -0.266535465  nElectrons: 3.000000
SCF: Cycle:  4   F: -7.048067863038888   dF: +4.010e-03   |Residual|: 1.431e-01   |deigs|: 3.615e-02  t[s]:     20.90
	FillingsUpdate:  mu: -0.261231245  nElectrons: 3.000000
SCF: Cycle:  5   F: -7.050097279850042   dF: -2.029e-03   |Residual|: 3.149e-02   |deigs|: 3.846e-02  t[s]:     22.86
	FillingsUpdate:  mu: -0.177518154  nElectrons: 3.000000
SCF: Cycle:  6   F: -7.055997217781214   dF: -5.900e-03   |Residual|: 1.635e-01   |deigs|: 1.774e-01  t[s]:     24.95
	FillingsUpdate:  mu: -0.215768083  nElectrons: 3.000000
SCF: Cycle:  7   F: -7.056363893136658   dF: -3.667e-04   |Residual|: 2.448e-02   |deigs|: 1.144e-01  t[s]:     27.04
	FillingsUpdate:  mu: -0.208198949  nElectrons: 3.000000
SCF: Cycle:  8   F: -7.050316052628749   dF: +6.048e-03   |Residual|: 4.650e-01   |deigs|: 1.797e-01  t[s]:     29.15
	FillingsUpdate:  mu: -0.153967569  nElectrons: 3.000000
SCF: Cycle:  9   F: -7.051533528007064   dF: -1.217e-03   |Residual|: 2.306e-01   |deigs|: 2.342e-01  t[s]:     31.30
	FillingsUpdate:  mu: -0.134400843  nElectrons: 3.000000
SCF: Cycle: 10   F: -7.054664639346362   dF: -3.131e-03   |Residual|: 2.022e-01   |deigs|: 4.991e-02  t[s]:     33.53
	FillingsUpdate:  mu: -0.144550316  nElectrons: 3.000000
SCF: Cycle: 11   F: -7.057873868472610   dF: -3.209e-03   |Residual|: 1.885e-02   |deigs|: 7.648e-02  t[s]:     35.74
	FillingsUpdate:  mu: -0.108517627  nElectrons: 3.000000
SCF: Cycle: 12   F: -7.057852312908136   dF: +2.156e-05   |Residual|: 5.483e-02   |deigs|: 6.870e-02  t[s]:     37.97
	FillingsUpdate:  mu: -0.099465901  nElectrons: 3.000000
SCF: Cycle: 13   F: -7.057774998251313   dF: +7.731e-05   |Residual|: 1.279e-02   |deigs|: 8.251e-03  t[s]:     40.20
	FillingsUpdate:  mu: -0.114846636  nElectrons: 3.000000
SCF: Cycle: 14   F: -7.058141554820805   dF: -3.666e-04   |Residual|: 9.307e-03   |deigs|: 3.288e-02  t[s]:     42.43
	FillingsUpdate:  mu: -0.114688287  nElectrons: 3.000000
SCF: Cycle: 15   F: -7.058146127632486   dF: -4.573e-06   |Residual|: 9.784e-03   |deigs|: 5.197e-04  t[s]:     44.66
	FillingsUpdate:  mu: -0.109623358  nElectrons: 3.000000
SCF: Cycle: 16   F: -7.058200804944774   dF: -5.468e-05   |Residual|: 5.178e-03   |deigs|: 9.757e-03  t[s]:     46.88
	FillingsUpdate:  mu: -0.106679999  nElectrons: 3.000000
SCF: Cycle: 17   F: -7.058221582015991   dF: -2.078e-05   |Residual|: 1.671e-03   |deigs|: 5.502e-03  t[s]:     49.08
	FillingsUpdate:  mu: -0.104874321  nElectrons: 3.000000
SCF: Cycle: 18   F: -7.058234500182018   dF: -1.292e-05   |Residual|: 1.093e-03   |deigs|: 3.316e-03  t[s]:     51.31
	FillingsUpdate:  mu: -0.105756869  nElectrons: 3.000000
SCF: Cycle: 19   F: -7.058236674773708   dF: -2.175e-06   |Residual|: 3.300e-04   |deigs|: 1.740e-03  t[s]:     53.49
	FillingsUpdate:  mu: -0.105666493  nElectrons: 3.000000
SCF: Cycle: 20   F: -7.058237804126382   dF: -1.129e-06   |Residual|: 1.650e-04   |deigs|: 1.952e-04  t[s]:     55.72
	FillingsUpdate:  mu: -0.105861009  nElectrons: 3.000000
SCF: Cycle: 21   F: -7.058238686939728   dF: -8.828e-07   |Residual|: 9.441e-05   |deigs|: 2.575e-04  t[s]:     57.96
	FillingsUpdate:  mu: -0.105744878  nElectrons: 3.000000
SCF: Cycle: 22   F: -7.058238925922041   dF: -2.390e-07   |Residual|: 1.035e-04   |deigs|: 1.524e-04  t[s]:     60.18
	FillingsUpdate:  mu: -0.105781457  nElectrons: 3.000000
SCF: Cycle: 23   F: -7.058239061772227   dF: -1.359e-07   |Residual|: 2.679e-05   |deigs|: 1.002e-04  t[s]:     62.41
	FillingsUpdate:  mu: -0.105754790  nElectrons: 3.000000
SCF: Cycle: 24   F: -7.058239165075873   dF: -1.033e-07   |Residual|: 2.341e-05   |deigs|: 5.443e-05  t[s]:     64.65
	FillingsUpdate:  mu: -0.105774866  nElectrons: 3.000000
SCF: Cycle: 25   F: -7.058239231034169   dF: -6.596e-08   |Residual|: 1.076e-05   |deigs|: 4.254e-05  t[s]:     66.84
	FillingsUpdate:  mu: -0.105780328  nElectrons: 3.000000
SCF: Cycle: 26   F: -7.058239279765389   dF: -4.873e-08   |Residual|: 6.154e-06   |deigs|: 2.202e-05  t[s]:     69.00
	FillingsUpdate:  mu: -0.105780268  nElectrons: 3.000000
SCF: Cycle: 27   F: -7.058239315225151   dF: -3.546e-08   |Residual|: 4.162e-06   |deigs|: 1.321e-05  t[s]:     71.20
	FillingsUpdate:  mu: -0.105782514  nElectrons: 3.000000
SCF: Cycle: 28   F: -7.058239341543318   dF: -2.632e-08   |Residual|: 1.122e-06   |deigs|: 9.158e-06  t[s]:     73.38
	FillingsUpdate:  mu: -0.105783132  nElectrons: 3.000000
SCF: Cycle: 29   F: -7.058239363576507   dF: -2.203e-08   |Residual|: 7.901e-07   |deigs|: 8.834e-06  t[s]:     75.56
	FillingsUpdate:  mu: -0.105784093  nElectrons: 3.000000
SCF: Cycle: 30   F: -7.058239382836448   dF: -1.926e-08   |Residual|: 3.435e-07   |deigs|: 8.974e-06  t[s]:     77.70
	FillingsUpdate:  mu: -0.105783942  nElectrons: 3.000000
SCF: Cycle: 31   F: -7.058239401746990   dF: -1.891e-08   |Residual|: 3.551e-07   |deigs|: 9.563e-06  t[s]:     79.81
	FillingsUpdate:  mu: -0.105784056  nElectrons: 3.000000
SCF: Cycle: 32   F: -7.058239421024208   dF: -1.928e-08   |Residual|: 5.140e-07   |deigs|: 1.071e-05  t[s]:     81.84
	FillingsUpdate:  mu: -0.105784206  nElectrons: 3.000000
SCF: Cycle: 33   F: -7.058239441026425   dF: -2.000e-08   |Residual|: 8.361e-07   |deigs|: 1.183e-05  t[s]:     83.97
	FillingsUpdate:  mu: -0.105783970  nElectrons: 3.000000
SCF: Cycle: 34   F: -7.058239462648968   dF: -2.162e-08   |Residual|: 1.122e-06   |deigs|: 1.318e-05  t[s]:     86.04
	FillingsUpdate:  mu: -0.105784165  nElectrons: 3.000000
SCF: Cycle: 35   F: -7.058239486734310   dF: -2.409e-08   |Residual|: 1.490e-06   |deigs|: 1.508e-05  t[s]:     88.13
	FillingsUpdate:  mu: -0.105784373  nElectrons: 3.000000
SCF: Cycle: 36   F: -7.058239512249724   dF: -2.552e-08   |Residual|: 1.850e-06   |deigs|: 1.608e-05  t[s]:     90.16
	FillingsUpdate:  mu: -0.105784352  nElectrons: 3.000000
SCF: Cycle: 37   F: -7.058239539572647   dF: -2.732e-08   |Residual|: 2.109e-06   |deigs|: 1.719e-05  t[s]:     92.17
	FillingsUpdate:  mu: -0.105784334  nElectrons: 3.000000
SCF: Cycle: 38   F: -7.058239568654873   dF: -2.908e-08   |Residual|: 2.655e-06   |deigs|: 1.822e-05  t[s]:     94.22
	FillingsUpdate:  mu: -0.105784397  nElectrons: 3.000000
SCF: Cycle: 39   F: -7.058239599204542   dF: -3.055e-08   |Residual|: 3.034e-06   |deigs|: 1.901e-05  t[s]:     96.24
	FillingsUpdate:  mu: -0.105784377  nElectrons: 3.000000
SCF: Cycle: 40   F: -7.058239630924448   dF: -3.172e-08   |Residual|: 3.597e-06   |deigs|: 1.954e-05  t[s]:     98.28
	FillingsUpdate:  mu: -0.105784673  nElectrons: 3.000000
SCF: Cycle: 41   F: -7.058239663340746   dF: -3.242e-08   |Residual|: 3.866e-06   |deigs|: 1.982e-05  t[s]:    100.33
	FillingsUpdate:  mu: -0.105784956  nElectrons: 3.000000
SCF: Cycle: 42   F: -7.058239696027055   dF: -3.269e-08   |Residual|: 4.194e-06   |deigs|: 1.976e-05  t[s]:    102.35
	FillingsUpdate:  mu: -0.105784812  nElectrons: 3.000000
SCF: Cycle: 43   F: -7.058239728453674   dF: -3.243e-08   |Residual|: 4.712e-06   |deigs|: 1.931e-05  t[s]:    104.33
	FillingsUpdate:  mu: -0.105785071  nElectrons: 3.000000
SCF: Cycle: 44   F: -7.058239760181628   dF: -3.173e-08   |Residual|: 5.158e-06   |deigs|: 1.877e-05  t[s]:    106.33
	FillingsUpdate:  mu: -0.105785197  nElectrons: 3.000000
SCF: Cycle: 45   F: -7.058239790763593   dF: -3.058e-08   |Residual|: 5.508e-06   |deigs|: 1.787e-05  t[s]:    108.32
	FillingsUpdate:  mu: -0.105784931  nElectrons: 3.000000
SCF: Cycle: 46   F: -7.058239819892305   dF: -2.913e-08   |Residual|: 6.243e-06   |deigs|: 1.677e-05  t[s]:    110.30
	FillingsUpdate:  mu: -0.105785734  nElectrons: 3.000000
SCF: Cycle: 47   F: -7.058239846554765   dF: -2.666e-08   |Residual|: 6.059e-06   |deigs|: 1.544e-05  t[s]:    112.38
	FillingsUpdate:  mu: -0.105785035  nElectrons: 3.000000
SCF: Cycle: 48   F: -7.058239872673704   dF: -2.612e-08   |Residual|: 7.062e-06   |deigs|: 1.468e-05  t[s]:    114.41
	FillingsUpdate:  mu: -0.105785618  nElectrons: 3.000000
SCF: Cycle: 49   F: -7.058239896568767   dF: -2.390e-08   |Residual|: 7.000e-06   |deigs|: 1.356e-05  t[s]:    116.42
	FillingsUpdate:  mu: -0.105785190  nElectrons: 3.000000
SCF: Cycle: 50   F: -7.058239918840836   dF: -2.227e-08   |Residual|: 7.781e-06   |deigs|: 1.232e-05  t[s]:    118.46
	FillingsUpdate:  mu: -0.105785308  nElectrons: 3.000000
SCF: Cycle: 51   F: -7.058239938580832   dF: -1.974e-08   |Residual|: 7.828e-06   |deigs|: 1.096e-05  t[s]:    120.43
	FillingsUpdate:  mu: -0.105785849  nElectrons: 3.000000
SCF: Cycle: 52   F: -7.058239955695875   dF: -1.712e-08   |Residual|: 7.705e-06   |deigs|: 9.525e-06  t[s]:    122.49
	FillingsUpdate:  mu: -0.105784203  nElectrons: 3.000000
SCF: Cycle: 53   F: -7.058239970769565   dF: -1.507e-08   |Residual|: 9.179e-06   |deigs|: 8.191e-06  t[s]:    124.57
	FillingsUpdate:  mu: -0.105784303  nElectrons: 3.000000
SCF: Cycle: 54   F: -7.058239984496059   dF: -1.373e-08   |Residual|: 9.435e-06   |deigs|: 7.470e-06  t[s]:    126.64
	FillingsUpdate:  mu: -0.105785630  nElectrons: 3.000000
SCF: Cycle: 55   F: -7.058239996151577   dF: -1.166e-08   |Residual|: 8.584e-06   |deigs|: 6.780e-06  t[s]:    128.70
	FillingsUpdate:  mu: -0.105785396  nElectrons: 3.000000
SCF: Cycle: 56   F: -7.058240007909903   dF: -1.176e-08   |Residual|: 9.082e-06   |deigs|: 6.272e-06  t[s]:    130.76
	FillingsUpdate:  mu: -0.105785861  nElectrons: 3.000000
SCF: Cycle: 57   F: -7.058240017461959   dF: -9.552e-09   |Residual|: 8.756e-06   |deigs|: 5.249e-06  t[s]:    132.84
	FillingsUpdate:  mu: -0.105785123  nElectrons: 3.000000
SCF: Cycle: 58   F: -7.058240026596996   dF: -9.135e-09   |Residual|: 9.609e-06   |deigs|: 4.870e-06  t[s]:    134.90
SCF: Converged (|Delta E|<1.000000e-08 for 2 iters).


# Ionic positions in lattice coordinates:
ion Li   0.000000000000000   0.000000000000000   0.000000000000000 0

# Forces in Lattice coordinates:
force Li   0.000000000000000   0.000000000000000   0.000000000000000 0

# Energy components:
   Eewald =       -1.1558133909915251
       EH =        2.3934670137523506
     Eloc =       -7.9180023700916564
      Enl =       -3.6030916012084679
   Epulay =        0.0000010936478455
      Exc =       -1.5343733222576739
       KE =        4.7737641618151061
-------------------------------------
     Etot =       -7.0440484153340188
       TS =        0.0141916112629776
-------------------------------------
        F =       -7.0582400265969962

IonicMinimize: Iter:   0  F: -7.058240026596996  |grad|_K:  0.000e+00  t[s]:    135.04
IonicMinimize: Converged (|grad|_K<1.000000e-04).

#--- Lowdin population analysis ---
# oxidation-state Li +2.085

End date and time: Sun Jan 16 15:12:41 2022  (Duration: 0-0:02:15.06)
Done!
