2.48
--------------------------------------------------------------------------
The library attempted to open the following supporting CUDA libraries,
but each of them failed.  CUDA-aware support is disabled.
libcuda.so.1: cannot open shared object file: No such file or directory
libcuda.dylib: cannot open shared object file: No such file or directory
/usr/lib64/libcuda.so.1: cannot open shared object file: No such file or directory
/usr/lib64/libcuda.dylib: cannot open shared object file: No such file or directory
If you are not interested in CUDA-aware support, then run with
--mca opal_warn_on_missing_libcuda 0 to suppress this message.  If you are interested
in CUDA-aware support, then try setting LD_LIBRARY_PATH to the location
of libcuda.so.1 to get passed this issue.
--------------------------------------------------------------------------
--------------------------------------------------------------------------
No OpenFabrics connection schemes reported that they were able to be
used on a specific port.  As such, the openib BTL (OpenFabrics
support) will be disabled for this port.

  Local host:           d-16-11-3
  Local device:         mlx5_1
  Local port:           1
  CPCs attempted:       rdmacm, udcm
--------------------------------------------------------------------------

*************** JDFTx 1.6.0 (git hash 42ebbcc2) ***************

Start date and time: Sun Jan 16 15:08:05 2022
Executable jdftx with command-line: -i Lithium.in
Running on hosts (process indices):  d-16-11-3 (0-18)
Divided in process groups (process indices):  0 (0)  1 (1)  2 (2)  3 (3)  4 (4)  5 (5)  6 (6)  7 (7)  8 (8)  9 (9)  10 (10)  11 (11)  12 (12)  13 (13)  14 (14)  15 (15)  16 (16)  17 (17)  18 (18)
Resource initialization completed at t[s]:      0.00
Run totals: 19 processes, 48 threads, 0 GPUs


Input parsed successfully to the following command list (including defaults):

basis kpoint-dependent
coords-type Lattice
core-overlap-check vector
coulomb-interaction Slab 001
davidson-band-ratio 1.1
dump End None
dump-name $INPUT.$VAR
elec-cutoff 20
elec-eigen-algo Davidson
elec-ex-corr gga-PBE
elec-smearing Fermi 0.01
electronic-minimize  \
	dirUpdateScheme      FletcherReeves \
	linminMethod         DirUpdateRecommended \
	nIterations          100 \
	history              15 \
	knormThreshold       0 \
	energyDiffThreshold  1e-08 \
	nEnergyDiff          2 \
	alphaTstart          1 \
	alphaTmin            1e-10 \
	updateTestStepSize   yes \
	alphaTreduceFactor   0.1 \
	alphaTincreaseFactor 3 \
	nAlphaAdjustMax      3 \
	wolfeEnergy          0.0001 \
	wolfeGradient        0.9 \
	fdTest               no
electronic-scf  \
	nIterations	10000 \
	energyDiffThreshold	1e-08 \
	residualThreshold	1e-07 \
	mixFraction	0.5 \
	qMetric	0.8 \
	history	10 \
	nEigSteps	2 \
	eigDiffThreshold	1e-08 \
	mixedVariable	Density \
	qKerker	0.8 \
	qKappa	-1 \
	verbose	no \
	mixFractionMag	1.5
exchange-regularization WignerSeitzTruncated
fluid None
fluid-ex-corr (null) lda-PZ
fluid-gummel-loop 10 1.000000e-05
fluid-minimize  \
	dirUpdateScheme      PolakRibiere \
	linminMethod         DirUpdateRecommended \
	nIterations          100 \
	history              15 \
	knormThreshold       0 \
	energyDiffThreshold  0 \
	nEnergyDiff          2 \
	alphaTstart          1 \
	alphaTmin            1e-10 \
	updateTestStepSize   yes \
	alphaTreduceFactor   0.1 \
	alphaTincreaseFactor 3 \
	nAlphaAdjustMax      3 \
	wolfeEnergy          0.0001 \
	wolfeGradient        0.9 \
	fdTest               no
fluid-solvent H2O 55.338 ScalarEOS \
	epsBulk 78.4 \
	pMol 0.92466 \
	epsInf 1.77 \
	Pvap 1.06736e-10 \
	sigmaBulk 4.62e-05 \
	Rvdw 2.61727 \
	Res 1.42 \
	tauNuc 343133 \
	poleEl 15 7 1
forces-output-coords Positions
ion Li   0.000000000000000   0.000000000000000   0.000000000000000 0
ion-species SG15/$ID_ONCV_PBE.upf
ion-width 0
ionic-minimize  \
	dirUpdateScheme      L-BFGS \
	linminMethod         DirUpdateRecommended \
	nIterations          0 \
	history              15 \
	knormThreshold       0.0001 \
	energyDiffThreshold  1e-06 \
	nEnergyDiff          2 \
	alphaTstart          1 \
	alphaTmin            1e-10 \
	updateTestStepSize   yes \
	alphaTreduceFactor   0.1 \
	alphaTincreaseFactor 3 \
	nAlphaAdjustMax      3 \
	wolfeEnergy          0.0001 \
	wolfeGradient        0.9 \
	fdTest               no
kpoint   0.000000000000   0.000000000000   0.000000000000  1.00000000000000
kpoint-folding 12 12 1 
latt-move-scale 1 1 1
latt-scale 2.48 2.48 1 
lattice  \
	   4.727486978767153   -2.363743489383575    0.000000000000000  \
	  -0.000000000000000    4.094123819672498    0.000000000000000  \
	   0.000000000000000    0.000000000000000   40.000000000000000 
lattice-minimize  \
	dirUpdateScheme      L-BFGS \
	linminMethod         DirUpdateRecommended \
	nIterations          0 \
	history              15 \
	knormThreshold       0 \
	energyDiffThreshold  1e-06 \
	nEnergyDiff          2 \
	alphaTstart          1 \
	alphaTmin            1e-10 \
	updateTestStepSize   yes \
	alphaTreduceFactor   0.1 \
	alphaTincreaseFactor 3 \
	nAlphaAdjustMax      3 \
	wolfeEnergy          0.0001 \
	wolfeGradient        0.9 \
	fdTest               no
lcao-params -1 1e-06 0.01
pcm-variant GLSSA13
spintype no-spin
subspace-rotation-factor 1 yes
symmetries automatic
symmetry-threshold 0.0001



---------- Setting up symmetries ----------

Found 24 point-group symmetries of the bravais lattice
Found 24 space-group symmetries with basis
Applied RMS atom displacement 0 bohrs to make symmetries exact.

---------- Initializing the Grid ----------
R = 
[      11.7242     -5.86208            0  ]
[            0      10.1534            0  ]
[            0            0           40  ]
unit cell volume = 4761.62
G =
[   0.535917   0.309412         -0  ]
[          0   0.618824         -0  ]
[         -0         -0    0.15708  ]
Minimum fftbox size, Smin = [  48  48  164  ]
Chosen fftbox size, S = [  48  48  168  ]

---------- Exchange Correlation functional ----------
Initalized PBE GGA exchange.
Initalized PBE GGA correlation.

---------- Setting up pseudopotentials ----------
Width of ionic core gaussian charges (only for fluid interactions / plotting) set to 0

Reading pseudopotential file '/home/gridsan/aligho/DFT/build-Nov24/pseudopotentials/SG15/Li_ONCV_PBE.upf':
  'Li' pseudopotential, 'PBE' functional
  Generated using ONCVPSP code by D. R. Hamann
  Author: Martin Schlipf and Francois Gygi  Date: 150915.
  3 valence electrons, 2 orbitals, 4 projectors, 1328 radial grid points, with lMax = 1
  Transforming local potential to a uniform radial grid of dG=0.02 with 1451 points.
  Transforming nonlocal projectors to a uniform radial grid of dG=0.02 with 432 points.
    1S    l: 0   occupation:  2.0   eigenvalue: -1.905623
    2S    l: 0   occupation:  1.0   eigenvalue: -0.105624
  Transforming atomic orbitals to a uniform radial grid of dG=0.02 with 432 points.
  WARNING: large normalization error in atomic orbital 1s (integral: 0.000000).
  Core radius for overlap checks: 1.63 bohrs.
  Reading pulay file /home/gridsan/aligho/DFT/build-Nov24/pseudopotentials/SG15/Li_ONCV_PBE.pulay ... using dE_dnG = -1.230239e-02 computed for Ecut = 20.

Initialized 1 species with 1 total atoms.

Folded 1 k-points by 12x12x1 to 144 k-points.

---------- Setting up k-points, bands, fillings ----------
Reduced to 19 k-points under symmetry. 
Computing the number of bands and number of electrons
Calculating initial fillings.
nElectrons:   3.000000   nBands: 3   nStates: 19

----- Setting up reduced wavefunction bases (one per k-point) -----
average nbasis = 20341.396 , ideal nbasis = 20342.000

---------- Setting up coulomb interaction ----------
Initialized slab truncation along lattice direction 001

---------- Setting up 2D ewald sum ----------
Optimum gaussian width for ewald sums = 6.508785 bohr.
Real space sums over 289 unit cells with max indices [  8  8  0  ]
Reciprocal space sums over 81 terms with max indices [  4  4  0  ]

---------- Allocating electronic variables ----------
Initializing wave functions:  linear combination of atomic orbitals
Note: number of bands (3) exceeds available atomic orbitals (2)
Li pseudo-atom occupations:   s ( 2 1 )
	FillingsUpdate:  mu: +0.333904816  nElectrons: 3.000000
LCAOMinimize: Iter:   0  F: -1.2596768227573389  |grad|_K:  2.640e-03  alpha:  1.000e+00
	FillingsUpdate:  mu: +0.333765392  nElectrons: 3.000000
LCAOMinimize: Iter:   1  F: -1.2600386733921594  |grad|_K:  2.552e-03  alpha:  1.371e+00  linmin:  3.031e-02  cgtest: -3.752e-01  t[s]:      3.01
LCAOMinimize: 	Bad step direction: g.d > 0.
LCAOMinimize: 	Undoing step.
LCAOMinimize: 	Step failed: resetting search direction.
	FillingsUpdate:  mu: +0.333765392  nElectrons: 3.000000
LCAOMinimize: Iter:   2  F: -1.2600386733921594  |grad|_K:  2.552e-03  alpha:  0.000e+00
	FillingsUpdate:  mu: +0.333823949  nElectrons: 3.000000
LCAOMinimize: Iter:   3  F: -1.2604326087151887  |grad|_K:  1.483e-04  alpha:  9.046e-01  linmin: -2.120e-02  cgtest:  1.524e+00  t[s]:      4.18
LCAOMinimize: Encountered beta<0, resetting CG.
[d-16-11-3:31990] 18 more processes have sent help message help-mpi-common-cuda.txt / dlopen failed
[d-16-11-3:31990] Set MCA parameter "orte_base_help_aggregate" to 0 to see all help / error messages
[d-16-11-3:31990] 18 more processes have sent help message help-mpi-btl-openib-cpc-base.txt / no cpcs for port
	FillingsUpdate:  mu: +0.333827991  nElectrons: 3.000000
LCAOMinimize: Iter:   4  F: -1.2604344516666039  |grad|_K:  4.084e-06  alpha:  9.774e-01  linmin: -2.690e-02  cgtest:  8.263e-01  t[s]:      4.90
LCAOMinimize: Encountered beta<0, resetting CG.
	FillingsUpdate:  mu: +0.333828103  nElectrons: 3.000000
LCAOMinimize: Iter:   5  F: -1.2604344531420193  |grad|_K:  1.219e-07  alpha:  1.035e+00  linmin:  3.014e-04  cgtest: -8.068e-03  t[s]:      5.62
LCAOMinimize: 	Wrong curvature in test step, increasing alphaT to 3.103660e+00.
	FillingsUpdate:  mu: +0.333828102  nElectrons: 3.000000
LCAOMinimize: Iter:   6  F: -1.2604344531447416  |grad|_K:  2.115e-09  alpha: -1.441e+01  linmin:  5.029e-02  cgtest: -8.718e-01  t[s]:      6.35
LCAOMinimize: Converged (|Delta F|<1.000000e-06 for 2 iters).


---- Citations for features of the code used in this run ----

   Software package:
      R. Sundararaman, K. Letchworth-Weaver, K.A. Schwarz, D. Gunceler, Y. Ozhabes and T.A. Arias, 'JDFTx: software for joint density-functional theory', SoftwareX 6, 278 (2017)

   gga-PBE exchange-correlation functional:
      J.P. Perdew, K. Burke and M. Ernzerhof, Phys. Rev. Lett. 77, 3865 (1996)

   Pseudopotentials:
      M Schlipf and F Gygi, Comput. Phys. Commun. 196, 36 (2015)

   Truncated Coulomb potentials:
      R. Sundararaman and T.A. Arias, Phys. Rev. B 87, 165122 (2013)

This list may not be complete. Please suggest additional citations or
report any other bugs at https://github.com/shankar1729/jdftx/issues

Initialization completed successfully at t[s]:      6.40


-------- Electronic minimization -----------
Will mix electronic density at each iteration.
	FillingsUpdate:  mu: +0.333828102  nElectrons: 3.000000
	FillingsUpdate:  mu: -0.783445003  nElectrons: 3.000000
SCF: Cycle:  0   F: -6.873671825698675   dF: -5.613e+00   |Residual|: 1.211e+00   |deigs|: 4.163e+00  t[s]:      7.66
	FillingsUpdate:  mu: -0.678677174  nElectrons: 3.000000
SCF: Cycle:  1   F: -6.930768431999284   dF: -5.710e-02   |Residual|: 7.632e-01   |deigs|: 2.588e-01  t[s]:      8.58
	FillingsUpdate:  mu: -0.425438310  nElectrons: 3.000000
SCF: Cycle:  2   F: -7.052805112813545   dF: -1.220e-01   |Residual|: 3.437e-01   |deigs|: 7.321e-01  t[s]:      9.51
	FillingsUpdate:  mu: -0.466901702  nElectrons: 3.000000
SCF: Cycle:  3   F: -7.055070558004543   dF: -2.265e-03   |Residual|: 1.796e-01   |deigs|: 1.012e-01  t[s]:     10.53
	FillingsUpdate:  mu: -0.422332957  nElectrons: 3.000000
SCF: Cycle:  4   F: -7.049980035328711   dF: +5.091e-03   |Residual|: 1.325e-01   |deigs|: 3.935e-02  t[s]:     11.54
	FillingsUpdate:  mu: -0.411511203  nElectrons: 3.000000
SCF: Cycle:  5   F: -7.051481380995882   dF: -1.501e-03   |Residual|: 4.685e-02   |deigs|: 3.595e-02  t[s]:     12.53
	FillingsUpdate:  mu: -0.276603446  nElectrons: 3.000000
SCF: Cycle:  6   F: -7.057934299120507   dF: -6.453e-03   |Residual|: 2.153e-01   |deigs|: 2.465e-01  t[s]:     13.54
	FillingsUpdate:  mu: -0.300357299  nElectrons: 3.000000
SCF: Cycle:  7   F: -7.058130449973387   dF: -1.962e-04   |Residual|: 1.900e-01   |deigs|: 2.025e-01  t[s]:     14.61
	FillingsUpdate:  mu: -0.258700502  nElectrons: 3.000000
SCF: Cycle:  8   F: -7.056638503126593   dF: +1.492e-03   |Residual|: 2.846e-01   |deigs|: 3.444e-02  t[s]:     15.70
	FillingsUpdate:  mu: -0.185758978  nElectrons: 3.000000
SCF: Cycle:  9   F: -7.053794702220547   dF: +2.844e-03   |Residual|: 2.619e-01   |deigs|: 1.942e-01  t[s]:     16.79
	FillingsUpdate:  mu: -0.148703373  nElectrons: 3.000000
SCF: Cycle: 10   F: -7.057937517131815   dF: -4.143e-03   |Residual|: 8.300e-02   |deigs|: 3.560e-02  t[s]:     17.87
	FillingsUpdate:  mu: -0.150777718  nElectrons: 3.000000
SCF: Cycle: 11   F: -7.060570091669574   dF: -2.633e-03   |Residual|: 1.750e-02   |deigs|: 1.471e-02  t[s]:     18.97
	FillingsUpdate:  mu: -0.151487146  nElectrons: 3.000000
SCF: Cycle: 12   F: -7.061121705454298   dF: -5.516e-04   |Residual|: 8.280e-02   |deigs|: 2.402e-02  t[s]:     20.08
	FillingsUpdate:  mu: -0.104791886  nElectrons: 3.000000
SCF: Cycle: 13   F: -7.061537011084364   dF: -4.153e-04   |Residual|: 1.681e-02   |deigs|: 8.946e-02  t[s]:     21.16
	FillingsUpdate:  mu: -0.119713137  nElectrons: 3.000000
SCF: Cycle: 14   F: -7.061876458529483   dF: -3.394e-04   |Residual|: 8.754e-03   |deigs|: 3.220e-02  t[s]:     22.28
	FillingsUpdate:  mu: -0.108638400  nElectrons: 3.000000
SCF: Cycle: 15   F: -7.061903819994212   dF: -2.736e-05   |Residual|: 2.014e-03   |deigs|: 1.780e-02  t[s]:     23.44
	FillingsUpdate:  mu: -0.108980424  nElectrons: 3.000000
SCF: Cycle: 16   F: -7.061916883293649   dF: -1.306e-05   |Residual|: 1.344e-03   |deigs|: 9.592e-04  t[s]:     24.57
	FillingsUpdate:  mu: -0.108413051  nElectrons: 3.000000
SCF: Cycle: 17   F: -7.061926979304701   dF: -1.010e-05   |Residual|: 4.868e-04   |deigs|: 6.754e-04  t[s]:     25.69
	FillingsUpdate:  mu: -0.108979515  nElectrons: 3.000000
SCF: Cycle: 18   F: -7.061928914485277   dF: -1.935e-06   |Residual|: 4.186e-04   |deigs|: 8.945e-04  t[s]:     26.78
	FillingsUpdate:  mu: -0.109268466  nElectrons: 3.000000
SCF: Cycle: 19   F: -7.061931283187001   dF: -2.369e-06   |Residual|: 1.085e-04   |deigs|: 3.751e-04  t[s]:     27.85
	FillingsUpdate:  mu: -0.109419255  nElectrons: 3.000000
SCF: Cycle: 20   F: -7.061931670139862   dF: -3.870e-07   |Residual|: 6.288e-05   |deigs|: 2.185e-04  t[s]:     28.93
	FillingsUpdate:  mu: -0.109359170  nElectrons: 3.000000
SCF: Cycle: 21   F: -7.061931996503936   dF: -3.264e-07   |Residual|: 4.103e-05   |deigs|: 1.507e-04  t[s]:     30.00
	FillingsUpdate:  mu: -0.109231089  nElectrons: 3.000000
SCF: Cycle: 22   F: -7.061932184264060   dF: -1.878e-07   |Residual|: 1.178e-05   |deigs|: 1.371e-04  t[s]:     31.07
	FillingsUpdate:  mu: -0.109203545  nElectrons: 3.000000
SCF: Cycle: 23   F: -7.061932297680656   dF: -1.134e-07   |Residual|: 7.849e-06   |deigs|: 7.785e-05  t[s]:     32.11
	FillingsUpdate:  mu: -0.109214426  nElectrons: 3.000000
SCF: Cycle: 24   F: -7.061932366664109   dF: -6.898e-08   |Residual|: 3.315e-06   |deigs|: 4.805e-05  t[s]:     33.21
	FillingsUpdate:  mu: -0.109211653  nElectrons: 3.000000
SCF: Cycle: 25   F: -7.061932415271921   dF: -4.861e-08   |Residual|: 2.251e-06   |deigs|: 2.819e-05  t[s]:     34.29
	FillingsUpdate:  mu: -0.109211606  nElectrons: 3.000000
SCF: Cycle: 26   F: -7.061932445473971   dF: -3.020e-08   |Residual|: 1.108e-06   |deigs|: 1.634e-05  t[s]:     35.35
	FillingsUpdate:  mu: -0.109209517  nElectrons: 3.000000
SCF: Cycle: 27   F: -7.061932457829981   dF: -1.236e-08   |Residual|: 8.061e-07   |deigs|: 6.147e-06  t[s]:     36.37
	FillingsUpdate:  mu: -0.109210329  nElectrons: 3.000000
SCF: Cycle: 28   F: -7.061932474509709   dF: -1.668e-08   |Residual|: 5.201e-07   |deigs|: 8.492e-06  t[s]:     37.45
	FillingsUpdate:  mu: -0.109210781  nElectrons: 3.000000
SCF: Cycle: 29   F: -7.061932487363854   dF: -1.285e-08   |Residual|: 6.098e-07   |deigs|: 6.792e-06  t[s]:     38.45
	FillingsUpdate:  mu: -0.109209673  nElectrons: 3.000000
SCF: Cycle: 30   F: -7.061932496726492   dF: -9.363e-09   |Residual|: 1.216e-06   |deigs|: 5.227e-06  t[s]:     39.48
	FillingsUpdate:  mu: -0.109210559  nElectrons: 3.000000
SCF: Cycle: 31   F: -7.061932530249709   dF: -3.352e-08   |Residual|: 2.302e-06   |deigs|: 2.164e-05  t[s]:     40.48
	FillingsUpdate:  mu: -0.109208272  nElectrons: 3.000000
SCF: Cycle: 32   F: -7.061932568258884   dF: -3.801e-08   |Residual|: 2.974e-06   |deigs|: 2.418e-05  t[s]:     41.42
	FillingsUpdate:  mu: -0.109208732  nElectrons: 3.000000
SCF: Cycle: 33   F: -7.061932590485946   dF: -2.223e-08   |Residual|: 3.665e-06   |deigs|: 1.416e-05  t[s]:     42.41
	FillingsUpdate:  mu: -0.109208605  nElectrons: 3.000000
SCF: Cycle: 34   F: -7.061932612068363   dF: -2.158e-08   |Residual|: 3.813e-06   |deigs|: 1.370e-05  t[s]:     43.38
	FillingsUpdate:  mu: -0.109209290  nElectrons: 3.000000
SCF: Cycle: 35   F: -7.061932629935091   dF: -1.787e-08   |Residual|: 4.231e-06   |deigs|: 1.147e-05  t[s]:     44.39
	FillingsUpdate:  mu: -0.109209640  nElectrons: 3.000000
SCF: Cycle: 36   F: -7.061932647582547   dF: -1.765e-08   |Residual|: 4.280e-06   |deigs|: 1.126e-05  t[s]:     45.32
	FillingsUpdate:  mu: -0.109210236  nElectrons: 3.000000
SCF: Cycle: 37   F: -7.061932664363883   dF: -1.678e-08   |Residual|: 4.691e-06   |deigs|: 1.073e-05  t[s]:     46.27
	FillingsUpdate:  mu: -0.109210164  nElectrons: 3.000000
SCF: Cycle: 38   F: -7.061932680720171   dF: -1.636e-08   |Residual|: 4.821e-06   |deigs|: 1.032e-05  t[s]:     47.22
	FillingsUpdate:  mu: -0.109209843  nElectrons: 3.000000
SCF: Cycle: 39   F: -7.061932696464813   dF: -1.574e-08   |Residual|: 5.503e-06   |deigs|: 9.844e-06  t[s]:     48.19
	FillingsUpdate:  mu: -0.109209748  nElectrons: 3.000000
SCF: Cycle: 40   F: -7.061932711620027   dF: -1.516e-08   |Residual|: 5.696e-06   |deigs|: 9.462e-06  t[s]:     49.18
	FillingsUpdate:  mu: -0.109210193  nElectrons: 3.000000
SCF: Cycle: 41   F: -7.061932725950792   dF: -1.433e-08   |Residual|: 5.939e-06   |deigs|: 9.035e-06  t[s]:     50.18
	FillingsUpdate:  mu: -0.109210261  nElectrons: 3.000000
SCF: Cycle: 42   F: -7.061932739503961   dF: -1.355e-08   |Residual|: 6.123e-06   |deigs|: 8.419e-06  t[s]:     51.19
	FillingsUpdate:  mu: -0.109210301  nElectrons: 3.000000
SCF: Cycle: 43   F: -7.061932752045453   dF: -1.254e-08   |Residual|: 6.555e-06   |deigs|: 7.747e-06  t[s]:     52.16
	FillingsUpdate:  mu: -0.109210008  nElectrons: 3.000000
SCF: Cycle: 44   F: -7.061932763718870   dF: -1.167e-08   |Residual|: 6.803e-06   |deigs|: 7.153e-06  t[s]:     53.16
	FillingsUpdate:  mu: -0.109209883  nElectrons: 3.000000
SCF: Cycle: 45   F: -7.061932774307295   dF: -1.059e-08   |Residual|: 7.215e-06   |deigs|: 6.463e-06  t[s]:     54.12
	FillingsUpdate:  mu: -0.109209570  nElectrons: 3.000000
SCF: Cycle: 46   F: -7.061932784048693   dF: -9.741e-09   |Residual|: 7.420e-06   |deigs|: 5.912e-06  t[s]:     55.11
	FillingsUpdate:  mu: -0.109210990  nElectrons: 3.000000
SCF: Cycle: 47   F: -7.061932792872879   dF: -8.824e-09   |Residual|: 7.142e-06   |deigs|: 5.831e-06  t[s]:     56.06
SCF: Converged (|Delta E|<1.000000e-08 for 2 iters).


# Ionic positions in lattice coordinates:
ion Li   0.000000000000000   0.000000000000000   0.000000000000000 0

# Forces in Lattice coordinates:
force Li   0.000000000000000   0.000000000000000   0.000000000000000 0

# Energy components:
   Eewald =       -1.6172066398147549
       EH =        1.9107092533129670
     Eloc =       -6.9650296082851311
      Enl =       -3.5973769664454314
   Epulay =       -0.0000015619933653
      Exc =       -1.5308400752266358
       KE =        4.7504573393880731
-------------------------------------
     Etot =       -7.0492882590642774
       TS =        0.0126445338086017
-------------------------------------
        F =       -7.0619327928728790

IonicMinimize: Iter:   0  F: -7.061932792872879  |grad|_K:  0.000e+00  t[s]:     56.15
IonicMinimize: Converged (|grad|_K<1.000000e-04).

#--- Lowdin population analysis ---
# oxidation-state Li +2.144

End date and time: Sun Jan 16 15:09:02 2022  (Duration: 0-0:00:56.16)
Done!
