1.55
--------------------------------------------------------------------------
The library attempted to open the following supporting CUDA libraries,
but each of them failed.  CUDA-aware support is disabled.
libcuda.so.1: cannot open shared object file: No such file or directory
libcuda.dylib: cannot open shared object file: No such file or directory
/usr/lib64/libcuda.so.1: cannot open shared object file: No such file or directory
/usr/lib64/libcuda.dylib: cannot open shared object file: No such file or directory
If you are not interested in CUDA-aware support, then run with
--mca opal_warn_on_missing_libcuda 0 to suppress this message.  If you are interested
in CUDA-aware support, then try setting LD_LIBRARY_PATH to the location
of libcuda.so.1 to get passed this issue.
--------------------------------------------------------------------------
--------------------------------------------------------------------------
No OpenFabrics connection schemes reported that they were able to be
used on a specific port.  As such, the openib BTL (OpenFabrics
support) will be disabled for this port.

  Local host:           d-5-8-4
  Local device:         mlx5_1
  Local port:           1
  CPCs attempted:       rdmacm, udcm
--------------------------------------------------------------------------

*************** JDFTx 1.6.0 (git hash 42ebbcc2) ***************

Start date and time: Sun Jan 16 15:07:28 2022
Executable jdftx with command-line: -i Lithium.in
Running on hosts (process indices):  d-5-8-4 (0-18)
Divided in process groups (process indices):  0 (0)  1 (1)  2 (2)  3 (3)  4 (4)  5 (5)  6 (6)  7 (7)  8 (8)  9 (9)  10 (10)  11 (11)  12 (12)  13 (13)  14 (14)  15 (15)  16 (16)  17 (17)  18 (18)
Resource initialization completed at t[s]:      0.00
Run totals: 19 processes, 48 threads, 0 GPUs


Input parsed successfully to the following command list (including defaults):

basis kpoint-dependent
coords-type Lattice
core-overlap-check vector
coulomb-interaction Slab 001
davidson-band-ratio 1.1
dump End None
dump-name $INPUT.$VAR
elec-cutoff 20
elec-eigen-algo Davidson
elec-ex-corr gga-PBE
elec-smearing Fermi 0.01
electronic-minimize  \
	dirUpdateScheme      FletcherReeves \
	linminMethod         DirUpdateRecommended \
	nIterations          100 \
	history              15 \
	knormThreshold       0 \
	energyDiffThreshold  1e-08 \
	nEnergyDiff          2 \
	alphaTstart          1 \
	alphaTmin            1e-10 \
	updateTestStepSize   yes \
	alphaTreduceFactor   0.1 \
	alphaTincreaseFactor 3 \
	nAlphaAdjustMax      3 \
	wolfeEnergy          0.0001 \
	wolfeGradient        0.9 \
	fdTest               no
electronic-scf  \
	nIterations	10000 \
	energyDiffThreshold	1e-08 \
	residualThreshold	1e-07 \
	mixFraction	0.5 \
	qMetric	0.8 \
	history	10 \
	nEigSteps	2 \
	eigDiffThreshold	1e-08 \
	mixedVariable	Density \
	qKerker	0.8 \
	qKappa	-1 \
	verbose	no \
	mixFractionMag	1.5
exchange-regularization WignerSeitzTruncated
fluid None
fluid-ex-corr (null) lda-PZ
fluid-gummel-loop 10 1.000000e-05
fluid-minimize  \
	dirUpdateScheme      PolakRibiere \
	linminMethod         DirUpdateRecommended \
	nIterations          100 \
	history              15 \
	knormThreshold       0 \
	energyDiffThreshold  0 \
	nEnergyDiff          2 \
	alphaTstart          1 \
	alphaTmin            1e-10 \
	updateTestStepSize   yes \
	alphaTreduceFactor   0.1 \
	alphaTincreaseFactor 3 \
	nAlphaAdjustMax      3 \
	wolfeEnergy          0.0001 \
	wolfeGradient        0.9 \
	fdTest               no
fluid-solvent H2O 55.338 ScalarEOS \
	epsBulk 78.4 \
	pMol 0.92466 \
	epsInf 1.77 \
	Pvap 1.06736e-10 \
	sigmaBulk 4.62e-05 \
	Rvdw 2.61727 \
	Res 1.42 \
	tauNuc 343133 \
	poleEl 15 7 1
forces-output-coords Positions
ion Li   0.000000000000000   0.000000000000000   0.000000000000000 0
ion-species SG15/$ID_ONCV_PBE.upf
ion-width 0
ionic-minimize  \
	dirUpdateScheme      L-BFGS \
	linminMethod         DirUpdateRecommended \
	nIterations          0 \
	history              15 \
	knormThreshold       0.0001 \
	energyDiffThreshold  1e-06 \
	nEnergyDiff          2 \
	alphaTstart          1 \
	alphaTmin            1e-10 \
	updateTestStepSize   yes \
	alphaTreduceFactor   0.1 \
	alphaTincreaseFactor 3 \
	nAlphaAdjustMax      3 \
	wolfeEnergy          0.0001 \
	wolfeGradient        0.9 \
	fdTest               no
kpoint   0.000000000000   0.000000000000   0.000000000000  1.00000000000000
kpoint-folding 12 12 1 
latt-move-scale 1 1 1
latt-scale 1.55 1.55 1 
lattice  \
	   4.727486978767153   -2.363743489383575    0.000000000000000  \
	  -0.000000000000000    4.094123819672498    0.000000000000000  \
	   0.000000000000000    0.000000000000000   40.000000000000000 
lattice-minimize  \
	dirUpdateScheme      L-BFGS \
	linminMethod         DirUpdateRecommended \
	nIterations          0 \
	history              15 \
	knormThreshold       0 \
	energyDiffThreshold  1e-06 \
	nEnergyDiff          2 \
	alphaTstart          1 \
	alphaTmin            1e-10 \
	updateTestStepSize   yes \
	alphaTreduceFactor   0.1 \
	alphaTincreaseFactor 3 \
	nAlphaAdjustMax      3 \
	wolfeEnergy          0.0001 \
	wolfeGradient        0.9 \
	fdTest               no
lcao-params -1 1e-06 0.01
pcm-variant GLSSA13
spintype no-spin
subspace-rotation-factor 1 yes
symmetries automatic
symmetry-threshold 0.0001



---------- Setting up symmetries ----------

Found 24 point-group symmetries of the bravais lattice
Found 24 space-group symmetries with basis
Applied RMS atom displacement 0 bohrs to make symmetries exact.

---------- Initializing the Grid ----------
R = 
[       7.3276      -3.6638            0  ]
[            0      6.34589            0  ]
[            0            0           40  ]
unit cell volume = 1860.01
G =
[   0.857468   0.495059         -0  ]
[          0   0.990119         -0  ]
[         -0         -0    0.15708  ]
Minimum fftbox size, Smin = [  32  32  164  ]
Chosen fftbox size, S = [  32  32  168  ]

---------- Exchange Correlation functional ----------
Initalized PBE GGA exchange.
Initalized PBE GGA correlation.

---------- Setting up pseudopotentials ----------
Width of ionic core gaussian charges (only for fluid interactions / plotting) set to 0

Reading pseudopotential file '/home/gridsan/aligho/DFT/build-Nov24/pseudopotentials/SG15/Li_ONCV_PBE.upf':
  'Li' pseudopotential, 'PBE' functional
  Generated using ONCVPSP code by D. R. Hamann
  Author: Martin Schlipf and Francois Gygi  Date: 150915.
  3 valence electrons, 2 orbitals, 4 projectors, 1328 radial grid points, with lMax = 1
  Transforming local potential to a uniform radial grid of dG=0.02 with 1528 points.
  Transforming nonlocal projectors to a uniform radial grid of dG=0.02 with 432 points.
    1S    l: 0   occupation:  2.0   eigenvalue: -1.905623
    2S    l: 0   occupation:  1.0   eigenvalue: -0.105624
  Transforming atomic orbitals to a uniform radial grid of dG=0.02 with 432 points.
  WARNING: large normalization error in atomic orbital 1s (integral: 0.000000).
  Core radius for overlap checks: 1.63 bohrs.
  Reading pulay file /home/gridsan/aligho/DFT/build-Nov24/pseudopotentials/SG15/Li_ONCV_PBE.pulay ... using dE_dnG = -1.230239e-02 computed for Ecut = 20.

Initialized 1 species with 1 total atoms.

Folded 1 k-points by 12x12x1 to 144 k-points.

---------- Setting up k-points, bands, fillings ----------
Reduced to 19 k-points under symmetry. 
Computing the number of bands and number of electrons
Calculating initial fillings.
nElectrons:   3.000000   nBands: 3   nStates: 19

----- Setting up reduced wavefunction bases (one per k-point) -----
average nbasis = 7948.979 , ideal nbasis = 7946.094

---------- Setting up coulomb interaction ----------
Initialized slab truncation along lattice direction 001

---------- Setting up 2D ewald sum ----------
Optimum gaussian width for ewald sums = 4.067990 bohr.
Real space sums over 289 unit cells with max indices [  8  8  0  ]
Reciprocal space sums over 81 terms with max indices [  4  4  0  ]

---------- Allocating electronic variables ----------
Initializing wave functions:  linear combination of atomic orbitals
Note: number of bands (3) exceeds available atomic orbitals (2)
Li pseudo-atom occupations:   s ( 2 1 )
	FillingsUpdate:  mu: +0.391777632  nElectrons: 3.000000
LCAOMinimize: Iter:   0  F: -1.0064754145390347  |grad|_K:  3.969e-03  alpha:  1.000e+00
	FillingsUpdate:  mu: +0.391989236  nElectrons: 3.000000
LCAOMinimize: Iter:   1  F: -1.0078798466938579  |grad|_K:  2.618e-04  alpha:  1.049e+00  linmin:  1.544e-02  cgtest: -6.665e-01  t[s]:      1.80
	FillingsUpdate:  mu: +0.391988430  nElectrons: 3.000000
LCAOMinimize: Iter:   2  F: -1.0078801925519691  |grad|_K:  2.533e-04  alpha:  8.718e-01  linmin: -1.410e-06  cgtest:  9.727e-01  t[s]:      2.26
LCAOMinimize: Encountered beta<0, resetting CG.
	FillingsUpdate:  mu: +0.391973963  nElectrons: 3.000000
LCAOMinimize: Iter:   3  F: -1.0078856310187150  |grad|_K:  3.509e-06  alpha:  9.895e-01  linmin: -1.858e-02  cgtest:  6.903e-01  t[s]:      2.62
LCAOMinimize: Encountered beta<0, resetting CG.
	FillingsUpdate:  mu: +0.391973852  nElectrons: 3.000000
LCAOMinimize: Iter:   4  F: -1.0078856321093865  |grad|_K:  8.445e-08  alpha:  1.036e+00  linmin:  4.274e-04  cgtest: -1.343e-02  t[s]:      2.98
	FillingsUpdate:  mu: +0.391973854  nElectrons: 3.000000
LCAOMinimize: Iter:   5  F: -1.0078856321098399  |grad|_K:  4.653e-08  alpha:  4.548e-01  linmin: -1.955e-02  cgtest:  9.999e-01  t[s]:      3.34
LCAOMinimize: Encountered beta<0, resetting CG.
LCAOMinimize: Converged (|Delta F|<1.000000e-06 for 2 iters).


---- Citations for features of the code used in this run ----

   Software package:
      R. Sundararaman, K. Letchworth-Weaver, K.A. Schwarz, D. Gunceler, Y. Ozhabes and T.A. Arias, 'JDFTx: software for joint density-functional theory', SoftwareX 6, 278 (2017)

   gga-PBE exchange-correlation functional:
      J.P. Perdew, K. Burke and M. Ernzerhof, Phys. Rev. Lett. 77, 3865 (1996)

   Pseudopotentials:
      M Schlipf and F Gygi, Comput. Phys. Commun. 196, 36 (2015)

   Truncated Coulomb potentials:
      R. Sundararaman and T.A. Arias, Phys. Rev. B 87, 165122 (2013)

This list may not be complete. Please suggest additional citations or
report any other bugs at https://github.com/shankar1729/jdftx/issues

Initialization completed successfully at t[s]:      3.37


-------- Electronic minimization -----------
Will mix electronic density at each iteration.
	FillingsUpdate:  mu: +0.391973854  nElectrons: 3.000000
	FillingsUpdate:  mu: -1.396540005  nElectrons: 3.000000
SCF: Cycle:  0   F: -6.185553376713409   dF: -5.178e+00   |Residual|: 9.615e-01   |deigs|: 4.158e+00  t[s]:      3.95
	FillingsUpdate:  mu: -1.316096163  nElectrons: 3.000000
SCF: Cycle:  1   F: -6.945892138748400   dF: -7.603e-01   |Residual|: 7.986e-01   |deigs|: 5.036e-01  t[s]:      4.36
	FillingsUpdate:  mu: -0.883453471  nElectrons: 3.000000
SCF: Cycle:  2   F: -6.756578858530248   dF: +1.893e-01   |Residual|: 1.600e+00   |deigs|: 1.519e+00  t[s]:      4.78
[d-5-8-4:06509] 18 more processes have sent help message help-mpi-common-cuda.txt / dlopen failed
[d-5-8-4:06509] Set MCA parameter "orte_base_help_aggregate" to 0 to see all help / error messages
[d-5-8-4:06509] 18 more processes have sent help message help-mpi-btl-openib-cpc-base.txt / no cpcs for port
	FillingsUpdate:  mu: -1.076952237  nElectrons: 3.000000
SCF: Cycle:  3   F: -7.065077512436644   dF: -3.085e-01   |Residual|: 2.359e-01   |deigs|: 7.841e-01  t[s]:      5.19
	FillingsUpdate:  mu: -1.077784233  nElectrons: 3.000000
SCF: Cycle:  4   F: -7.069142593322801   dF: -4.065e-03   |Residual|: 1.539e-01   |deigs|: 1.522e-01  t[s]:      5.61
	FillingsUpdate:  mu: -1.106629090  nElectrons: 3.000000
SCF: Cycle:  5   F: -6.965585283001791   dF: +1.036e-01   |Residual|: 1.474e+00   |deigs|: 4.955e-01  t[s]:      6.04
	FillingsUpdate:  mu: -1.264002055  nElectrons: 3.000000
SCF: Cycle:  6   F: -6.842842527559703   dF: +1.227e-01   |Residual|: 1.857e+00   |deigs|: 2.960e-01  t[s]:      6.48
	FillingsUpdate:  mu: -1.222935932  nElectrons: 3.000000
SCF: Cycle:  7   F: -6.859946494705626   dF: -1.710e-02   |Residual|: 1.779e+00   |deigs|: 7.403e-02  t[s]:      6.92
	FillingsUpdate:  mu: -1.081059368  nElectrons: 3.000000
SCF: Cycle:  8   F: -6.880944443709209   dF: -2.100e-02   |Residual|: 1.664e+00   |deigs|: 1.664e-01  t[s]:      7.37
	FillingsUpdate:  mu: -0.987890609  nElectrons: 3.000000
SCF: Cycle:  9   F: -6.930318236392456   dF: -4.937e-02   |Residual|: 1.450e+00   |deigs|: 1.680e-01  t[s]:      7.83
	FillingsUpdate:  mu: -1.003982012  nElectrons: 3.000000
SCF: Cycle: 10   F: -6.915469051111621   dF: +1.485e-02   |Residual|: 1.480e+00   |deigs|: 3.242e-02  t[s]:      8.28
	FillingsUpdate:  mu: -0.549712582  nElectrons: 3.000000
SCF: Cycle: 11   F: -7.046640408250214   dF: -1.312e-01   |Residual|: 5.451e-01   |deigs|: 6.847e-01  t[s]:      8.74
	FillingsUpdate:  mu: -0.387528011  nElectrons: 3.000000
SCF: Cycle: 12   F: -7.073267419984988   dF: -2.663e-02   |Residual|: 2.906e-01   |deigs|: 2.692e-01  t[s]:      9.19
	FillingsUpdate:  mu: -0.346900169  nElectrons: 3.000000
SCF: Cycle: 13   F: -7.076995773294291   dF: -3.728e-03   |Residual|: 3.673e-01   |deigs|: 3.486e-02  t[s]:      9.64
	FillingsUpdate:  mu: -0.231541866  nElectrons: 3.000000
SCF: Cycle: 14   F: -7.085146315903727   dF: -8.151e-03   |Residual|: 1.833e-01   |deigs|: 3.916e-01  t[s]:     10.09
	FillingsUpdate:  mu: -0.203419002  nElectrons: 3.000000
SCF: Cycle: 15   F: -7.089784857885517   dF: -4.639e-03   |Residual|: 4.301e-02   |deigs|: 1.020e-01  t[s]:     10.54
	FillingsUpdate:  mu: -0.194790373  nElectrons: 3.000000
SCF: Cycle: 16   F: -7.089758329980667   dF: +2.653e-05   |Residual|: 1.289e-01   |deigs|: 2.947e-02  t[s]:     10.98
	FillingsUpdate:  mu: -0.145785236  nElectrons: 3.000000
SCF: Cycle: 17   F: -7.089640798211587   dF: +1.175e-04   |Residual|: 1.296e-01   |deigs|: 1.029e-01  t[s]:     11.43
	FillingsUpdate:  mu: -0.131297015  nElectrons: 3.000000
SCF: Cycle: 18   F: -7.089377599478008   dF: +2.632e-04   |Residual|: 9.537e-02   |deigs|: 1.918e-02  t[s]:     11.88
	FillingsUpdate:  mu: -0.124678464  nElectrons: 3.000000
SCF: Cycle: 19   F: -7.090072280984263   dF: -6.947e-04   |Residual|: 5.213e-02   |deigs|: 1.722e-02  t[s]:     12.33
	FillingsUpdate:  mu: -0.116937912  nElectrons: 3.000000
SCF: Cycle: 20   F: -7.090414489560173   dF: -3.422e-04   |Residual|: 3.573e-03   |deigs|: 2.398e-02  t[s]:     12.78
	FillingsUpdate:  mu: -0.123352500  nElectrons: 3.000000
SCF: Cycle: 21   F: -7.090441068750141   dF: -2.658e-05   |Residual|: 2.164e-03   |deigs|: 6.563e-03  t[s]:     13.23
	FillingsUpdate:  mu: -0.119435766  nElectrons: 3.000000
SCF: Cycle: 22   F: -7.090451401520139   dF: -1.033e-05   |Residual|: 9.153e-04   |deigs|: 3.666e-03  t[s]:     13.68
	FillingsUpdate:  mu: -0.118656219  nElectrons: 3.000000
SCF: Cycle: 23   F: -7.090452987329488   dF: -1.586e-06   |Residual|: 8.344e-04   |deigs|: 8.545e-04  t[s]:     14.12
	FillingsUpdate:  mu: -0.119341698  nElectrons: 3.000000
SCF: Cycle: 24   F: -7.090453173652112   dF: -1.863e-07   |Residual|: 1.964e-04   |deigs|: 2.094e-03  t[s]:     14.57
	FillingsUpdate:  mu: -0.119678979  nElectrons: 3.000000
SCF: Cycle: 25   F: -7.090453234480175   dF: -6.083e-08   |Residual|: 1.027e-04   |deigs|: 8.285e-04  t[s]:     15.02
	FillingsUpdate:  mu: -0.119785094  nElectrons: 3.000000
SCF: Cycle: 26   F: -7.090453255535670   dF: -2.106e-08   |Residual|: 4.528e-05   |deigs|: 1.411e-04  t[s]:     15.47
	FillingsUpdate:  mu: -0.119538078  nElectrons: 3.000000
SCF: Cycle: 27   F: -7.090453272712157   dF: -1.718e-08   |Residual|: 1.545e-05   |deigs|: 2.526e-04  t[s]:     15.92
	FillingsUpdate:  mu: -0.119551172  nElectrons: 3.000000
SCF: Cycle: 28   F: -7.090453273371579   dF: -6.594e-10   |Residual|: 9.630e-06   |deigs|: 3.341e-05  t[s]:     16.36
	FillingsUpdate:  mu: -0.119533958  nElectrons: 3.000000
SCF: Cycle: 29   F: -7.090453273792409   dF: -4.208e-10   |Residual|: 3.902e-06   |deigs|: 2.058e-05  t[s]:     16.81
SCF: Converged (|Delta E|<1.000000e-08 for 2 iters).


# Ionic positions in lattice coordinates:
ion Li   0.000000000000000   0.000000000000000   0.000000000000000 0

# Forces in Lattice coordinates:
force Li   0.000000000000000  -0.000000000000000   0.000000000000000 0

# Energy components:
   Eewald =       -2.5875306237036080
       EH =        1.0108454560882780
     Eloc =       -5.1097184394768647
      Enl =       -3.5919076523134912
   Epulay =        0.0000190835771555
      Exc =       -1.5601270533305116
       KE =        4.7544485335351601
-------------------------------------
     Etot =       -7.0839706956238819
       TS =        0.0064825781685274
-------------------------------------
        F =       -7.0904532737924093

IonicMinimize: Iter:   0  F: -7.090453273792409  |grad|_K:  0.000e+00  t[s]:     16.84
IonicMinimize: Converged (|grad|_K<1.000000e-04).

#--- Lowdin population analysis ---
# oxidation-state Li +2.142

End date and time: Sun Jan 16 15:07:44 2022  (Duration: 0-0:00:16.84)
Done!
