2.54
--------------------------------------------------------------------------
The library attempted to open the following supporting CUDA libraries,
but each of them failed.  CUDA-aware support is disabled.
libcuda.so.1: cannot open shared object file: No such file or directory
libcuda.dylib: cannot open shared object file: No such file or directory
/usr/lib64/libcuda.so.1: cannot open shared object file: No such file or directory
/usr/lib64/libcuda.dylib: cannot open shared object file: No such file or directory
If you are not interested in CUDA-aware support, then run with
--mca opal_warn_on_missing_libcuda 0 to suppress this message.  If you are interested
in CUDA-aware support, then try setting LD_LIBRARY_PATH to the location
of libcuda.so.1 to get passed this issue.
--------------------------------------------------------------------------
--------------------------------------------------------------------------
No OpenFabrics connection schemes reported that they were able to be
used on a specific port.  As such, the openib BTL (OpenFabrics
support) will be disabled for this port.

  Local host:           d-17-9-2
  Local device:         mlx5_1
  Local port:           1
  CPCs attempted:       rdmacm, udcm
--------------------------------------------------------------------------

*************** JDFTx 1.6.0 (git hash 42ebbcc2) ***************

Start date and time: Sun Jan 16 15:08:06 2022
Executable jdftx with command-line: -i Lithium.in
Running on hosts (process indices):  d-17-9-2 (0-18)
Divided in process groups (process indices):  0 (0)  1 (1)  2 (2)  3 (3)  4 (4)  5 (5)  6 (6)  7 (7)  8 (8)  9 (9)  10 (10)  11 (11)  12 (12)  13 (13)  14 (14)  15 (15)  16 (16)  17 (17)  18 (18)
Resource initialization completed at t[s]:      0.00
Run totals: 19 processes, 48 threads, 0 GPUs


Input parsed successfully to the following command list (including defaults):

basis kpoint-dependent
coords-type Lattice
core-overlap-check vector
coulomb-interaction Slab 001
davidson-band-ratio 1.1
dump End None
dump-name $INPUT.$VAR
elec-cutoff 20
elec-eigen-algo Davidson
elec-ex-corr gga-PBE
elec-smearing Fermi 0.01
electronic-minimize  \
	dirUpdateScheme      FletcherReeves \
	linminMethod         DirUpdateRecommended \
	nIterations          100 \
	history              15 \
	knormThreshold       0 \
	energyDiffThreshold  1e-08 \
	nEnergyDiff          2 \
	alphaTstart          1 \
	alphaTmin            1e-10 \
	updateTestStepSize   yes \
	alphaTreduceFactor   0.1 \
	alphaTincreaseFactor 3 \
	nAlphaAdjustMax      3 \
	wolfeEnergy          0.0001 \
	wolfeGradient        0.9 \
	fdTest               no
electronic-scf  \
	nIterations	10000 \
	energyDiffThreshold	1e-08 \
	residualThreshold	1e-07 \
	mixFraction	0.5 \
	qMetric	0.8 \
	history	10 \
	nEigSteps	2 \
	eigDiffThreshold	1e-08 \
	mixedVariable	Density \
	qKerker	0.8 \
	qKappa	-1 \
	verbose	no \
	mixFractionMag	1.5
exchange-regularization WignerSeitzTruncated
fluid None
fluid-ex-corr (null) lda-PZ
fluid-gummel-loop 10 1.000000e-05
fluid-minimize  \
	dirUpdateScheme      PolakRibiere \
	linminMethod         DirUpdateRecommended \
	nIterations          100 \
	history              15 \
	knormThreshold       0 \
	energyDiffThreshold  0 \
	nEnergyDiff          2 \
	alphaTstart          1 \
	alphaTmin            1e-10 \
	updateTestStepSize   yes \
	alphaTreduceFactor   0.1 \
	alphaTincreaseFactor 3 \
	nAlphaAdjustMax      3 \
	wolfeEnergy          0.0001 \
	wolfeGradient        0.9 \
	fdTest               no
fluid-solvent H2O 55.338 ScalarEOS \
	epsBulk 78.4 \
	pMol 0.92466 \
	epsInf 1.77 \
	Pvap 1.06736e-10 \
	sigmaBulk 4.62e-05 \
	Rvdw 2.61727 \
	Res 1.42 \
	tauNuc 343133 \
	poleEl 15 7 1
forces-output-coords Positions
ion Li   0.000000000000000   0.000000000000000   0.000000000000000 0
ion-species SG15/$ID_ONCV_PBE.upf
ion-width 0
ionic-minimize  \
	dirUpdateScheme      L-BFGS \
	linminMethod         DirUpdateRecommended \
	nIterations          0 \
	history              15 \
	knormThreshold       0.0001 \
	energyDiffThreshold  1e-06 \
	nEnergyDiff          2 \
	alphaTstart          1 \
	alphaTmin            1e-10 \
	updateTestStepSize   yes \
	alphaTreduceFactor   0.1 \
	alphaTincreaseFactor 3 \
	nAlphaAdjustMax      3 \
	wolfeEnergy          0.0001 \
	wolfeGradient        0.9 \
	fdTest               no
kpoint   0.000000000000   0.000000000000   0.000000000000  1.00000000000000
kpoint-folding 12 12 1 
latt-move-scale 1 1 1
latt-scale 2.54 2.54 1 
lattice  \
	   4.727486978767153   -2.363743489383575    0.000000000000000  \
	  -0.000000000000000    4.094123819672498    0.000000000000000  \
	   0.000000000000000    0.000000000000000   40.000000000000000 
lattice-minimize  \
	dirUpdateScheme      L-BFGS \
	linminMethod         DirUpdateRecommended \
	nIterations          0 \
	history              15 \
	knormThreshold       0 \
	energyDiffThreshold  1e-06 \
	nEnergyDiff          2 \
	alphaTstart          1 \
	alphaTmin            1e-10 \
	updateTestStepSize   yes \
	alphaTreduceFactor   0.1 \
	alphaTincreaseFactor 3 \
	nAlphaAdjustMax      3 \
	wolfeEnergy          0.0001 \
	wolfeGradient        0.9 \
	fdTest               no
lcao-params -1 1e-06 0.01
pcm-variant GLSSA13
spintype no-spin
subspace-rotation-factor 1 yes
symmetries automatic
symmetry-threshold 0.0001



---------- Setting up symmetries ----------

Found 24 point-group symmetries of the bravais lattice
Found 24 space-group symmetries with basis
Applied RMS atom displacement 0 bohrs to make symmetries exact.

---------- Initializing the Grid ----------
R = 
[      12.0078     -6.00391            0  ]
[            0      10.3991            0  ]
[            0            0           40  ]
unit cell volume = 4994.81
G =
[   0.523258   0.302103         -0  ]
[          0   0.604206         -0  ]
[         -0         -0    0.15708  ]
Minimum fftbox size, Smin = [  52  52  164  ]
Chosen fftbox size, S = [  54  54  168  ]

---------- Exchange Correlation functional ----------
Initalized PBE GGA exchange.
Initalized PBE GGA correlation.

---------- Setting up pseudopotentials ----------
Width of ionic core gaussian charges (only for fluid interactions / plotting) set to 0

Reading pseudopotential file '/home/gridsan/aligho/DFT/build-Nov24/pseudopotentials/SG15/Li_ONCV_PBE.upf':
  'Li' pseudopotential, 'PBE' functional
  Generated using ONCVPSP code by D. R. Hamann
  Author: Martin Schlipf and Francois Gygi  Date: 150915.
  3 valence electrons, 2 orbitals, 4 projectors, 1328 radial grid points, with lMax = 1
  Transforming local potential to a uniform radial grid of dG=0.02 with 1565 points.
  Transforming nonlocal projectors to a uniform radial grid of dG=0.02 with 432 points.
    1S    l: 0   occupation:  2.0   eigenvalue: -1.905623
    2S    l: 0   occupation:  1.0   eigenvalue: -0.105624
  Transforming atomic orbitals to a uniform radial grid of dG=0.02 with 432 points.
  WARNING: large normalization error in atomic orbital 1s (integral: 0.000000).
  Core radius for overlap checks: 1.63 bohrs.
  Reading pulay file /home/gridsan/aligho/DFT/build-Nov24/pseudopotentials/SG15/Li_ONCV_PBE.pulay ... using dE_dnG = -1.230239e-02 computed for Ecut = 20.

Initialized 1 species with 1 total atoms.

Folded 1 k-points by 12x12x1 to 144 k-points.

---------- Setting up k-points, bands, fillings ----------
Reduced to 19 k-points under symmetry. 
Computing the number of bands and number of electrons
Calculating initial fillings.
nElectrons:   3.000000   nBands: 3   nStates: 19

----- Setting up reduced wavefunction bases (one per k-point) -----
average nbasis = 21337.354 , ideal nbasis = 21338.197

---------- Setting up coulomb interaction ----------
Initialized slab truncation along lattice direction 001

---------- Setting up 2D ewald sum ----------
Optimum gaussian width for ewald sums = 6.666255 bohr.
Real space sums over 289 unit cells with max indices [  8  8  0  ]
Reciprocal space sums over 81 terms with max indices [  4  4  0  ]

---------- Allocating electronic variables ----------
Initializing wave functions:  linear combination of atomic orbitals
Note: number of bands (3) exceeds available atomic orbitals (2)
Li pseudo-atom occupations:   s ( 2 1 )
	FillingsUpdate:  mu: +0.360583660  nElectrons: 3.000000
LCAOMinimize: Iter:   0  F: -1.2495618551408665  |grad|_K:  2.866e-03  alpha:  1.000e+00
	FillingsUpdate:  mu: +0.360696926  nElectrons: 3.000000
LCAOMinimize: Iter:   1  F: -1.2498652975462188  |grad|_K:  3.091e-03  alpha:  1.342e+00  linmin:  3.457e-02  cgtest: -3.107e-01  t[s]:      3.72
LCAOMinimize: 	Bad step direction: g.d > 0.
LCAOMinimize: 	Undoing step.
LCAOMinimize: 	Step failed: resetting search direction.
	FillingsUpdate:  mu: +0.360696926  nElectrons: 3.000000
LCAOMinimize: Iter:   2  F: -1.2498652975462188  |grad|_K:  3.091e-03  alpha:  0.000e+00
[d-17-9-2:87137] 18 more processes have sent help message help-mpi-common-cuda.txt / dlopen failed
[d-17-9-2:87137] Set MCA parameter "orte_base_help_aggregate" to 0 to see all help / error messages
[d-17-9-2:87137] 18 more processes have sent help message help-mpi-btl-openib-cpc-base.txt / no cpcs for port
	FillingsUpdate:  mu: +0.360627483  nElectrons: 3.000000
LCAOMinimize: Iter:   3  F: -1.2504411240483861  |grad|_K:  1.718e-04  alpha:  8.961e-01  linmin: -2.240e-02  cgtest:  1.620e+00  t[s]:      5.15
LCAOMinimize: Encountered beta<0, resetting CG.
	FillingsUpdate:  mu: +0.360624141  nElectrons: 3.000000
LCAOMinimize: Iter:   4  F: -1.2504435609934981  |grad|_K:  6.072e-06  alpha:  9.617e-01  linmin: -2.177e-02  cgtest:  9.574e-01  t[s]:      6.03
LCAOMinimize: Encountered beta<0, resetting CG.
	FillingsUpdate:  mu: +0.360624060  nElectrons: 3.000000
LCAOMinimize: Iter:   5  F: -1.2504435641827716  |grad|_K:  1.798e-07  alpha:  1.013e+00  linmin: -2.119e-03  cgtest:  4.167e-02  t[s]:      6.93
LCAOMinimize: Encountered beta<0, resetting CG.
LCAOMinimize: 	Step increased F by 4.382938e-12, reducing alpha to 2.684835e-01.
	FillingsUpdate:  mu: +0.360624061  nElectrons: 3.000000
LCAOMinimize: Iter:   6  F: -1.2504435641841487  |grad|_K:  1.333e-07  alpha:  2.685e-01  linmin: -6.916e-02  cgtest:  9.999e-01  t[s]:      8.34
LCAOMinimize: Encountered beta<0, resetting CG.
LCAOMinimize: Converged (|Delta F|<1.000000e-06 for 2 iters).


---- Citations for features of the code used in this run ----

   Software package:
      R. Sundararaman, K. Letchworth-Weaver, K.A. Schwarz, D. Gunceler, Y. Ozhabes and T.A. Arias, 'JDFTx: software for joint density-functional theory', SoftwareX 6, 278 (2017)

   gga-PBE exchange-correlation functional:
      J.P. Perdew, K. Burke and M. Ernzerhof, Phys. Rev. Lett. 77, 3865 (1996)

   Pseudopotentials:
      M Schlipf and F Gygi, Comput. Phys. Commun. 196, 36 (2015)

   Truncated Coulomb potentials:
      R. Sundararaman and T.A. Arias, Phys. Rev. B 87, 165122 (2013)

This list may not be complete. Please suggest additional citations or
report any other bugs at https://github.com/shankar1729/jdftx/issues

Initialization completed successfully at t[s]:      8.38


-------- Electronic minimization -----------
Will mix electronic density at each iteration.
	FillingsUpdate:  mu: +0.360624061  nElectrons: 3.000000
	FillingsUpdate:  mu: -0.782767537  nElectrons: 3.000000
SCF: Cycle:  0   F: -6.883566379980856   dF: -5.633e+00   |Residual|: 1.213e+00   |deigs|: 4.163e+00  t[s]:      9.86
	FillingsUpdate:  mu: -0.675630265  nElectrons: 3.000000
SCF: Cycle:  1   F: -6.928308397484735   dF: -4.474e-02   |Residual|: 7.647e-01   |deigs|: 2.591e-01  t[s]:     11.03
	FillingsUpdate:  mu: -0.417653190  nElectrons: 3.000000
SCF: Cycle:  2   F: -7.052695218879220   dF: -1.244e-01   |Residual|: 3.465e-01   |deigs|: 7.348e-01  t[s]:     12.19
	FillingsUpdate:  mu: -0.462708564  nElectrons: 3.000000
SCF: Cycle:  3   F: -7.054329203788044   dF: -1.634e-03   |Residual|: 1.777e-01   |deigs|: 1.039e-01  t[s]:     13.39
	FillingsUpdate:  mu: -0.416316172  nElectrons: 3.000000
SCF: Cycle:  4   F: -7.049126443622487   dF: +5.203e-03   |Residual|: 1.333e-01   |deigs|: 3.997e-02  t[s]:     14.63
	FillingsUpdate:  mu: -0.408007226  nElectrons: 3.000000
SCF: Cycle:  5   F: -7.050735571469843   dF: -1.609e-03   |Residual|: 4.776e-02   |deigs|: 3.309e-02  t[s]:     15.90
	FillingsUpdate:  mu: -0.270402970  nElectrons: 3.000000
SCF: Cycle:  6   F: -7.057441490895892   dF: -6.706e-03   |Residual|: 2.106e-01   |deigs|: 2.501e-01  t[s]:     17.22
	FillingsUpdate:  mu: -0.296528060  nElectrons: 3.000000
SCF: Cycle:  7   F: -7.057005601947023   dF: +4.359e-04   |Residual|: 2.521e-01   |deigs|: 2.281e-01  t[s]:     18.50
	FillingsUpdate:  mu: -0.254815412  nElectrons: 3.000000
SCF: Cycle:  8   F: -7.055422145986044   dF: +1.583e-03   |Residual|: 3.018e-01   |deigs|: 3.629e-02  t[s]:     19.82
	FillingsUpdate:  mu: -0.174729798  nElectrons: 3.000000
SCF: Cycle:  9   F: -7.052142890794704   dF: +3.279e-03   |Residual|: 2.994e-01   |deigs|: 2.258e-01  t[s]:     21.22
	FillingsUpdate:  mu: -0.147427272  nElectrons: 3.000000
SCF: Cycle: 10   F: -7.057467115573143   dF: -5.324e-03   |Residual|: 8.527e-02   |deigs|: 5.149e-02  t[s]:     22.59
	FillingsUpdate:  mu: -0.151660219  nElectrons: 3.000000
SCF: Cycle: 11   F: -7.060123672954002   dF: -2.657e-03   |Residual|: 1.822e-02   |deigs|: 1.753e-02  t[s]:     23.97
	FillingsUpdate:  mu: -0.152667128  nElectrons: 3.000000
SCF: Cycle: 12   F: -7.060576392179803   dF: -4.527e-04   |Residual|: 6.156e-02   |deigs|: 1.414e-02  t[s]:     25.39
	FillingsUpdate:  mu: -0.103021271  nElectrons: 3.000000
SCF: Cycle: 13   F: -7.060811844144752   dF: -2.355e-04   |Residual|: 2.015e-02   |deigs|: 8.728e-02  t[s]:     26.78
	FillingsUpdate:  mu: -0.119192059  nElectrons: 3.000000
SCF: Cycle: 14   F: -7.061184076280958   dF: -3.722e-04   |Residual|: 1.099e-02   |deigs|: 3.670e-02  t[s]:     28.15
	FillingsUpdate:  mu: -0.109168664  nElectrons: 3.000000
SCF: Cycle: 15   F: -7.061217180120638   dF: -3.310e-05   |Residual|: 1.662e-03   |deigs|: 1.765e-02  t[s]:     29.53
	FillingsUpdate:  mu: -0.108675378  nElectrons: 3.000000
SCF: Cycle: 16   F: -7.061226998039350   dF: -9.818e-06   |Residual|: 1.311e-03   |deigs|: 8.288e-04  t[s]:     30.87
	FillingsUpdate:  mu: -0.108129028  nElectrons: 3.000000
SCF: Cycle: 17   F: -7.061237097396545   dF: -1.010e-05   |Residual|: 6.725e-04   |deigs|: 6.817e-04  t[s]:     32.24
	FillingsUpdate:  mu: -0.108586068  nElectrons: 3.000000
SCF: Cycle: 18   F: -7.061239318731373   dF: -2.221e-06   |Residual|: 3.736e-04   |deigs|: 5.733e-04  t[s]:     33.57
	FillingsUpdate:  mu: -0.109015371  nElectrons: 3.000000
SCF: Cycle: 19   F: -7.061241701406360   dF: -2.383e-06   |Residual|: 1.377e-04   |deigs|: 4.353e-04  t[s]:     34.94
	FillingsUpdate:  mu: -0.109119389  nElectrons: 3.000000
SCF: Cycle: 20   F: -7.061242030808543   dF: -3.294e-07   |Residual|: 9.161e-05   |deigs|: 1.796e-04  t[s]:     36.27
	FillingsUpdate:  mu: -0.108993071  nElectrons: 3.000000
SCF: Cycle: 21   F: -7.061242357621586   dF: -3.268e-07   |Residual|: 4.822e-05   |deigs|: 1.428e-04  t[s]:     37.64
	FillingsUpdate:  mu: -0.108883261  nElectrons: 3.000000
SCF: Cycle: 22   F: -7.061242480916206   dF: -1.233e-07   |Residual|: 2.934e-05   |deigs|: 1.047e-04  t[s]:     38.99
	FillingsUpdate:  mu: -0.108854903  nElectrons: 3.000000
SCF: Cycle: 23   F: -7.061242598830027   dF: -1.179e-07   |Residual|: 1.497e-05   |deigs|: 6.563e-05  t[s]:     40.41
	FillingsUpdate:  mu: -0.108852108  nElectrons: 3.000000
SCF: Cycle: 24   F: -7.061242676189226   dF: -7.736e-08   |Residual|: 7.998e-06   |deigs|: 5.183e-05  t[s]:     41.73
	FillingsUpdate:  mu: -0.108841586  nElectrons: 3.000000
SCF: Cycle: 25   F: -7.061242725713283   dF: -4.952e-08   |Residual|: 3.300e-06   |deigs|: 3.521e-05  t[s]:     43.10
	FillingsUpdate:  mu: -0.108842313  nElectrons: 3.000000
SCF: Cycle: 26   F: -7.061242765106819   dF: -3.939e-08   |Residual|: 1.330e-06   |deigs|: 2.838e-05  t[s]:     44.43
	FillingsUpdate:  mu: -0.108842568  nElectrons: 3.000000
SCF: Cycle: 27   F: -7.061242792567176   dF: -2.746e-08   |Residual|: 1.057e-06   |deigs|: 1.983e-05  t[s]:     45.69
	FillingsUpdate:  mu: -0.108844045  nElectrons: 3.000000
SCF: Cycle: 28   F: -7.061242813980199   dF: -2.141e-08   |Residual|: 8.462e-07   |deigs|: 1.585e-05  t[s]:     47.02
	FillingsUpdate:  mu: -0.108843282  nElectrons: 3.000000
SCF: Cycle: 29   F: -7.061242828785861   dF: -1.481e-08   |Residual|: 6.784e-07   |deigs|: 1.064e-05  t[s]:     48.28
	FillingsUpdate:  mu: -0.108844399  nElectrons: 3.000000
SCF: Cycle: 30   F: -7.061242842088533   dF: -1.330e-08   |Residual|: 3.974e-07   |deigs|: 9.612e-06  t[s]:     49.60
	FillingsUpdate:  mu: -0.108845226  nElectrons: 3.000000
SCF: Cycle: 31   F: -7.061242852062260   dF: -9.974e-09   |Residual|: 2.759e-07   |deigs|: 7.136e-06  t[s]:     50.89
	FillingsUpdate:  mu: -0.108845470  nElectrons: 3.000000
SCF: Cycle: 32   F: -7.061242860875375   dF: -8.813e-09   |Residual|: 3.780e-07   |deigs|: 5.619e-06  t[s]:     52.19
SCF: Converged (|Delta E|<1.000000e-08 for 2 iters).


# Ionic positions in lattice coordinates:
ion Li   0.000000000000000   0.000000000000000   0.000000000000000 0

# Forces in Lattice coordinates:
force Li  -0.000000000000000   0.000000000000000   0.000000000000000 0

# Energy components:
   Eewald =       -1.5790049081655870
       EH =        1.9511827119821636
     Eloc =       -7.0449604522361344
      Enl =       -3.5982795554492255
   Epulay =       -0.0000020771114993
      Exc =       -1.5310367180795321
       KE =        4.7538176093399729
-------------------------------------
     Etot =       -7.0482833897198427
       TS =        0.0129594711555329
-------------------------------------
        F =       -7.0612428608753754

IonicMinimize: Iter:   0  F: -7.061242860875375  |grad|_K:  0.000e+00  t[s]:     52.27
IonicMinimize: Converged (|grad|_K<1.000000e-04).

#--- Lowdin population analysis ---
# oxidation-state Li +2.136

End date and time: Sun Jan 16 15:08:58 2022  (Duration: 0-0:00:52.28)
Done!
