3.2
--------------------------------------------------------------------------
The library attempted to open the following supporting CUDA libraries,
but each of them failed.  CUDA-aware support is disabled.
libcuda.so.1: cannot open shared object file: No such file or directory
libcuda.dylib: cannot open shared object file: No such file or directory
/usr/lib64/libcuda.so.1: cannot open shared object file: No such file or directory
/usr/lib64/libcuda.dylib: cannot open shared object file: No such file or directory
If you are not interested in CUDA-aware support, then run with
--mca opal_warn_on_missing_libcuda 0 to suppress this message.  If you are interested
in CUDA-aware support, then try setting LD_LIBRARY_PATH to the location
of libcuda.so.1 to get passed this issue.
--------------------------------------------------------------------------
--------------------------------------------------------------------------
No OpenFabrics connection schemes reported that they were able to be
used on a specific port.  As such, the openib BTL (OpenFabrics
support) will be disabled for this port.

  Local host:           d-16-7-2
  Local device:         mlx5_1
  Local port:           1
  CPCs attempted:       rdmacm, udcm
--------------------------------------------------------------------------

*************** JDFTx 1.6.0 (git hash 42ebbcc2) ***************

Start date and time: Sun Jan 16 15:09:16 2022
Executable jdftx with command-line: -i Lithium.in
Running on hosts (process indices):  d-16-7-2 (0-18)
Divided in process groups (process indices):  0 (0)  1 (1)  2 (2)  3 (3)  4 (4)  5 (5)  6 (6)  7 (7)  8 (8)  9 (9)  10 (10)  11 (11)  12 (12)  13 (13)  14 (14)  15 (15)  16 (16)  17 (17)  18 (18)
Resource initialization completed at t[s]:      0.00
Run totals: 19 processes, 48 threads, 0 GPUs


Input parsed successfully to the following command list (including defaults):

basis kpoint-dependent
coords-type Lattice
core-overlap-check vector
coulomb-interaction Slab 001
davidson-band-ratio 1.1
dump End None
dump-name $INPUT.$VAR
elec-cutoff 20
elec-eigen-algo Davidson
elec-ex-corr gga-PBE
elec-smearing Fermi 0.01
electronic-minimize  \
	dirUpdateScheme      FletcherReeves \
	linminMethod         DirUpdateRecommended \
	nIterations          100 \
	history              15 \
	knormThreshold       0 \
	energyDiffThreshold  1e-08 \
	nEnergyDiff          2 \
	alphaTstart          1 \
	alphaTmin            1e-10 \
	updateTestStepSize   yes \
	alphaTreduceFactor   0.1 \
	alphaTincreaseFactor 3 \
	nAlphaAdjustMax      3 \
	wolfeEnergy          0.0001 \
	wolfeGradient        0.9 \
	fdTest               no
electronic-scf  \
	nIterations	10000 \
	energyDiffThreshold	1e-08 \
	residualThreshold	1e-07 \
	mixFraction	0.5 \
	qMetric	0.8 \
	history	10 \
	nEigSteps	2 \
	eigDiffThreshold	1e-08 \
	mixedVariable	Density \
	qKerker	0.8 \
	qKappa	-1 \
	verbose	no \
	mixFractionMag	1.5
exchange-regularization WignerSeitzTruncated
fluid None
fluid-ex-corr (null) lda-PZ
fluid-gummel-loop 10 1.000000e-05
fluid-minimize  \
	dirUpdateScheme      PolakRibiere \
	linminMethod         DirUpdateRecommended \
	nIterations          100 \
	history              15 \
	knormThreshold       0 \
	energyDiffThreshold  0 \
	nEnergyDiff          2 \
	alphaTstart          1 \
	alphaTmin            1e-10 \
	updateTestStepSize   yes \
	alphaTreduceFactor   0.1 \
	alphaTincreaseFactor 3 \
	nAlphaAdjustMax      3 \
	wolfeEnergy          0.0001 \
	wolfeGradient        0.9 \
	fdTest               no
fluid-solvent H2O 55.338 ScalarEOS \
	epsBulk 78.4 \
	pMol 0.92466 \
	epsInf 1.77 \
	Pvap 1.06736e-10 \
	sigmaBulk 4.62e-05 \
	Rvdw 2.61727 \
	Res 1.42 \
	tauNuc 343133 \
	poleEl 15 7 1
forces-output-coords Positions
ion Li   0.000000000000000   0.000000000000000   0.000000000000000 0
ion-species SG15/$ID_ONCV_PBE.upf
ion-width 0
ionic-minimize  \
	dirUpdateScheme      L-BFGS \
	linminMethod         DirUpdateRecommended \
	nIterations          0 \
	history              15 \
	knormThreshold       0.0001 \
	energyDiffThreshold  1e-06 \
	nEnergyDiff          2 \
	alphaTstart          1 \
	alphaTmin            1e-10 \
	updateTestStepSize   yes \
	alphaTreduceFactor   0.1 \
	alphaTincreaseFactor 3 \
	nAlphaAdjustMax      3 \
	wolfeEnergy          0.0001 \
	wolfeGradient        0.9 \
	fdTest               no
kpoint   0.000000000000   0.000000000000   0.000000000000  1.00000000000000
kpoint-folding 12 12 1 
latt-move-scale 1 1 1
latt-scale 3.2 3.2 1 
lattice  \
	   4.727486978767153   -2.363743489383575    0.000000000000000  \
	  -0.000000000000000    4.094123819672498    0.000000000000000  \
	   0.000000000000000    0.000000000000000   40.000000000000000 
lattice-minimize  \
	dirUpdateScheme      L-BFGS \
	linminMethod         DirUpdateRecommended \
	nIterations          0 \
	history              15 \
	knormThreshold       0 \
	energyDiffThreshold  1e-06 \
	nEnergyDiff          2 \
	alphaTstart          1 \
	alphaTmin            1e-10 \
	updateTestStepSize   yes \
	alphaTreduceFactor   0.1 \
	alphaTincreaseFactor 3 \
	nAlphaAdjustMax      3 \
	wolfeEnergy          0.0001 \
	wolfeGradient        0.9 \
	fdTest               no
lcao-params -1 1e-06 0.01
pcm-variant GLSSA13
spintype no-spin
subspace-rotation-factor 1 yes
symmetries automatic
symmetry-threshold 0.0001



---------- Setting up symmetries ----------

Found 24 point-group symmetries of the bravais lattice
Found 24 space-group symmetries with basis
Applied RMS atom displacement 0 bohrs to make symmetries exact.

---------- Initializing the Grid ----------
R = 
[       15.128     -7.56398            0  ]
[            0      13.1012            0  ]
[            0            0           40  ]
unit cell volume = 7927.77
G =
[   0.415336   0.239794         -0  ]
[          0   0.479589         -0  ]
[         -0         -0    0.15708  ]
Minimum fftbox size, Smin = [  64  64  164  ]
Chosen fftbox size, S = [  64  64  168  ]

---------- Exchange Correlation functional ----------
Initalized PBE GGA exchange.
Initalized PBE GGA correlation.

---------- Setting up pseudopotentials ----------
Width of ionic core gaussian charges (only for fluid interactions / plotting) set to 0

Reading pseudopotential file '/home/gridsan/aligho/DFT/build-Nov24/pseudopotentials/SG15/Li_ONCV_PBE.upf':
  'Li' pseudopotential, 'PBE' functional
  Generated using ONCVPSP code by D. R. Hamann
  Author: Martin Schlipf and Francois Gygi  Date: 150915.
  3 valence electrons, 2 orbitals, 4 projectors, 1328 radial grid points, with lMax = 1
  Transforming local potential to a uniform radial grid of dG=0.02 with 1489 points.
  Transforming nonlocal projectors to a uniform radial grid of dG=0.02 with 432 points.
    1S    l: 0   occupation:  2.0   eigenvalue: -1.905623
    2S    l: 0   occupation:  1.0   eigenvalue: -0.105624
  Transforming atomic orbitals to a uniform radial grid of dG=0.02 with 432 points.
  WARNING: large normalization error in atomic orbital 1s (integral: 0.000000).
  Core radius for overlap checks: 1.63 bohrs.
  Reading pulay file /home/gridsan/aligho/DFT/build-Nov24/pseudopotentials/SG15/Li_ONCV_PBE.pulay ... using dE_dnG = -1.230239e-02 computed for Ecut = 20.

Initialized 1 species with 1 total atoms.

Folded 1 k-points by 12x12x1 to 144 k-points.

---------- Setting up k-points, bands, fillings ----------
Reduced to 19 k-points under symmetry. 
Computing the number of bands and number of electrons
Calculating initial fillings.
nElectrons:   3.000000   nBands: 3   nStates: 19

----- Setting up reduced wavefunction bases (one per k-point) -----
average nbasis = 33869.271 , ideal nbasis = 33868.055

---------- Setting up coulomb interaction ----------
Initialized slab truncation along lattice direction 001

---------- Setting up 2D ewald sum ----------
Optimum gaussian width for ewald sums = 8.398432 bohr.
Real space sums over 289 unit cells with max indices [  8  8  0  ]
Reciprocal space sums over 81 terms with max indices [  4  4  0  ]

---------- Allocating electronic variables ----------
Initializing wave functions:  linear combination of atomic orbitals
Note: number of bands (3) exceeds available atomic orbitals (2)
Li pseudo-atom occupations:   s ( 2 1 )
[d-16-7-2:17033] 18 more processes have sent help message help-mpi-common-cuda.txt / dlopen failed
[d-16-7-2:17033] Set MCA parameter "orte_base_help_aggregate" to 0 to see all help / error messages
[d-16-7-2:17033] 18 more processes have sent help message help-mpi-btl-openib-cpc-base.txt / no cpcs for port
	FillingsUpdate:  mu: +0.347677368  nElectrons: 3.000000
LCAOMinimize: Iter:   0  F: -1.3082011611653339  |grad|_K:  2.575e-03  alpha:  1.000e+00
	FillingsUpdate:  mu: +0.347645946  nElectrons: 3.000000
LCAOMinimize: Iter:   1  F: -1.3087985189548741  |grad|_K:  1.098e-03  alpha:  1.287e+00  linmin:  1.567e-02  cgtest: -6.543e-01  t[s]:      6.03
LCAOMinimize: 	Bad step direction: g.d > 0.
LCAOMinimize: 	Undoing step.
LCAOMinimize: 	Step failed: resetting search direction.
	FillingsUpdate:  mu: +0.347645946  nElectrons: 3.000000
LCAOMinimize: Iter:   2  F: -1.3087985189548741  |grad|_K:  1.098e-03  alpha:  0.000e+00
	FillingsUpdate:  mu: +0.347653662  nElectrons: 3.000000
LCAOMinimize: Iter:   3  F: -1.3088946975312588  |grad|_K:  2.954e-05  alpha:  9.709e-01  linmin: -1.615e-02  cgtest:  9.827e-01  t[s]:      7.83
LCAOMinimize: Encountered beta<0, resetting CG.
	FillingsUpdate:  mu: +0.347653938  nElectrons: 3.000000
LCAOMinimize: Iter:   4  F: -1.3088947733919847  |grad|_K:  8.622e-07  alpha:  1.016e+00  linmin: -1.343e-03  cgtest:  4.025e-02  t[s]:      9.00
LCAOMinimize: Encountered beta<0, resetting CG.
	FillingsUpdate:  mu: +0.347653941  nElectrons: 3.000000
LCAOMinimize: Iter:   5  F: -1.3088947734580711  |grad|_K:  3.847e-08  alpha:  1.072e+00  linmin:  1.881e-02  cgtest: -7.387e-01  t[s]:     10.14
LCAOMinimize: Converged (|Delta F|<1.000000e-06 for 2 iters).


---- Citations for features of the code used in this run ----

   Software package:
      R. Sundararaman, K. Letchworth-Weaver, K.A. Schwarz, D. Gunceler, Y. Ozhabes and T.A. Arias, 'JDFTx: software for joint density-functional theory', SoftwareX 6, 278 (2017)

   gga-PBE exchange-correlation functional:
      J.P. Perdew, K. Burke and M. Ernzerhof, Phys. Rev. Lett. 77, 3865 (1996)

   Pseudopotentials:
      M Schlipf and F Gygi, Comput. Phys. Commun. 196, 36 (2015)

   Truncated Coulomb potentials:
      R. Sundararaman and T.A. Arias, Phys. Rev. B 87, 165122 (2013)

This list may not be complete. Please suggest additional citations or
report any other bugs at https://github.com/shankar1729/jdftx/issues

Initialization completed successfully at t[s]:     10.20


-------- Electronic minimization -----------
Will mix electronic density at each iteration.
	FillingsUpdate:  mu: +0.347653941  nElectrons: 3.000000
	FillingsUpdate:  mu: -0.665001004  nElectrons: 3.000000
SCF: Cycle:  0   F: -6.887467582245939   dF: -5.579e+00   |Residual|: 1.228e+00   |deigs|: 4.162e+00  t[s]:     12.12
	FillingsUpdate:  mu: -0.554035957  nElectrons: 3.000000
SCF: Cycle:  1   F: -6.927731463570236   dF: -4.026e-02   |Residual|: 7.594e-01   |deigs|: 2.705e-01  t[s]:     13.64
	FillingsUpdate:  mu: -0.295403864  nElectrons: 3.000000
SCF: Cycle:  2   F: -7.054227103855697   dF: -1.265e-01   |Residual|: 3.145e-01   |deigs|: 7.142e-01  t[s]:     15.18
	FillingsUpdate:  mu: -0.339005932  nElectrons: 3.000000
SCF: Cycle:  3   F: -7.052233796059115   dF: +1.993e-03   |Residual|: 1.734e-01   |deigs|: 8.826e-02  t[s]:     16.75
	FillingsUpdate:  mu: -0.292942142  nElectrons: 3.000000
SCF: Cycle:  4   F: -7.048068472762386   dF: +4.165e-03   |Residual|: 1.445e-01   |deigs|: 3.856e-02  t[s]:     18.36
	FillingsUpdate:  mu: -0.288337898  nElectrons: 3.000000
SCF: Cycle:  5   F: -7.050125726225200   dF: -2.057e-03   |Residual|: 3.095e-02   |deigs|: 3.842e-02  t[s]:     20.04
	FillingsUpdate:  mu: -0.202795752  nElectrons: 3.000000
SCF: Cycle:  6   F: -7.056176011260248   dF: -6.050e-03   |Residual|: 1.450e-01   |deigs|: 1.726e-01  t[s]:     21.69
	FillingsUpdate:  mu: -0.262279426  nElectrons: 3.000000
SCF: Cycle:  7   F: -7.055148583448304   dF: +1.027e-03   |Residual|: 1.173e-01   |deigs|: 1.747e-01  t[s]:     23.44
	FillingsUpdate:  mu: -0.213355704  nElectrons: 3.000000
SCF: Cycle:  8   F: -7.052971539338931   dF: +2.177e-03   |Residual|: 3.341e-01   |deigs|: 5.836e-02  t[s]:     25.23
	FillingsUpdate:  mu: -0.152712866  nElectrons: 3.000000
SCF: Cycle:  9   F: -7.048519440402242   dF: +4.452e-03   |Residual|: 3.984e-01   |deigs|: 2.633e-01  t[s]:     27.03
	FillingsUpdate:  mu: -0.136724277  nElectrons: 3.000000
SCF: Cycle: 10   F: -7.056167818323593   dF: -7.648e-03   |Residual|: 1.085e-01   |deigs|: 6.786e-02  t[s]:     28.85
	FillingsUpdate:  mu: -0.151090097  nElectrons: 3.000000
SCF: Cycle: 11   F: -7.058023880130584   dF: -1.856e-03   |Residual|: 2.300e-02   |deigs|: 5.497e-02  t[s]:     30.65
	FillingsUpdate:  mu: -0.106298900  nElectrons: 3.000000
SCF: Cycle: 12   F: -7.057857156212013   dF: +1.667e-04   |Residual|: 1.461e-02   |deigs|: 6.846e-02  t[s]:     32.48
	FillingsUpdate:  mu: -0.107647027  nElectrons: 3.000000
SCF: Cycle: 13   F: -7.058122775488460   dF: -2.656e-04   |Residual|: 1.118e-02   |deigs|: 9.423e-03  t[s]:     34.34
	FillingsUpdate:  mu: -0.114585548  nElectrons: 3.000000
SCF: Cycle: 14   F: -7.058338431352071   dF: -2.157e-04   |Residual|: 1.017e-02   |deigs|: 1.823e-02  t[s]:     36.17
	FillingsUpdate:  mu: -0.098167843  nElectrons: 3.000000
SCF: Cycle: 15   F: -7.058397123876640   dF: -5.869e-05   |Residual|: 1.277e-02   |deigs|: 3.231e-02  t[s]:     37.96
	FillingsUpdate:  mu: -0.106404670  nElectrons: 3.000000
SCF: Cycle: 16   F: -7.058438353928987   dF: -4.123e-05   |Residual|: 1.302e-03   |deigs|: 1.606e-02  t[s]:     39.81
	FillingsUpdate:  mu: -0.105817559  nElectrons: 3.000000
SCF: Cycle: 17   F: -7.058444167227237   dF: -5.813e-06   |Residual|: 5.365e-04   |deigs|: 9.585e-04  t[s]:     41.66
	FillingsUpdate:  mu: -0.105619312  nElectrons: 3.000000
SCF: Cycle: 18   F: -7.058448187255518   dF: -4.020e-06   |Residual|: 4.133e-04   |deigs|: 3.106e-04  t[s]:     43.49
	FillingsUpdate:  mu: -0.105826345  nElectrons: 3.000000
SCF: Cycle: 19   F: -7.058449555554624   dF: -1.368e-06   |Residual|: 2.925e-04   |deigs|: 4.552e-04  t[s]:     45.31
	FillingsUpdate:  mu: -0.105840720  nElectrons: 3.000000
SCF: Cycle: 20   F: -7.058449974414899   dF: -4.189e-07   |Residual|: 1.245e-04   |deigs|: 9.312e-05  t[s]:     47.12
	FillingsUpdate:  mu: -0.106173672  nElectrons: 3.000000
SCF: Cycle: 21   F: -7.058450353075040   dF: -3.787e-07   |Residual|: 4.416e-05   |deigs|: 3.740e-04  t[s]:     48.92
	FillingsUpdate:  mu: -0.106167607  nElectrons: 3.000000
SCF: Cycle: 22   F: -7.058450488354896   dF: -1.353e-07   |Residual|: 2.698e-05   |deigs|: 4.834e-05  t[s]:     50.76
	FillingsUpdate:  mu: -0.106151848  nElectrons: 3.000000
SCF: Cycle: 23   F: -7.058450592706220   dF: -1.044e-07   |Residual|: 1.876e-05   |deigs|: 4.697e-05  t[s]:     52.59
	FillingsUpdate:  mu: -0.106143454  nElectrons: 3.000000
SCF: Cycle: 24   F: -7.058450698377693   dF: -1.057e-07   |Residual|: 1.434e-05   |deigs|: 5.091e-05  t[s]:     54.47
	FillingsUpdate:  mu: -0.106145297  nElectrons: 3.000000
SCF: Cycle: 25   F: -7.058450780891319   dF: -8.251e-08   |Residual|: 5.678e-06   |deigs|: 4.063e-05  t[s]:     56.23
	FillingsUpdate:  mu: -0.106145150  nElectrons: 3.000000
SCF: Cycle: 26   F: -7.058451450015794   dF: -6.691e-07   |Residual|: 9.778e-06   |deigs|: 3.575e-04  t[s]:     58.02
	FillingsUpdate:  mu: -0.106148289  nElectrons: 3.000000
SCF: Cycle: 27   F: -7.058451747567778   dF: -2.976e-07   |Residual|: 9.223e-06   |deigs|: 1.299e-04  t[s]:     59.69
	FillingsUpdate:  mu: -0.106149227  nElectrons: 3.000000
SCF: Cycle: 28   F: -7.058451777503270   dF: -2.994e-08   |Residual|: 7.294e-06   |deigs|: 1.383e-05  t[s]:     61.39
	FillingsUpdate:  mu: -0.106149046  nElectrons: 3.000000
SCF: Cycle: 29   F: -7.058451799188978   dF: -2.169e-08   |Residual|: 7.043e-06   |deigs|: 8.882e-06  t[s]:     63.16
	FillingsUpdate:  mu: -0.106149187  nElectrons: 3.000000
SCF: Cycle: 30   F: -7.058451813364091   dF: -1.418e-08   |Residual|: 7.775e-06   |deigs|: 6.779e-06  t[s]:     64.90
	FillingsUpdate:  mu: -0.106149156  nElectrons: 3.000000
SCF: Cycle: 31   F: -7.058451824416513   dF: -1.105e-08   |Residual|: 7.499e-06   |deigs|: 4.585e-06  t[s]:     66.62
	FillingsUpdate:  mu: -0.106150087  nElectrons: 3.000000
SCF: Cycle: 32   F: -7.058451832394444   dF: -7.978e-09   |Residual|: 8.015e-06   |deigs|: 4.464e-06  t[s]:     68.40
	FillingsUpdate:  mu: -0.106150815  nElectrons: 3.000000
SCF: Cycle: 33   F: -7.058451839198297   dF: -6.804e-09   |Residual|: 7.986e-06   |deigs|: 3.382e-06  t[s]:     70.16
SCF: Converged (|Delta E|<1.000000e-08 for 2 iters).


# Ionic positions in lattice coordinates:
ion Li   0.000000000000000   0.000000000000000   0.000000000000000 0

# Forces in Lattice coordinates:
force Li   0.000000000000000  -0.000000000000000   0.000000000000000 0

# Energy components:
   Eewald =       -1.2533351458564352
       EH =        2.2939882145381176
     Eloc =       -7.7204213810152522
      Enl =       -3.6027506806146192
   Epulay =        0.0000018870874787
      Exc =       -1.5339991084849158
       KE =        4.7722300876647283
-------------------------------------
     Etot =       -7.0442861266808974
       TS =        0.0141657125173998
-------------------------------------
        F =       -7.0584518391982973

IonicMinimize: Iter:   0  F: -7.058451839198297  |grad|_K:  0.000e+00  t[s]:     70.28
IonicMinimize: Converged (|grad|_K<1.000000e-04).

#--- Lowdin population analysis ---
# oxidation-state Li +2.089

End date and time: Sun Jan 16 15:10:26 2022  (Duration: 0-0:01:10.29)
Done!
