1.49
--------------------------------------------------------------------------
The library attempted to open the following supporting CUDA libraries,
but each of them failed.  CUDA-aware support is disabled.
libcuda.so.1: cannot open shared object file: No such file or directory
libcuda.dylib: cannot open shared object file: No such file or directory
/usr/lib64/libcuda.so.1: cannot open shared object file: No such file or directory
/usr/lib64/libcuda.dylib: cannot open shared object file: No such file or directory
If you are not interested in CUDA-aware support, then run with
--mca opal_warn_on_missing_libcuda 0 to suppress this message.  If you are interested
in CUDA-aware support, then try setting LD_LIBRARY_PATH to the location
of libcuda.so.1 to get passed this issue.
--------------------------------------------------------------------------
--------------------------------------------------------------------------
No OpenFabrics connection schemes reported that they were able to be
used on a specific port.  As such, the openib BTL (OpenFabrics
support) will be disabled for this port.

  Local host:           d-5-3-1
  Local device:         mlx5_1
  Local port:           1
  CPCs attempted:       rdmacm, udcm
--------------------------------------------------------------------------

*************** JDFTx 1.6.0 (git hash 42ebbcc2) ***************

Start date and time: Sun Jan 16 15:07:28 2022
Executable jdftx with command-line: -i Lithium.in
Running on hosts (process indices):  d-5-3-1 (0-18)
Divided in process groups (process indices):  0 (0)  1 (1)  2 (2)  3 (3)  4 (4)  5 (5)  6 (6)  7 (7)  8 (8)  9 (9)  10 (10)  11 (11)  12 (12)  13 (13)  14 (14)  15 (15)  16 (16)  17 (17)  18 (18)
Resource initialization completed at t[s]:      0.00
Run totals: 19 processes, 48 threads, 0 GPUs


Input parsed successfully to the following command list (including defaults):

basis kpoint-dependent
coords-type Lattice
core-overlap-check vector
coulomb-interaction Slab 001
davidson-band-ratio 1.1
dump End None
dump-name $INPUT.$VAR
elec-cutoff 20
elec-eigen-algo Davidson
elec-ex-corr gga-PBE
elec-smearing Fermi 0.01
electronic-minimize  \
	dirUpdateScheme      FletcherReeves \
	linminMethod         DirUpdateRecommended \
	nIterations          100 \
	history              15 \
	knormThreshold       0 \
	energyDiffThreshold  1e-08 \
	nEnergyDiff          2 \
	alphaTstart          1 \
	alphaTmin            1e-10 \
	updateTestStepSize   yes \
	alphaTreduceFactor   0.1 \
	alphaTincreaseFactor 3 \
	nAlphaAdjustMax      3 \
	wolfeEnergy          0.0001 \
	wolfeGradient        0.9 \
	fdTest               no
electronic-scf  \
	nIterations	10000 \
	energyDiffThreshold	1e-08 \
	residualThreshold	1e-07 \
	mixFraction	0.5 \
	qMetric	0.8 \
	history	10 \
	nEigSteps	2 \
	eigDiffThreshold	1e-08 \
	mixedVariable	Density \
	qKerker	0.8 \
	qKappa	-1 \
	verbose	no \
	mixFractionMag	1.5
exchange-regularization WignerSeitzTruncated
fluid None
fluid-ex-corr (null) lda-PZ
fluid-gummel-loop 10 1.000000e-05
fluid-minimize  \
	dirUpdateScheme      PolakRibiere \
	linminMethod         DirUpdateRecommended \
	nIterations          100 \
	history              15 \
	knormThreshold       0 \
	energyDiffThreshold  0 \
	nEnergyDiff          2 \
	alphaTstart          1 \
	alphaTmin            1e-10 \
	updateTestStepSize   yes \
	alphaTreduceFactor   0.1 \
	alphaTincreaseFactor 3 \
	nAlphaAdjustMax      3 \
	wolfeEnergy          0.0001 \
	wolfeGradient        0.9 \
	fdTest               no
fluid-solvent H2O 55.338 ScalarEOS \
	epsBulk 78.4 \
	pMol 0.92466 \
	epsInf 1.77 \
	Pvap 1.06736e-10 \
	sigmaBulk 4.62e-05 \
	Rvdw 2.61727 \
	Res 1.42 \
	tauNuc 343133 \
	poleEl 15 7 1
forces-output-coords Positions
ion Li   0.000000000000000   0.000000000000000   0.000000000000000 0
ion-species SG15/$ID_ONCV_PBE.upf
ion-width 0
ionic-minimize  \
	dirUpdateScheme      L-BFGS \
	linminMethod         DirUpdateRecommended \
	nIterations          0 \
	history              15 \
	knormThreshold       0.0001 \
	energyDiffThreshold  1e-06 \
	nEnergyDiff          2 \
	alphaTstart          1 \
	alphaTmin            1e-10 \
	updateTestStepSize   yes \
	alphaTreduceFactor   0.1 \
	alphaTincreaseFactor 3 \
	nAlphaAdjustMax      3 \
	wolfeEnergy          0.0001 \
	wolfeGradient        0.9 \
	fdTest               no
kpoint   0.000000000000   0.000000000000   0.000000000000  1.00000000000000
kpoint-folding 12 12 1 
latt-move-scale 1 1 1
latt-scale 1.49 1.49 1 
lattice  \
	   4.727486978767153   -2.363743489383575    0.000000000000000  \
	  -0.000000000000000    4.094123819672498    0.000000000000000  \
	   0.000000000000000    0.000000000000000   40.000000000000000 
lattice-minimize  \
	dirUpdateScheme      L-BFGS \
	linminMethod         DirUpdateRecommended \
	nIterations          0 \
	history              15 \
	knormThreshold       0 \
	energyDiffThreshold  1e-06 \
	nEnergyDiff          2 \
	alphaTstart          1 \
	alphaTmin            1e-10 \
	updateTestStepSize   yes \
	alphaTreduceFactor   0.1 \
	alphaTincreaseFactor 3 \
	nAlphaAdjustMax      3 \
	wolfeEnergy          0.0001 \
	wolfeGradient        0.9 \
	fdTest               no
lcao-params -1 1e-06 0.01
pcm-variant GLSSA13
spintype no-spin
subspace-rotation-factor 1 yes
symmetries automatic
symmetry-threshold 0.0001



---------- Setting up symmetries ----------

Found 24 point-group symmetries of the bravais lattice
Found 24 space-group symmetries with basis
Applied RMS atom displacement 0 bohrs to make symmetries exact.

---------- Initializing the Grid ----------
R = 
[      7.04396     -3.52198            0  ]
[            0      6.10024            0  ]
[            0            0           40  ]
unit cell volume = 1718.79
G =
[   0.891997   0.514995         -0  ]
[          0    1.02999         -0  ]
[         -0         -0    0.15708  ]
Minimum fftbox size, Smin = [  32  32  164  ]
Chosen fftbox size, S = [  32  32  168  ]

---------- Exchange Correlation functional ----------
Initalized PBE GGA exchange.
Initalized PBE GGA correlation.

---------- Setting up pseudopotentials ----------
Width of ionic core gaussian charges (only for fluid interactions / plotting) set to 0

Reading pseudopotential file '/home/gridsan/aligho/DFT/build-Nov24/pseudopotentials/SG15/Li_ONCV_PBE.upf':
  'Li' pseudopotential, 'PBE' functional
  Generated using ONCVPSP code by D. R. Hamann
  Author: Martin Schlipf and Francois Gygi  Date: 150915.
  3 valence electrons, 2 orbitals, 4 projectors, 1328 radial grid points, with lMax = 1
  Transforming local potential to a uniform radial grid of dG=0.02 with 1578 points.
  Transforming nonlocal projectors to a uniform radial grid of dG=0.02 with 432 points.
    1S    l: 0   occupation:  2.0   eigenvalue: -1.905623
    2S    l: 0   occupation:  1.0   eigenvalue: -0.105624
  Transforming atomic orbitals to a uniform radial grid of dG=0.02 with 432 points.
  WARNING: large normalization error in atomic orbital 1s (integral: 0.000000).
  Core radius for overlap checks: 1.63 bohrs.
  Reading pulay file /home/gridsan/aligho/DFT/build-Nov24/pseudopotentials/SG15/Li_ONCV_PBE.pulay ... using dE_dnG = -1.230239e-02 computed for Ecut = 20.

Initialized 1 species with 1 total atoms.

Folded 1 k-points by 12x12x1 to 144 k-points.

---------- Setting up k-points, bands, fillings ----------
Reduced to 19 k-points under symmetry. 
Computing the number of bands and number of electrons
Calculating initial fillings.
nElectrons:   3.000000   nBands: 3   nStates: 19

----- Setting up reduced wavefunction bases (one per k-point) -----
average nbasis = 7341.688 , ideal nbasis = 7342.819

---------- Setting up coulomb interaction ----------
Initialized slab truncation along lattice direction 001

---------- Setting up 2D ewald sum ----------
Optimum gaussian width for ewald sums = 3.910520 bohr.
Real space sums over 289 unit cells with max indices [  8  8  0  ]
Reciprocal space sums over 81 terms with max indices [  4  4  0  ]

---------- Allocating electronic variables ----------
Initializing wave functions:  linear combination of atomic orbitals
Note: number of bands (3) exceeds available atomic orbitals (2)
Li pseudo-atom occupations:   s ( 2 1 )
	FillingsUpdate:  mu: +0.349272994  nElectrons: 3.000000
LCAOMinimize: Iter:   0  F: -0.9829500477057079  |grad|_K:  5.905e-03  alpha:  1.000e+00
LCAOMinimize: 	Step increased F by 4.040703e-02, reducing alpha to 1.895594e-01.
	FillingsUpdate:  mu: +0.349252187  nElectrons: 3.000000
LCAOMinimize: Iter:   1  F: -0.9839963278375571  |grad|_K:  4.965e-03  alpha:  1.896e-01  linmin: -1.751e-02  cgtest:  9.641e-01  t[s]:      1.86
LCAOMinimize: Encountered beta<0, resetting CG.
LCAOMinimize: 	Predicted alpha/alphaT>3.000000, increasing alphaT to 5.686782e-01.
LCAOMinimize: 	Predicted alpha/alphaT>3.000000, increasing alphaT to 1.706035e+00.
	FillingsUpdate:  mu: +0.349172871  nElectrons: 3.000000
LCAOMinimize: Iter:   2  F: -0.9862295198971084  |grad|_K:  3.232e-03  alpha:  5.439e-01  linmin: -1.197e-02  cgtest:  7.011e-01  t[s]:      2.56
LCAOMinimize: Encountered beta<0, resetting CG.
LCAOMinimize: 	Predicted alpha/alphaT>3.000000, increasing alphaT to 1.631699e+00.
	FillingsUpdate:  mu: +0.349085234  nElectrons: 3.000000
LCAOMinimize: Iter:   3  F: -0.9873320947288746  |grad|_K:  3.122e-04  alpha:  9.228e-01  linmin: -1.731e-02  cgtest:  7.675e-01  t[s]:      3.07
LCAOMinimize: Encountered beta<0, resetting CG.
	FillingsUpdate:  mu: +0.349079829  nElectrons: 3.000000
LCAOMinimize: Iter:   4  F: -0.9873404312766941  |grad|_K:  5.277e-06  alpha:  1.002e+00  linmin:  1.634e-02  cgtest: -6.462e-01  t[s]:      3.42
	FillingsUpdate:  mu: +0.349079766  nElectrons: 3.000000
LCAOMinimize: Iter:   5  F: -0.9873404326269924  |grad|_K:  3.496e-06  alpha:  1.041e+00  linmin: -1.566e-05  cgtest:  6.728e-01  t[s]:      3.77
LCAOMinimize: Encountered beta<0, resetting CG.
	FillingsUpdate:  mu: +0.349079824  nElectrons: 3.000000
LCAOMinimize: Iter:   6  F: -0.9873404336619163  |grad|_K:  4.219e-08  alpha:  9.910e-01  linmin:  1.768e-03  cgtest: -5.108e-02  t[s]:      4.13
LCAOMinimize: Converged (|Delta F|<1.000000e-06 for 2 iters).


---- Citations for features of the code used in this run ----

   Software package:
      R. Sundararaman, K. Letchworth-Weaver, K.A. Schwarz, D. Gunceler, Y. Ozhabes and T.A. Arias, 'JDFTx: software for joint density-functional theory', SoftwareX 6, 278 (2017)

   gga-PBE exchange-correlation functional:
      J.P. Perdew, K. Burke and M. Ernzerhof, Phys. Rev. Lett. 77, 3865 (1996)

   Pseudopotentials:
      M Schlipf and F Gygi, Comput. Phys. Commun. 196, 36 (2015)

   Truncated Coulomb potentials:
      R. Sundararaman and T.A. Arias, Phys. Rev. B 87, 165122 (2013)

This list may not be complete. Please suggest additional citations or
report any other bugs at https://github.com/shankar1729/jdftx/issues

Initialization completed successfully at t[s]:      4.16


-------- Electronic minimization -----------
Will mix electronic density at each iteration.
	FillingsUpdate:  mu: +0.349079824  nElectrons: 3.000000
	FillingsUpdate:  mu: -1.469195536  nElectrons: 3.000000
SCF: Cycle:  0   F: -6.088543202634955   dF: -5.101e+00   |Residual|: 9.263e-01   |deigs|: 4.153e+00  t[s]:      4.73
[d-5-3-1:45587] 18 more processes have sent help message help-mpi-common-cuda.txt / dlopen failed
[d-5-3-1:45587] Set MCA parameter "orte_base_help_aggregate" to 0 to see all help / error messages
[d-5-3-1:45587] 18 more processes have sent help message help-mpi-btl-openib-cpc-base.txt / no cpcs for port
	FillingsUpdate:  mu: -1.398663681  nElectrons: 3.000000
SCF: Cycle:  1   F: -6.920428045630292   dF: -8.319e-01   |Residual|: 7.907e-01   |deigs|: 5.290e-01  t[s]:      5.12
	FillingsUpdate:  mu: -0.917596382  nElectrons: 3.000000
SCF: Cycle:  2   F: -6.410513110646595   dF: +5.099e-01   |Residual|: 1.972e+00   |deigs|: 1.676e+00  t[s]:      5.51
	FillingsUpdate:  mu: -1.226748590  nElectrons: 3.000000
SCF: Cycle:  3   F: -7.055447668276575   dF: -6.449e-01   |Residual|: 1.818e-01   |deigs|: 1.200e+00  t[s]:      5.92
	FillingsUpdate:  mu: -1.198939567  nElectrons: 3.000000
SCF: Cycle:  4   F: -7.052033738301806   dF: +3.414e-03   |Residual|: 5.463e-01   |deigs|: 1.343e-01  t[s]:      6.34
	FillingsUpdate:  mu: -1.301088418  nElectrons: 3.000000
SCF: Cycle:  5   F: -6.877018514529119   dF: +1.750e-01   |Residual|: 1.773e+00   |deigs|: 4.760e-01  t[s]:      6.75
	FillingsUpdate:  mu: -1.489213524  nElectrons: 3.000000
SCF: Cycle:  6   F: -6.712921270461473   dF: +1.641e-01   |Residual|: 2.108e+00   |deigs|: 3.306e-01  t[s]:      7.17
	FillingsUpdate:  mu: -1.532088712  nElectrons: 3.000000
SCF: Cycle:  7   F: -6.690625732550270   dF: +2.230e-02   |Residual|: 2.138e+00   |deigs|: 7.752e-02  t[s]:      7.61
	FillingsUpdate:  mu: -1.906867212  nElectrons: 3.000000
SCF: Cycle:  8   F: -6.386269404230593   dF: +3.044e-01   |Residual|: 2.705e+00   |deigs|: 6.262e-01  t[s]:      8.05
	FillingsUpdate:  mu: -1.632604020  nElectrons: 3.000000
SCF: Cycle:  9   F: -6.495126462102341   dF: -1.089e-01   |Residual|: 2.241e+00   |deigs|: 4.614e-01  t[s]:      8.50
	FillingsUpdate:  mu: -1.409055850  nElectrons: 3.000000
SCF: Cycle: 10   F: -6.728455840387427   dF: -2.333e-01   |Residual|: 1.873e+00   |deigs|: 3.555e-01  t[s]:      8.95
	FillingsUpdate:  mu: -0.333668271  nElectrons: 3.000000
SCF: Cycle: 11   F: -7.078891369012470   dF: -3.504e-01   |Residual|: 5.729e-01   |deigs|: 1.895e+00  t[s]:      9.39
	FillingsUpdate:  mu: -0.379005182  nElectrons: 3.000000
SCF: Cycle: 12   F: -7.087643230668933   dF: -8.752e-03   |Residual|: 2.932e-01   |deigs|: 1.972e-01  t[s]:      9.84
	FillingsUpdate:  mu: -0.329263227  nElectrons: 3.000000
SCF: Cycle: 13   F: -7.088910407406038   dF: -1.267e-03   |Residual|: 1.373e-01   |deigs|: 8.292e-02  t[s]:     10.28
	FillingsUpdate:  mu: -0.147266179  nElectrons: 3.000000
SCF: Cycle: 14   F: -7.074091706025531   dF: +1.482e-02   |Residual|: 3.501e-01   |deigs|: 3.555e-01  t[s]:     10.71
	FillingsUpdate:  mu: -0.213543263  nElectrons: 3.000000
SCF: Cycle: 15   F: -7.090038362039381   dF: -1.595e-02   |Residual|: 1.907e-01   |deigs|: 1.479e-01  t[s]:     11.15
	FillingsUpdate:  mu: -0.021809109  nElectrons: 3.000000
SCF: Cycle: 16   F: -7.089097877898349   dF: +9.405e-04   |Residual|: 6.809e-02   |deigs|: 1.830e-01  t[s]:     11.58
	FillingsUpdate:  mu: -0.154815406  nElectrons: 3.000000
SCF: Cycle: 17   F: -7.092141834633276   dF: -3.044e-03   |Residual|: 2.158e-02   |deigs|: 1.683e-01  t[s]:     12.02
	FillingsUpdate:  mu: -0.171917230  nElectrons: 3.000000
SCF: Cycle: 18   F: -7.091952322703936   dF: +1.895e-04   |Residual|: 2.711e-02   |deigs|: 1.923e-02  t[s]:     12.46
	FillingsUpdate:  mu: -0.158394533  nElectrons: 3.000000
SCF: Cycle: 19   F: -7.092157916909088   dF: -2.056e-04   |Residual|: 3.753e-02   |deigs|: 3.313e-02  t[s]:     12.90
	FillingsUpdate:  mu: -0.133564925  nElectrons: 3.000000
SCF: Cycle: 20   F: -7.092610700899543   dF: -4.528e-04   |Residual|: 1.025e-02   |deigs|: 2.163e-02  t[s]:     13.33
	FillingsUpdate:  mu: -0.104426916  nElectrons: 3.000000
SCF: Cycle: 21   F: -7.092652228170440   dF: -4.153e-05   |Residual|: 4.852e-03   |deigs|: 3.007e-02  t[s]:     13.76
	FillingsUpdate:  mu: -0.114071649  nElectrons: 3.000000
SCF: Cycle: 22   F: -7.092673080667961   dF: -2.085e-05   |Residual|: 1.115e-03   |deigs|: 1.197e-02  t[s]:     14.20
	FillingsUpdate:  mu: -0.119894539  nElectrons: 3.000000
SCF: Cycle: 23   F: -7.092678051553184   dF: -4.971e-06   |Residual|: 7.421e-04   |deigs|: 6.273e-03  t[s]:     14.63
	FillingsUpdate:  mu: -0.121024711  nElectrons: 3.000000
SCF: Cycle: 24   F: -7.092680645781787   dF: -2.594e-06   |Residual|: 6.562e-04   |deigs|: 1.528e-03  t[s]:     15.05
	FillingsUpdate:  mu: -0.119423882  nElectrons: 3.000000
SCF: Cycle: 25   F: -7.092683293717044   dF: -2.648e-06   |Residual|: 2.452e-04   |deigs|: 1.650e-03  t[s]:     15.49
	FillingsUpdate:  mu: -0.120902252  nElectrons: 3.000000
SCF: Cycle: 26   F: -7.092683533252441   dF: -2.395e-07   |Residual|: 1.011e-04   |deigs|: 1.709e-03  t[s]:     15.91
	FillingsUpdate:  mu: -0.120503151  nElectrons: 3.000000
SCF: Cycle: 27   F: -7.092683583716366   dF: -5.046e-08   |Residual|: 4.261e-05   |deigs|: 4.776e-04  t[s]:     16.34
	FillingsUpdate:  mu: -0.120722019  nElectrons: 3.000000
SCF: Cycle: 28   F: -7.092683587470130   dF: -3.754e-09   |Residual|: 2.817e-05   |deigs|: 2.939e-04  t[s]:     16.78
	FillingsUpdate:  mu: -0.120533355  nElectrons: 3.000000
SCF: Cycle: 29   F: -7.092683622349858   dF: -3.488e-08   |Residual|: 2.466e-05   |deigs|: 1.972e-04  t[s]:     17.22
	FillingsUpdate:  mu: -0.120639314  nElectrons: 3.000000
SCF: Cycle: 30   F: -7.092683624507785   dF: -2.158e-09   |Residual|: 9.103e-06   |deigs|: 1.204e-04  t[s]:     17.63
	FillingsUpdate:  mu: -0.120628083  nElectrons: 3.000000
SCF: Cycle: 31   F: -7.092683625833493   dF: -1.326e-09   |Residual|: 5.559e-06   |deigs|: 2.224e-05  t[s]:     18.06
SCF: Converged (|Delta E|<1.000000e-08 for 2 iters).


# Ionic positions in lattice coordinates:
ion Li   0.000000000000000   0.000000000000000   0.000000000000000 0

# Forces in Lattice coordinates:
force Li   0.000000000000000   0.000000000000000   0.000000000000000 0

# Energy components:
   Eewald =       -2.6917264877453642
       EH =        0.9181256804100965
     Eloc =       -4.9177314221932527
      Enl =       -3.5932244352264475
   Epulay =       -0.0000081000840382
      Exc =       -1.5646663839529407
       KE =        4.7627821830547337
-------------------------------------
     Etot =       -7.0864489657372136
       TS =        0.0062346600962791
-------------------------------------
        F =       -7.0926836258334927

IonicMinimize: Iter:   0  F: -7.092683625833493  |grad|_K:  0.000e+00  t[s]:     18.09
IonicMinimize: Converged (|grad|_K<1.000000e-04).

#--- Lowdin population analysis ---
# oxidation-state Li +2.130

End date and time: Sun Jan 16 15:07:46 2022  (Duration: 0-0:00:18.09)
Done!
