2.72
--------------------------------------------------------------------------
The library attempted to open the following supporting CUDA libraries,
but each of them failed.  CUDA-aware support is disabled.
libcuda.so.1: cannot open shared object file: No such file or directory
libcuda.dylib: cannot open shared object file: No such file or directory
/usr/lib64/libcuda.so.1: cannot open shared object file: No such file or directory
/usr/lib64/libcuda.dylib: cannot open shared object file: No such file or directory
If you are not interested in CUDA-aware support, then run with
--mca opal_warn_on_missing_libcuda 0 to suppress this message.  If you are interested
in CUDA-aware support, then try setting LD_LIBRARY_PATH to the location
of libcuda.so.1 to get passed this issue.
--------------------------------------------------------------------------
--------------------------------------------------------------------------
No OpenFabrics connection schemes reported that they were able to be
used on a specific port.  As such, the openib BTL (OpenFabrics
support) will be disabled for this port.

  Local host:           d-3-3-1
  Local device:         mlx5_1
  Local port:           1
  CPCs attempted:       rdmacm, udcm
--------------------------------------------------------------------------

*************** JDFTx 1.6.0 (git hash 42ebbcc2) ***************

Start date and time: Sun Jan 16 15:09:17 2022
Executable jdftx with command-line: -i Lithium.in
Running on hosts (process indices):  d-3-3-1 (0-18)
Divided in process groups (process indices):  0 (0)  1 (1)  2 (2)  3 (3)  4 (4)  5 (5)  6 (6)  7 (7)  8 (8)  9 (9)  10 (10)  11 (11)  12 (12)  13 (13)  14 (14)  15 (15)  16 (16)  17 (17)  18 (18)
Resource initialization completed at t[s]:      0.00
Run totals: 19 processes, 48 threads, 0 GPUs


Input parsed successfully to the following command list (including defaults):

basis kpoint-dependent
coords-type Lattice
core-overlap-check vector
coulomb-interaction Slab 001
davidson-band-ratio 1.1
dump End None
dump-name $INPUT.$VAR
elec-cutoff 20
elec-eigen-algo Davidson
elec-ex-corr gga-PBE
elec-smearing Fermi 0.01
electronic-minimize  \
	dirUpdateScheme      FletcherReeves \
	linminMethod         DirUpdateRecommended \
	nIterations          100 \
	history              15 \
	knormThreshold       0 \
	energyDiffThreshold  1e-08 \
	nEnergyDiff          2 \
	alphaTstart          1 \
	alphaTmin            1e-10 \
	updateTestStepSize   yes \
	alphaTreduceFactor   0.1 \
	alphaTincreaseFactor 3 \
	nAlphaAdjustMax      3 \
	wolfeEnergy          0.0001 \
	wolfeGradient        0.9 \
	fdTest               no
electronic-scf  \
	nIterations	10000 \
	energyDiffThreshold	1e-08 \
	residualThreshold	1e-07 \
	mixFraction	0.5 \
	qMetric	0.8 \
	history	10 \
	nEigSteps	2 \
	eigDiffThreshold	1e-08 \
	mixedVariable	Density \
	qKerker	0.8 \
	qKappa	-1 \
	verbose	no \
	mixFractionMag	1.5
exchange-regularization WignerSeitzTruncated
fluid None
fluid-ex-corr (null) lda-PZ
fluid-gummel-loop 10 1.000000e-05
fluid-minimize  \
	dirUpdateScheme      PolakRibiere \
	linminMethod         DirUpdateRecommended \
	nIterations          100 \
	history              15 \
	knormThreshold       0 \
	energyDiffThreshold  0 \
	nEnergyDiff          2 \
	alphaTstart          1 \
	alphaTmin            1e-10 \
	updateTestStepSize   yes \
	alphaTreduceFactor   0.1 \
	alphaTincreaseFactor 3 \
	nAlphaAdjustMax      3 \
	wolfeEnergy          0.0001 \
	wolfeGradient        0.9 \
	fdTest               no
fluid-solvent H2O 55.338 ScalarEOS \
	epsBulk 78.4 \
	pMol 0.92466 \
	epsInf 1.77 \
	Pvap 1.06736e-10 \
	sigmaBulk 4.62e-05 \
	Rvdw 2.61727 \
	Res 1.42 \
	tauNuc 343133 \
	poleEl 15 7 1
forces-output-coords Positions
ion Li   0.000000000000000   0.000000000000000   0.000000000000000 0
ion-species SG15/$ID_ONCV_PBE.upf
ion-width 0
ionic-minimize  \
	dirUpdateScheme      L-BFGS \
	linminMethod         DirUpdateRecommended \
	nIterations          0 \
	history              15 \
	knormThreshold       0.0001 \
	energyDiffThreshold  1e-06 \
	nEnergyDiff          2 \
	alphaTstart          1 \
	alphaTmin            1e-10 \
	updateTestStepSize   yes \
	alphaTreduceFactor   0.1 \
	alphaTincreaseFactor 3 \
	nAlphaAdjustMax      3 \
	wolfeEnergy          0.0001 \
	wolfeGradient        0.9 \
	fdTest               no
kpoint   0.000000000000   0.000000000000   0.000000000000  1.00000000000000
kpoint-folding 12 12 1 
latt-move-scale 1 1 1
latt-scale 2.72 2.72 1 
lattice  \
	   4.727486978767153   -2.363743489383575    0.000000000000000  \
	  -0.000000000000000    4.094123819672498    0.000000000000000  \
	   0.000000000000000    0.000000000000000   40.000000000000000 
lattice-minimize  \
	dirUpdateScheme      L-BFGS \
	linminMethod         DirUpdateRecommended \
	nIterations          0 \
	history              15 \
	knormThreshold       0 \
	energyDiffThreshold  1e-06 \
	nEnergyDiff          2 \
	alphaTstart          1 \
	alphaTmin            1e-10 \
	updateTestStepSize   yes \
	alphaTreduceFactor   0.1 \
	alphaTincreaseFactor 3 \
	nAlphaAdjustMax      3 \
	wolfeEnergy          0.0001 \
	wolfeGradient        0.9 \
	fdTest               no
lcao-params -1 1e-06 0.01
pcm-variant GLSSA13
spintype no-spin
subspace-rotation-factor 1 yes
symmetries automatic
symmetry-threshold 0.0001



---------- Setting up symmetries ----------

Found 24 point-group symmetries of the bravais lattice
Found 24 space-group symmetries with basis
Applied RMS atom displacement 0 bohrs to make symmetries exact.

---------- Initializing the Grid ----------
R = 
[      12.8588     -6.42938            0  ]
[            0       11.136            0  ]
[            0            0           40  ]
unit cell volume = 5727.82
G =
[   0.488631   0.282111         -0  ]
[          0   0.564222         -0  ]
[         -0         -0    0.15708  ]
Minimum fftbox size, Smin = [  52  52  164  ]
Chosen fftbox size, S = [  54  54  168  ]

---------- Exchange Correlation functional ----------
Initalized PBE GGA exchange.
Initalized PBE GGA correlation.

---------- Setting up pseudopotentials ----------
Width of ionic core gaussian charges (only for fluid interactions / plotting) set to 0

Reading pseudopotential file '/home/gridsan/aligho/DFT/build-Nov24/pseudopotentials/SG15/Li_ONCV_PBE.upf':
  'Li' pseudopotential, 'PBE' functional
  Generated using ONCVPSP code by D. R. Hamann
  Author: Martin Schlipf and Francois Gygi  Date: 150915.
  3 valence electrons, 2 orbitals, 4 projectors, 1328 radial grid points, with lMax = 1
  Transforming local potential to a uniform radial grid of dG=0.02 with 1481 points.
  Transforming nonlocal projectors to a uniform radial grid of dG=0.02 with 432 points.
    1S    l: 0   occupation:  2.0   eigenvalue: -1.905623
    2S    l: 0   occupation:  1.0   eigenvalue: -0.105624
  Transforming atomic orbitals to a uniform radial grid of dG=0.02 with 432 points.
  WARNING: large normalization error in atomic orbital 1s (integral: 0.000000).
  Core radius for overlap checks: 1.63 bohrs.
  Reading pulay file /home/gridsan/aligho/DFT/build-Nov24/pseudopotentials/SG15/Li_ONCV_PBE.pulay ... using dE_dnG = -1.230239e-02 computed for Ecut = 20.

Initialized 1 species with 1 total atoms.

Folded 1 k-points by 12x12x1 to 144 k-points.

---------- Setting up k-points, bands, fillings ----------
Reduced to 19 k-points under symmetry. 
Computing the number of bands and number of electrons
Calculating initial fillings.
nElectrons:   3.000000   nBands: 3   nStates: 19

----- Setting up reduced wavefunction bases (one per k-point) -----
average nbasis = 24470.521 , ideal nbasis = 24469.670

---------- Setting up coulomb interaction ----------
Initialized slab truncation along lattice direction 001

---------- Setting up 2D ewald sum ----------
Optimum gaussian width for ewald sums = 7.138667 bohr.
Real space sums over 289 unit cells with max indices [  8  8  0  ]
Reciprocal space sums over 81 terms with max indices [  4  4  0  ]

---------- Allocating electronic variables ----------
Initializing wave functions:  linear combination of atomic orbitals
Note: number of bands (3) exceeds available atomic orbitals (2)
Li pseudo-atom occupations:   s ( 2 1 )
	FillingsUpdate:  mu: +0.343821283  nElectrons: 3.000000
LCAOMinimize: Iter:   0  F: -1.2812713025810056  |grad|_K:  3.173e-03  alpha:  1.000e+00
[d-3-3-1:33951] 18 more processes have sent help message help-mpi-common-cuda.txt / dlopen failed
[d-3-3-1:33951] Set MCA parameter "orte_base_help_aggregate" to 0 to see all help / error messages
[d-3-3-1:33951] 18 more processes have sent help message help-mpi-btl-openib-cpc-base.txt / no cpcs for port
LCAOMinimize: 	Step increased F by 2.388797e-02, reducing alpha to 2.630368e-01.
	FillingsUpdate:  mu: +0.343815604  nElectrons: 3.000000
LCAOMinimize: Iter:   1  F: -1.2817302210628456  |grad|_K:  2.750e-03  alpha:  2.630e-01  linmin: -1.672e-02  cgtest:  8.517e-01  t[s]:      4.41
LCAOMinimize: 	Predicted alpha/alphaT>3.000000, increasing alphaT to 7.891103e-01.
LCAOMinimize: 	Predicted alpha/alphaT>3.000000, increasing alphaT to 2.367331e+00.
	FillingsUpdate:  mu: +0.343810134  nElectrons: 3.000000
LCAOMinimize: Iter:   2  F: -1.2820997667898835  |grad|_K:  2.254e-03  alpha:  2.862e-01  linmin: -1.831e-02  cgtest:  8.653e-01  t[s]:      6.11
LCAOMinimize: Encountered beta<0, resetting CG.
LCAOMinimize: 	Predicted alpha/alphaT>3.000000, increasing alphaT to 8.585760e-01.
	FillingsUpdate:  mu: +0.343772057  nElectrons: 3.000000
LCAOMinimize: Iter:   3  F: -1.2821233644566545  |grad|_K:  2.747e-03  alpha:  1.631e+00  linmin:  2.520e-02  cgtest: -5.258e-01  t[s]:      7.41
LCAOMinimize: 	Bad step direction: g.d > 0.
LCAOMinimize: 	Undoing step.
LCAOMinimize: 	Step failed: resetting search direction.
	FillingsUpdate:  mu: +0.343772057  nElectrons: 3.000000
LCAOMinimize: Iter:   4  F: -1.2821233644566545  |grad|_K:  2.747e-03  alpha:  0.000e+00
	FillingsUpdate:  mu: +0.343791719  nElectrons: 3.000000
LCAOMinimize: Iter:   5  F: -1.2826653952046803  |grad|_K:  6.189e-05  alpha:  1.014e+00  linmin:  2.205e-02  cgtest: -1.277e+00  t[s]:      8.88
	FillingsUpdate:  mu: +0.343791788  nElectrons: 3.000000
LCAOMinimize: Iter:   6  F: -1.2826654036833400  |grad|_K:  6.115e-05  alpha:  4.957e-01  linmin:  7.408e-07  cgtest:  9.875e-01  t[s]:      9.82
	FillingsUpdate:  mu: +0.343791416  nElectrons: 3.000000
LCAOMinimize: Iter:   7  F: -1.2826657215902861  |grad|_K:  7.081e-07  alpha:  1.000e+00  linmin:  2.426e-02  cgtest: -9.517e-01  t[s]:     10.75
LCAOMinimize: Converged (|Delta F|<1.000000e-06 for 2 iters).


---- Citations for features of the code used in this run ----

   Software package:
      R. Sundararaman, K. Letchworth-Weaver, K.A. Schwarz, D. Gunceler, Y. Ozhabes and T.A. Arias, 'JDFTx: software for joint density-functional theory', SoftwareX 6, 278 (2017)

   gga-PBE exchange-correlation functional:
      J.P. Perdew, K. Burke and M. Ernzerhof, Phys. Rev. Lett. 77, 3865 (1996)

   Pseudopotentials:
      M Schlipf and F Gygi, Comput. Phys. Commun. 196, 36 (2015)

   Truncated Coulomb potentials:
      R. Sundararaman and T.A. Arias, Phys. Rev. B 87, 165122 (2013)

This list may not be complete. Please suggest additional citations or
report any other bugs at https://github.com/shankar1729/jdftx/issues

Initialization completed successfully at t[s]:     10.80


-------- Electronic minimization -----------
Will mix electronic density at each iteration.
	FillingsUpdate:  mu: +0.343791416  nElectrons: 3.000000
	FillingsUpdate:  mu: -0.732338896  nElectrons: 3.000000
SCF: Cycle:  0   F: -6.884296143549453   dF: -5.602e+00   |Residual|: 1.220e+00   |deigs|: 4.157e+00  t[s]:     12.36
	FillingsUpdate:  mu: -0.623218297  nElectrons: 3.000000
SCF: Cycle:  1   F: -6.929785818679782   dF: -4.549e-02   |Residual|: 7.615e-01   |deigs|: 2.642e-01  t[s]:     13.56
	FillingsUpdate:  mu: -0.370230827  nElectrons: 3.000000
SCF: Cycle:  2   F: -7.053489932702308   dF: -1.237e-01   |Residual|: 3.301e-01   |deigs|: 7.212e-01  t[s]:     14.79
	FillingsUpdate:  mu: -0.409645038  nElectrons: 3.000000
SCF: Cycle:  3   F: -7.053721514625750   dF: -2.316e-04   |Residual|: 1.768e-01   |deigs|: 9.325e-02  t[s]:     16.03
	FillingsUpdate:  mu: -0.363795064  nElectrons: 3.000000
SCF: Cycle:  4   F: -7.048516094102875   dF: +5.205e-03   |Residual|: 1.387e-01   |deigs|: 3.971e-02  t[s]:     17.31
	FillingsUpdate:  mu: -0.359030213  nElectrons: 3.000000
SCF: Cycle:  5   F: -7.050303815014455   dF: -1.788e-03   |Residual|: 4.809e-02   |deigs|: 3.068e-02  t[s]:     18.62
	FillingsUpdate:  mu: -0.244068001  nElectrons: 3.000000
SCF: Cycle:  6   F: -7.056768209907070   dF: -6.464e-03   |Residual|: 1.838e-01   |deigs|: 2.204e-01  t[s]:     20.03
	FillingsUpdate:  mu: -0.297466112  nElectrons: 3.000000
SCF: Cycle:  7   F: -7.055337252803930   dF: +1.431e-03   |Residual|: 2.639e-01   |deigs|: 2.531e-01  t[s]:     21.40
	FillingsUpdate:  mu: -0.244435366  nElectrons: 3.000000
SCF: Cycle:  8   F: -7.053555808789903   dF: +1.781e-03   |Residual|: 3.335e-01   |deigs|: 4.987e-02  t[s]:     22.80
	FillingsUpdate:  mu: -0.162790351  nElectrons: 3.000000
SCF: Cycle:  9   F: -7.050823411500851   dF: +2.732e-03   |Residual|: 3.378e-01   |deigs|: 2.534e-01  t[s]:     24.25
	FillingsUpdate:  mu: -0.152989810  nElectrons: 3.000000
SCF: Cycle: 10   F: -7.056014501299408   dF: -5.191e-03   |Residual|: 1.239e-01   |deigs|: 6.651e-02  t[s]:     25.66
	FillingsUpdate:  mu: -0.160593649  nElectrons: 3.000000
SCF: Cycle: 11   F: -7.059005558893793   dF: -2.991e-03   |Residual|: 3.245e-02   |deigs|: 3.286e-02  t[s]:     27.10
	FillingsUpdate:  mu: -0.141009143  nElectrons: 3.000000
SCF: Cycle: 12   F: -7.059395125076732   dF: -3.896e-04   |Residual|: 2.521e-02   |deigs|: 4.112e-02  t[s]:     28.56
	FillingsUpdate:  mu: -0.099229175  nElectrons: 3.000000
SCF: Cycle: 13   F: -7.059358839784922   dF: +3.629e-05   |Residual|: 2.617e-02   |deigs|: 5.493e-02  t[s]:     29.99
	FillingsUpdate:  mu: -0.115629392  nElectrons: 3.000000
SCF: Cycle: 14   F: -7.059751954601805   dF: -3.931e-04   |Residual|: 8.807e-03   |deigs|: 3.876e-02  t[s]:     31.43
	FillingsUpdate:  mu: -0.110158876  nElectrons: 3.000000
SCF: Cycle: 15   F: -7.059772488752881   dF: -2.053e-05   |Residual|: 2.779e-03   |deigs|: 1.014e-02  t[s]:     32.88
	FillingsUpdate:  mu: -0.108298593  nElectrons: 3.000000
SCF: Cycle: 16   F: -7.059792617664464   dF: -2.013e-05   |Residual|: 1.537e-03   |deigs|: 2.868e-03  t[s]:     34.31
	FillingsUpdate:  mu: -0.107658758  nElectrons: 3.000000
SCF: Cycle: 17   F: -7.059806191793816   dF: -1.357e-05   |Residual|: 8.523e-04   |deigs|: 1.050e-03  t[s]:     35.76
	FillingsUpdate:  mu: -0.108023811  nElectrons: 3.000000
SCF: Cycle: 18   F: -7.059806975370671   dF: -7.836e-07   |Residual|: 2.326e-04   |deigs|: 3.431e-04  t[s]:     37.22
	FillingsUpdate:  mu: -0.108170936  nElectrons: 3.000000
SCF: Cycle: 19   F: -7.059807460051807   dF: -4.847e-07   |Residual|: 1.394e-04   |deigs|: 1.477e-04  t[s]:     38.66
	FillingsUpdate:  mu: -0.108062569  nElectrons: 3.000000
SCF: Cycle: 20   F: -7.059807690572550   dF: -2.305e-07   |Residual|: 1.031e-04   |deigs|: 8.592e-05  t[s]:     40.10
	FillingsUpdate:  mu: -0.107801846  nElectrons: 3.000000
SCF: Cycle: 21   F: -7.059807764486759   dF: -7.391e-08   |Residual|: 6.655e-05   |deigs|: 2.550e-04  t[s]:     41.56
	FillingsUpdate:  mu: -0.107795774  nElectrons: 3.000000
SCF: Cycle: 22   F: -7.059807804043441   dF: -3.956e-08   |Residual|: 3.938e-05   |deigs|: 4.053e-05  t[s]:     43.00
	FillingsUpdate:  mu: -0.107748817  nElectrons: 3.000000
SCF: Cycle: 23   F: -7.059807884053662   dF: -8.001e-08   |Residual|: 1.970e-05   |deigs|: 5.355e-05  t[s]:     44.52
	FillingsUpdate:  mu: -0.107766664  nElectrons: 3.000000
SCF: Cycle: 24   F: -7.059807912813407   dF: -2.876e-08   |Residual|: 5.541e-06   |deigs|: 3.155e-05  t[s]:     45.96
	FillingsUpdate:  mu: -0.107772796  nElectrons: 3.000000
SCF: Cycle: 25   F: -7.059807944968943   dF: -3.216e-08   |Residual|: 3.459e-06   |deigs|: 3.103e-05  t[s]:     47.41
	FillingsUpdate:  mu: -0.107774080  nElectrons: 3.000000
SCF: Cycle: 26   F: -7.059808006347055   dF: -6.138e-08   |Residual|: 2.333e-06   |deigs|: 6.244e-05  t[s]:     48.83
	FillingsUpdate:  mu: -0.107781291  nElectrons: 3.000000
SCF: Cycle: 27   F: -7.059808100432400   dF: -9.409e-08   |Residual|: 1.089e-06   |deigs|: 9.398e-05  t[s]:     50.21
	FillingsUpdate:  mu: -0.107781097  nElectrons: 3.000000
SCF: Cycle: 28   F: -7.059808179236708   dF: -7.880e-08   |Residual|: 6.090e-07   |deigs|: 7.198e-05  t[s]:     51.51
	FillingsUpdate:  mu: -0.107781898  nElectrons: 3.000000
SCF: Cycle: 29   F: -7.059808271554590   dF: -9.232e-08   |Residual|: 8.423e-07   |deigs|: 8.094e-05  t[s]:     52.84
	FillingsUpdate:  mu: -0.107781800  nElectrons: 3.000000
SCF: Cycle: 30   F: -7.059808362720156   dF: -9.117e-08   |Residual|: 1.497e-06   |deigs|: 7.489e-05  t[s]:     54.13
	FillingsUpdate:  mu: -0.107782186  nElectrons: 3.000000
SCF: Cycle: 31   F: -7.059808448800343   dF: -8.608e-08   |Residual|: 1.881e-06   |deigs|: 6.669e-05  t[s]:     55.39
	FillingsUpdate:  mu: -0.107782190  nElectrons: 3.000000
SCF: Cycle: 32   F: -7.059808519856606   dF: -7.106e-08   |Residual|: 2.403e-06   |deigs|: 5.222e-05  t[s]:     56.75
	FillingsUpdate:  mu: -0.107783333  nElectrons: 3.000000
SCF: Cycle: 33   F: -7.059808577074282   dF: -5.722e-08   |Residual|: 2.673e-06   |deigs|: 4.045e-05  t[s]:     58.08
	FillingsUpdate:  mu: -0.107783854  nElectrons: 3.000000
SCF: Cycle: 34   F: -7.059808622269840   dF: -4.520e-08   |Residual|: 2.898e-06   |deigs|: 3.079e-05  t[s]:     59.38
	FillingsUpdate:  mu: -0.107783956  nElectrons: 3.000000
SCF: Cycle: 35   F: -7.059808657252066   dF: -3.498e-08   |Residual|: 3.158e-06   |deigs|: 2.305e-05  t[s]:     60.67
	FillingsUpdate:  mu: -0.107783706  nElectrons: 3.000000
SCF: Cycle: 36   F: -7.059808683987908   dF: -2.674e-08   |Residual|: 3.494e-06   |deigs|: 1.706e-05  t[s]:     61.96
	FillingsUpdate:  mu: -0.107783317  nElectrons: 3.000000
SCF: Cycle: 37   F: -7.059808704477768   dF: -2.049e-08   |Residual|: 3.817e-06   |deigs|: 1.253e-05  t[s]:     63.30
	FillingsUpdate:  mu: -0.107783575  nElectrons: 3.000000
SCF: Cycle: 38   F: -7.059808719900314   dF: -1.542e-08   |Residual|: 3.859e-06   |deigs|: 9.267e-06  t[s]:     64.58
	FillingsUpdate:  mu: -0.107783825  nElectrons: 3.000000
SCF: Cycle: 39   F: -7.059808731551667   dF: -1.165e-08   |Residual|: 3.869e-06   |deigs|: 6.838e-06  t[s]:     65.93
	FillingsUpdate:  mu: -0.107783501  nElectrons: 3.000000
SCF: Cycle: 40   F: -7.059808740655055   dF: -9.103e-09   |Residual|: 4.059e-06   |deigs|: 5.000e-06  t[s]:     67.23
	FillingsUpdate:  mu: -0.107783461  nElectrons: 3.000000
SCF: Cycle: 41   F: -7.059808747888916   dF: -7.234e-09   |Residual|: 4.115e-06   |deigs|: 3.872e-06  t[s]:     68.52
SCF: Converged (|Delta E|<1.000000e-08 for 2 iters).


# Ionic positions in lattice coordinates:
ion Li   0.000000000000000   0.000000000000000   0.000000000000000 0

# Forces in Lattice coordinates:
force Li   0.000000000000000   0.000000000000000   0.000000000000000 0

# Energy components:
   Eewald =       -1.4745119363016872
       EH =        2.0626360204044629
     Eloc =       -7.2641516129880026
      Enl =       -3.6004473522828482
   Epulay =        0.0000018283576892
      Exc =       -1.5320485488868032
       KE =        4.7623405528353242
-------------------------------------
     Etot =       -7.0461810488618628
       TS =        0.0136276990270538
-------------------------------------
        F =       -7.0598087478889164

IonicMinimize: Iter:   0  F: -7.059808747888916  |grad|_K:  0.000e+00  t[s]:     68.61
IonicMinimize: Converged (|grad|_K<1.000000e-04).

#--- Lowdin population analysis ---
# oxidation-state Li +2.115

End date and time: Sun Jan 16 15:10:26 2022  (Duration: 0-0:01:08.63)
Done!
