1.61
--------------------------------------------------------------------------
The library attempted to open the following supporting CUDA libraries,
but each of them failed.  CUDA-aware support is disabled.
libcuda.so.1: cannot open shared object file: No such file or directory
libcuda.dylib: cannot open shared object file: No such file or directory
/usr/lib64/libcuda.so.1: cannot open shared object file: No such file or directory
/usr/lib64/libcuda.dylib: cannot open shared object file: No such file or directory
If you are not interested in CUDA-aware support, then run with
--mca opal_warn_on_missing_libcuda 0 to suppress this message.  If you are interested
in CUDA-aware support, then try setting LD_LIBRARY_PATH to the location
of libcuda.so.1 to get passed this issue.
--------------------------------------------------------------------------
--------------------------------------------------------------------------
No OpenFabrics connection schemes reported that they were able to be
used on a specific port.  As such, the openib BTL (OpenFabrics
support) will be disabled for this port.

  Local host:           d-6-15-3
  Local device:         mlx5_1
  Local port:           1
  CPCs attempted:       rdmacm, udcm
--------------------------------------------------------------------------

*************** JDFTx 1.6.0 (git hash 42ebbcc2) ***************

Start date and time: Sun Jan 16 15:07:28 2022
Executable jdftx with command-line: -i Lithium.in
Running on hosts (process indices):  d-6-15-3 (0-18)
Divided in process groups (process indices):  0 (0)  1 (1)  2 (2)  3 (3)  4 (4)  5 (5)  6 (6)  7 (7)  8 (8)  9 (9)  10 (10)  11 (11)  12 (12)  13 (13)  14 (14)  15 (15)  16 (16)  17 (17)  18 (18)
Resource initialization completed at t[s]:      0.00
Run totals: 19 processes, 48 threads, 0 GPUs


Input parsed successfully to the following command list (including defaults):

basis kpoint-dependent
coords-type Lattice
core-overlap-check vector
coulomb-interaction Slab 001
davidson-band-ratio 1.1
dump End None
dump-name $INPUT.$VAR
elec-cutoff 20
elec-eigen-algo Davidson
elec-ex-corr gga-PBE
elec-smearing Fermi 0.01
electronic-minimize  \
	dirUpdateScheme      FletcherReeves \
	linminMethod         DirUpdateRecommended \
	nIterations          100 \
	history              15 \
	knormThreshold       0 \
	energyDiffThreshold  1e-08 \
	nEnergyDiff          2 \
	alphaTstart          1 \
	alphaTmin            1e-10 \
	updateTestStepSize   yes \
	alphaTreduceFactor   0.1 \
	alphaTincreaseFactor 3 \
	nAlphaAdjustMax      3 \
	wolfeEnergy          0.0001 \
	wolfeGradient        0.9 \
	fdTest               no
electronic-scf  \
	nIterations	10000 \
	energyDiffThreshold	1e-08 \
	residualThreshold	1e-07 \
	mixFraction	0.5 \
	qMetric	0.8 \
	history	10 \
	nEigSteps	2 \
	eigDiffThreshold	1e-08 \
	mixedVariable	Density \
	qKerker	0.8 \
	qKappa	-1 \
	verbose	no \
	mixFractionMag	1.5
exchange-regularization WignerSeitzTruncated
fluid None
fluid-ex-corr (null) lda-PZ
fluid-gummel-loop 10 1.000000e-05
fluid-minimize  \
	dirUpdateScheme      PolakRibiere \
	linminMethod         DirUpdateRecommended \
	nIterations          100 \
	history              15 \
	knormThreshold       0 \
	energyDiffThreshold  0 \
	nEnergyDiff          2 \
	alphaTstart          1 \
	alphaTmin            1e-10 \
	updateTestStepSize   yes \
	alphaTreduceFactor   0.1 \
	alphaTincreaseFactor 3 \
	nAlphaAdjustMax      3 \
	wolfeEnergy          0.0001 \
	wolfeGradient        0.9 \
	fdTest               no
fluid-solvent H2O 55.338 ScalarEOS \
	epsBulk 78.4 \
	pMol 0.92466 \
	epsInf 1.77 \
	Pvap 1.06736e-10 \
	sigmaBulk 4.62e-05 \
	Rvdw 2.61727 \
	Res 1.42 \
	tauNuc 343133 \
	poleEl 15 7 1
forces-output-coords Positions
ion Li   0.000000000000000   0.000000000000000   0.000000000000000 0
ion-species SG15/$ID_ONCV_PBE.upf
ion-width 0
ionic-minimize  \
	dirUpdateScheme      L-BFGS \
	linminMethod         DirUpdateRecommended \
	nIterations          0 \
	history              15 \
	knormThreshold       0.0001 \
	energyDiffThreshold  1e-06 \
	nEnergyDiff          2 \
	alphaTstart          1 \
	alphaTmin            1e-10 \
	updateTestStepSize   yes \
	alphaTreduceFactor   0.1 \
	alphaTincreaseFactor 3 \
	nAlphaAdjustMax      3 \
	wolfeEnergy          0.0001 \
	wolfeGradient        0.9 \
	fdTest               no
kpoint   0.000000000000   0.000000000000   0.000000000000  1.00000000000000
kpoint-folding 12 12 1 
latt-move-scale 1 1 1
latt-scale 1.61 1.61 1 
lattice  \
	   4.727486978767153   -2.363743489383575    0.000000000000000  \
	  -0.000000000000000    4.094123819672498    0.000000000000000  \
	   0.000000000000000    0.000000000000000   40.000000000000000 
lattice-minimize  \
	dirUpdateScheme      L-BFGS \
	linminMethod         DirUpdateRecommended \
	nIterations          0 \
	history              15 \
	knormThreshold       0 \
	energyDiffThreshold  1e-06 \
	nEnergyDiff          2 \
	alphaTstart          1 \
	alphaTmin            1e-10 \
	updateTestStepSize   yes \
	alphaTreduceFactor   0.1 \
	alphaTincreaseFactor 3 \
	nAlphaAdjustMax      3 \
	wolfeEnergy          0.0001 \
	wolfeGradient        0.9 \
	fdTest               no
lcao-params -1 1e-06 0.01
pcm-variant GLSSA13
spintype no-spin
subspace-rotation-factor 1 yes
symmetries automatic
symmetry-threshold 0.0001



---------- Setting up symmetries ----------

Found 24 point-group symmetries of the bravais lattice
Found 24 space-group symmetries with basis
Applied RMS atom displacement 0 bohrs to make symmetries exact.

---------- Initializing the Grid ----------
R = 
[      7.61125     -3.80563            0  ]
[            0      6.59154            0  ]
[            0            0           40  ]
unit cell volume = 2006.8
G =
[   0.825512    0.47661         -0  ]
[          0    0.95322         -0  ]
[         -0         -0    0.15708  ]
Minimum fftbox size, Smin = [  32  32  164  ]
Chosen fftbox size, S = [  32  32  168  ]

---------- Exchange Correlation functional ----------
Initalized PBE GGA exchange.
Initalized PBE GGA correlation.

---------- Setting up pseudopotentials ----------
Width of ionic core gaussian charges (only for fluid interactions / plotting) set to 0

Reading pseudopotential file '/home/gridsan/aligho/DFT/build-Nov24/pseudopotentials/SG15/Li_ONCV_PBE.upf':
  'Li' pseudopotential, 'PBE' functional
  Generated using ONCVPSP code by D. R. Hamann
  Author: Martin Schlipf and Francois Gygi  Date: 150915.
  3 valence electrons, 2 orbitals, 4 projectors, 1328 radial grid points, with lMax = 1
  Transforming local potential to a uniform radial grid of dG=0.02 with 1482 points.
  Transforming nonlocal projectors to a uniform radial grid of dG=0.02 with 432 points.
    1S    l: 0   occupation:  2.0   eigenvalue: -1.905623
    2S    l: 0   occupation:  1.0   eigenvalue: -0.105624
  Transforming atomic orbitals to a uniform radial grid of dG=0.02 with 432 points.
  WARNING: large normalization error in atomic orbital 1s (integral: 0.000000).
  Core radius for overlap checks: 1.63 bohrs.
  Reading pulay file /home/gridsan/aligho/DFT/build-Nov24/pseudopotentials/SG15/Li_ONCV_PBE.pulay ... using dE_dnG = -1.230239e-02 computed for Ecut = 20.

Initialized 1 species with 1 total atoms.

Folded 1 k-points by 12x12x1 to 144 k-points.

---------- Setting up k-points, bands, fillings ----------
Reduced to 19 k-points under symmetry. 
Computing the number of bands and number of electrons
Calculating initial fillings.
nElectrons:   3.000000   nBands: 3   nStates: 19

----- Setting up reduced wavefunction bases (one per k-point) -----
average nbasis = 8574.479 , ideal nbasis = 8573.182

---------- Setting up coulomb interaction ----------
Initialized slab truncation along lattice direction 001

---------- Setting up 2D ewald sum ----------
Optimum gaussian width for ewald sums = 4.225461 bohr.
Real space sums over 289 unit cells with max indices [  8  8  0  ]
Reciprocal space sums over 81 terms with max indices [  4  4  0  ]

---------- Allocating electronic variables ----------
Initializing wave functions:  linear combination of atomic orbitals
Note: number of bands (3) exceeds available atomic orbitals (2)
Li pseudo-atom occupations:   s ( 2 1 )
	FillingsUpdate:  mu: +0.324401690  nElectrons: 3.000000
LCAOMinimize: Iter:   0  F: -1.0717885234341542  |grad|_K:  4.350e-03  alpha:  1.000e+00
LCAOMinimize: 	Step increased F by 7.022109e-03, reducing alpha to 1.497738e-01.
	FillingsUpdate:  mu: +0.324403231  nElectrons: 3.000000
LCAOMinimize: Iter:   1  F: -1.0722416413559877  |grad|_K:  3.754e-03  alpha:  1.498e-01  linmin: -9.870e-03  cgtest:  9.859e-01  t[s]:      1.92
LCAOMinimize: Encountered beta<0, resetting CG.
LCAOMinimize: 	Predicted alpha/alphaT>3.000000, increasing alphaT to 4.493213e-01.
LCAOMinimize: 	Predicted alpha/alphaT>3.000000, increasing alphaT to 1.347964e+00.
	FillingsUpdate:  mu: +0.324385385  nElectrons: 3.000000
LCAOMinimize: Iter:   2  F: -1.0737247357921249  |grad|_K:  1.440e-03  alpha:  7.594e-01  linmin: -1.575e-02  cgtest:  6.315e-01  t[s]:      2.64
LCAOMinimize: Encountered beta<0, resetting CG.
	FillingsUpdate:  mu: +0.324346247  nElectrons: 3.000000
LCAOMinimize: Iter:   3  F: -1.0738164610000229  |grad|_K:  1.297e-03  alpha:  1.540e+00  linmin:  1.679e-02  cgtest: -6.107e-01  t[s]:      3.00
LCAOMinimize: 	Bad step direction: g.d > 0.
LCAOMinimize: 	Undoing step.
LCAOMinimize: 	Step failed: resetting search direction.
	FillingsUpdate:  mu: +0.324346247  nElectrons: 3.000000
LCAOMinimize: Iter:   4  F: -1.0738164610000229  |grad|_K:  1.297e-03  alpha:  0.000e+00
	FillingsUpdate:  mu: +0.324364041  nElectrons: 3.000000
LCAOMinimize: Iter:   5  F: -1.0739444920062928  |grad|_K:  1.139e-05  alpha:  9.967e-01  linmin:  1.370e-02  cgtest: -8.148e-01  t[s]:      3.59
	FillingsUpdate:  mu: +0.324364092  nElectrons: 3.000000
LCAOMinimize: Iter:   6  F: -1.0739444980176185  |grad|_K:  7.863e-06  alpha:  1.012e+00  linmin:  5.831e-06  cgtest:  6.942e-01  t[s]:      3.96
LCAOMinimize: Encountered beta<0, resetting CG.
	FillingsUpdate:  mu: +0.324363981  nElectrons: 3.000000
LCAOMinimize: Iter:   7  F: -1.0739445032606936  |grad|_K:  4.439e-08  alpha:  9.921e-01  linmin:  5.855e-03  cgtest: -1.788e-01  t[s]:      4.33
LCAOMinimize: Converged (|Delta F|<1.000000e-06 for 2 iters).


---- Citations for features of the code used in this run ----

   Software package:
      R. Sundararaman, K. Letchworth-Weaver, K.A. Schwarz, D. Gunceler, Y. Ozhabes and T.A. Arias, 'JDFTx: software for joint density-functional theory', SoftwareX 6, 278 (2017)

   gga-PBE exchange-correlation functional:
      J.P. Perdew, K. Burke and M. Ernzerhof, Phys. Rev. Lett. 77, 3865 (1996)

   Pseudopotentials:
      M Schlipf and F Gygi, Comput. Phys. Commun. 196, 36 (2015)

   Truncated Coulomb potentials:
      R. Sundararaman and T.A. Arias, Phys. Rev. B 87, 165122 (2013)

This list may not be complete. Please suggest additional citations or
report any other bugs at https://github.com/shankar1729/jdftx/issues

Initialization completed successfully at t[s]:      4.36


-------- Electronic minimization -----------
Will mix electronic density at each iteration.
	FillingsUpdate:  mu: +0.324363981  nElectrons: 3.000000
[d-6-15-3:07372] 18 more processes have sent help message help-mpi-common-cuda.txt / dlopen failed
[d-6-15-3:07372] Set MCA parameter "orte_base_help_aggregate" to 0 to see all help / error messages
[d-6-15-3:07372] 18 more processes have sent help message help-mpi-btl-openib-cpc-base.txt / no cpcs for port
	FillingsUpdate:  mu: -1.260787999  nElectrons: 3.000000
SCF: Cycle:  0   F: -6.407167737663057   dF: -5.333e+00   |Residual|: 1.049e+00   |deigs|: 4.140e+00  t[s]:      4.96
	FillingsUpdate:  mu: -1.172498563  nElectrons: 3.000000
SCF: Cycle:  1   F: -6.970642005249647   dF: -5.635e-01   |Residual|: 7.977e-01   |deigs|: 3.748e-01  t[s]:      5.37
	FillingsUpdate:  mu: -0.835341741  nElectrons: 3.000000
SCF: Cycle:  2   F: -7.017317073306294   dF: -4.668e-02   |Residual|: 9.129e-01   |deigs|: 1.132e+00  t[s]:      5.79
	FillingsUpdate:  mu: -0.943014817  nElectrons: 3.000000
SCF: Cycle:  3   F: -7.068227004549321   dF: -5.091e-02   |Residual|: 2.659e-01   |deigs|: 3.928e-01  t[s]:      6.21
	FillingsUpdate:  mu: -0.926394139  nElectrons: 3.000000
SCF: Cycle:  4   F: -7.067954533112511   dF: +2.725e-04   |Residual|: 1.122e-01   |deigs|: 1.211e-01  t[s]:      6.65
	FillingsUpdate:  mu: -0.869061154  nElectrons: 3.000000
SCF: Cycle:  5   F: -7.025626713184527   dF: +4.233e-02   |Residual|: 8.965e-01   |deigs|: 3.027e-01  t[s]:      7.10
	FillingsUpdate:  mu: -0.940359653  nElectrons: 3.000000
SCF: Cycle:  6   F: -7.012102432845327   dF: +1.352e-02   |Residual|: 1.153e+00   |deigs|: 1.437e-01  t[s]:      7.54
	FillingsUpdate:  mu: -0.695689719  nElectrons: 3.000000
SCF: Cycle:  7   F: -7.046461563555232   dF: -3.436e-02   |Residual|: 5.066e-01   |deigs|: 4.213e-01  t[s]:      7.98
	FillingsUpdate:  mu: -0.691406505  nElectrons: 3.000000
SCF: Cycle:  8   F: -6.999147259898227   dF: +4.731e-02   |Residual|: 1.396e+00   |deigs|: 2.708e-01  t[s]:      8.43
	FillingsUpdate:  mu: -0.567939760  nElectrons: 3.000000
SCF: Cycle:  9   F: -7.038817907422474   dF: -3.967e-02   |Residual|: 9.656e-01   |deigs|: 2.129e-01  t[s]:      8.89
	FillingsUpdate:  mu: -0.449655086  nElectrons: 3.000000
SCF: Cycle: 10   F: -7.053591684434198   dF: -1.477e-02   |Residual|: 6.802e-01   |deigs|: 2.088e-01  t[s]:      9.35
	FillingsUpdate:  mu: -0.296084246  nElectrons: 3.000000
SCF: Cycle: 11   F: -7.086528706476571   dF: -3.294e-02   |Residual|: 5.698e-02   |deigs|: 4.176e-01  t[s]:      9.81
	FillingsUpdate:  mu: -0.251953070  nElectrons: 3.000000
SCF: Cycle: 12   F: -7.082978716290116   dF: +3.550e-03   |Residual|: 3.131e-01   |deigs|: 7.188e-02  t[s]:     10.26
	FillingsUpdate:  mu: -0.162116837  nElectrons: 3.000000
SCF: Cycle: 13   F: -7.087295828776663   dF: -4.317e-03   |Residual|: 1.064e-01   |deigs|: 1.690e-01  t[s]:     10.71
	FillingsUpdate:  mu: -0.106160958  nElectrons: 3.000000
SCF: Cycle: 14   F: -7.086750141694669   dF: +5.457e-04   |Residual|: 1.692e-01   |deigs|: 1.191e-01  t[s]:     11.16
	FillingsUpdate:  mu: -0.097783569  nElectrons: 3.000000
SCF: Cycle: 15   F: -7.087015333249274   dF: -2.652e-04   |Residual|: 1.328e-01   |deigs|: 1.353e-02  t[s]:     11.64
	FillingsUpdate:  mu: -0.105592884  nElectrons: 3.000000
SCF: Cycle: 16   F: -7.087995646008279   dF: -9.803e-04   |Residual|: 1.743e-02   |deigs|: 4.349e-02  t[s]:     12.09
	FillingsUpdate:  mu: -0.147078524  nElectrons: 3.000000
SCF: Cycle: 17   F: -7.087980273700121   dF: +1.537e-05   |Residual|: 2.561e-02   |deigs|: 5.477e-02  t[s]:     12.56
	FillingsUpdate:  mu: -0.109213511  nElectrons: 3.000000
SCF: Cycle: 18   F: -7.088064940373593   dF: -8.467e-05   |Residual|: 3.985e-03   |deigs|: 4.835e-02  t[s]:     13.01
	FillingsUpdate:  mu: -0.117635902  nElectrons: 3.000000
SCF: Cycle: 19   F: -7.088069454214642   dF: -4.514e-06   |Residual|: 5.589e-04   |deigs|: 1.073e-02  t[s]:     13.47
	FillingsUpdate:  mu: -0.120068493  nElectrons: 3.000000
SCF: Cycle: 20   F: -7.088070742201118   dF: -1.288e-06   |Residual|: 8.059e-04   |deigs|: 2.947e-03  t[s]:     13.92
	FillingsUpdate:  mu: -0.118216894  nElectrons: 3.000000
SCF: Cycle: 21   F: -7.088071012241151   dF: -2.700e-07   |Residual|: 1.207e-04   |deigs|: 1.943e-03  t[s]:     14.37
	FillingsUpdate:  mu: -0.118734255  nElectrons: 3.000000
SCF: Cycle: 22   F: -7.088071002685956   dF: +9.555e-09   |Residual|: 1.952e-04   |deigs|: 5.159e-04  t[s]:     14.82
	FillingsUpdate:  mu: -0.118320140  nElectrons: 3.000000
SCF: Cycle: 23   F: -7.088071058293047   dF: -5.561e-08   |Residual|: 1.281e-05   |deigs|: 4.214e-04  t[s]:     15.28
	FillingsUpdate:  mu: -0.118372597  nElectrons: 3.000000
SCF: Cycle: 24   F: -7.088071091558096   dF: -3.327e-08   |Residual|: 8.456e-06   |deigs|: 9.458e-04  t[s]:     15.73
	FillingsUpdate:  mu: -0.118385021  nElectrons: 3.000000
SCF: Cycle: 25   F: -7.088071114152709   dF: -2.259e-08   |Residual|: 1.001e-05   |deigs|: 4.115e-04  t[s]:     16.17
	FillingsUpdate:  mu: -0.118411737  nElectrons: 3.000000
SCF: Cycle: 26   F: -7.088071115870054   dF: -1.717e-09   |Residual|: 7.388e-06   |deigs|: 3.649e-05  t[s]:     16.62
	FillingsUpdate:  mu: -0.118429173  nElectrons: 3.000000
SCF: Cycle: 27   F: -7.088071117473471   dF: -1.603e-09   |Residual|: 1.563e-06   |deigs|: 1.932e-05  t[s]:     17.08
SCF: Converged (|Delta E|<1.000000e-08 for 2 iters).


# Ionic positions in lattice coordinates:
ion Li   0.000000000000000   0.000000000000000   0.000000000000000 0

# Forces in Lattice coordinates:
force Li  -0.000000000000000   0.000000000000000   0.000000000000000 0

# Energy components:
   Eewald =       -2.4911009110190019
       EH =        1.0960474566098557
     Eloc =       -5.2869204637213345
      Enl =       -3.5907946650136635
   Epulay =        0.0000079514443390
      Exc =       -1.5559410368941822
       KE =        4.7473773797554966
-------------------------------------
     Etot =       -7.0813242888384931
       TS =        0.0067468286349780
-------------------------------------
        F =       -7.0880711174734712

IonicMinimize: Iter:   0  F: -7.088071117473471  |grad|_K:  0.000e+00  t[s]:     17.11
IonicMinimize: Converged (|grad|_K<1.000000e-04).

#--- Lowdin population analysis ---
# oxidation-state Li +2.153

End date and time: Sun Jan 16 15:07:45 2022  (Duration: 0-0:00:17.11)
Done!
