0.77
--------------------------------------------------------------------------
The library attempted to open the following supporting CUDA libraries,
but each of them failed.  CUDA-aware support is disabled.
libcuda.so.1: cannot open shared object file: No such file or directory
libcuda.dylib: cannot open shared object file: No such file or directory
/usr/lib64/libcuda.so.1: cannot open shared object file: No such file or directory
/usr/lib64/libcuda.dylib: cannot open shared object file: No such file or directory
If you are not interested in CUDA-aware support, then run with
--mca opal_warn_on_missing_libcuda 0 to suppress this message.  If you are interested
in CUDA-aware support, then try setting LD_LIBRARY_PATH to the location
of libcuda.so.1 to get passed this issue.
--------------------------------------------------------------------------
--------------------------------------------------------------------------
No OpenFabrics connection schemes reported that they were able to be
used on a specific port.  As such, the openib BTL (OpenFabrics
support) will be disabled for this port.

  Local host:           d-4-7-2
  Local device:         mlx5_1
  Local port:           1
  CPCs attempted:       rdmacm, udcm
--------------------------------------------------------------------------

*************** JDFTx 1.6.0 (git hash 42ebbcc2) ***************

Start date and time: Sun Jan 16 15:06:50 2022
Executable jdftx with command-line: -i Lithium.in
Running on hosts (process indices):  d-4-7-2 (0-18)
Divided in process groups (process indices):  0 (0)  1 (1)  2 (2)  3 (3)  4 (4)  5 (5)  6 (6)  7 (7)  8 (8)  9 (9)  10 (10)  11 (11)  12 (12)  13 (13)  14 (14)  15 (15)  16 (16)  17 (17)  18 (18)
Resource initialization completed at t[s]:      0.00
Run totals: 19 processes, 48 threads, 0 GPUs


Input parsed successfully to the following command list (including defaults):

basis kpoint-dependent
coords-type Lattice
core-overlap-check vector
coulomb-interaction Slab 001
davidson-band-ratio 1.1
dump End None
dump-name $INPUT.$VAR
elec-cutoff 20
elec-eigen-algo Davidson
elec-ex-corr gga-PBE
elec-smearing Fermi 0.01
electronic-minimize  \
	dirUpdateScheme      FletcherReeves \
	linminMethod         DirUpdateRecommended \
	nIterations          100 \
	history              15 \
	knormThreshold       0 \
	energyDiffThreshold  1e-08 \
	nEnergyDiff          2 \
	alphaTstart          1 \
	alphaTmin            1e-10 \
	updateTestStepSize   yes \
	alphaTreduceFactor   0.1 \
	alphaTincreaseFactor 3 \
	nAlphaAdjustMax      3 \
	wolfeEnergy          0.0001 \
	wolfeGradient        0.9 \
	fdTest               no
electronic-scf  \
	nIterations	10000 \
	energyDiffThreshold	1e-08 \
	residualThreshold	1e-07 \
	mixFraction	0.5 \
	qMetric	0.8 \
	history	10 \
	nEigSteps	2 \
	eigDiffThreshold	1e-08 \
	mixedVariable	Density \
	qKerker	0.8 \
	qKappa	-1 \
	verbose	no \
	mixFractionMag	1.5
exchange-regularization WignerSeitzTruncated
fluid None
fluid-ex-corr (null) lda-PZ
fluid-gummel-loop 10 1.000000e-05
fluid-minimize  \
	dirUpdateScheme      PolakRibiere \
	linminMethod         DirUpdateRecommended \
	nIterations          100 \
	history              15 \
	knormThreshold       0 \
	energyDiffThreshold  0 \
	nEnergyDiff          2 \
	alphaTstart          1 \
	alphaTmin            1e-10 \
	updateTestStepSize   yes \
	alphaTreduceFactor   0.1 \
	alphaTincreaseFactor 3 \
	nAlphaAdjustMax      3 \
	wolfeEnergy          0.0001 \
	wolfeGradient        0.9 \
	fdTest               no
fluid-solvent H2O 55.338 ScalarEOS \
	epsBulk 78.4 \
	pMol 0.92466 \
	epsInf 1.77 \
	Pvap 1.06736e-10 \
	sigmaBulk 4.62e-05 \
	Rvdw 2.61727 \
	Res 1.42 \
	tauNuc 343133 \
	poleEl 15 7 1
forces-output-coords Positions
ion Li   0.000000000000000   0.000000000000000   0.000000000000000 0
ion-species SG15/$ID_ONCV_PBE.upf
ion-width 0
ionic-minimize  \
	dirUpdateScheme      L-BFGS \
	linminMethod         DirUpdateRecommended \
	nIterations          0 \
	history              15 \
	knormThreshold       0.0001 \
	energyDiffThreshold  1e-06 \
	nEnergyDiff          2 \
	alphaTstart          1 \
	alphaTmin            1e-10 \
	updateTestStepSize   yes \
	alphaTreduceFactor   0.1 \
	alphaTincreaseFactor 3 \
	nAlphaAdjustMax      3 \
	wolfeEnergy          0.0001 \
	wolfeGradient        0.9 \
	fdTest               no
kpoint   0.000000000000   0.000000000000   0.000000000000  1.00000000000000
kpoint-folding 12 12 1 
latt-move-scale 1 1 1
latt-scale 0.77 0.77 1 
lattice  \
	   4.727486978767153   -2.363743489383575    0.000000000000000  \
	  -0.000000000000000    4.094123819672498    0.000000000000000  \
	   0.000000000000000    0.000000000000000   40.000000000000000 
lattice-minimize  \
	dirUpdateScheme      L-BFGS \
	linminMethod         DirUpdateRecommended \
	nIterations          0 \
	history              15 \
	knormThreshold       0 \
	energyDiffThreshold  1e-06 \
	nEnergyDiff          2 \
	alphaTstart          1 \
	alphaTmin            1e-10 \
	updateTestStepSize   yes \
	alphaTreduceFactor   0.1 \
	alphaTincreaseFactor 3 \
	nAlphaAdjustMax      3 \
	wolfeEnergy          0.0001 \
	wolfeGradient        0.9 \
	fdTest               no
lcao-params -1 1e-06 0.01
pcm-variant GLSSA13
spintype no-spin
subspace-rotation-factor 1 yes
symmetries automatic
symmetry-threshold 0.0001



---------- Setting up symmetries ----------

Found 24 point-group symmetries of the bravais lattice
Found 24 space-group symmetries with basis
Applied RMS atom displacement 0 bohrs to make symmetries exact.

---------- Initializing the Grid ----------
R = 
[      3.64016     -1.82008            0  ]
[            0      3.15248            0  ]
[            0            0           40  ]
unit cell volume = 459.021
G =
[    1.72607   0.996548         -0  ]
[          0     1.9931         -0  ]
[         -0         -0    0.15708  ]
Minimum fftbox size, Smin = [  16  16  164  ]
Chosen fftbox size, S = [  16  16  168  ]

---------- Exchange Correlation functional ----------
Initalized PBE GGA exchange.
Initalized PBE GGA correlation.

---------- Setting up pseudopotentials ----------
Width of ionic core gaussian charges (only for fluid interactions / plotting) set to 0

Reading pseudopotential file '/home/gridsan/aligho/DFT/build-Nov24/pseudopotentials/SG15/Li_ONCV_PBE.upf':
  'Li' pseudopotential, 'PBE' functional
  Generated using ONCVPSP code by D. R. Hamann
  Author: Martin Schlipf and Francois Gygi  Date: 150915.
  3 valence electrons, 2 orbitals, 4 projectors, 1328 radial grid points, with lMax = 1
  Transforming local potential to a uniform radial grid of dG=0.02 with 1536 points.
  Transforming nonlocal projectors to a uniform radial grid of dG=0.02 with 432 points.
    1S    l: 0   occupation:  2.0   eigenvalue: -1.905623
    2S    l: 0   occupation:  1.0   eigenvalue: -0.105624
  Transforming atomic orbitals to a uniform radial grid of dG=0.02 with 432 points.
  WARNING: large normalization error in atomic orbital 1s (integral: 0.000000).
  Core radius for overlap checks: 1.63 bohrs.
  Reading pulay file /home/gridsan/aligho/DFT/build-Nov24/pseudopotentials/SG15/Li_ONCV_PBE.pulay ... using dE_dnG = -1.230239e-02 computed for Ecut = 20.

Initialized 1 species with 1 total atoms.

Folded 1 k-points by 12x12x1 to 144 k-points.

---------- Setting up k-points, bands, fillings ----------
Reduced to 19 k-points under symmetry. 
Computing the number of bands and number of electrons
Calculating initial fillings.
nElectrons:   3.000000   nBands: 3   nStates: 19

----- Setting up reduced wavefunction bases (one per k-point) -----
average nbasis = 1960.688 , ideal nbasis = 1960.974

---------- Setting up coulomb interaction ----------
Initialized slab truncation along lattice direction 001

---------- Setting up 2D ewald sum ----------
Optimum gaussian width for ewald sums = 2.020873 bohr.
Real space sums over 289 unit cells with max indices [  8  8  0  ]
Reciprocal space sums over 81 terms with max indices [  4  4  0  ]

---------- Allocating electronic variables ----------
Initializing wave functions:  linear combination of atomic orbitals
Note: number of bands (3) exceeds available atomic orbitals (2)
Li pseudo-atom occupations:   s ( 2 1 )
	FillingsUpdate:  mu: +0.369238780  nElectrons: 3.000000
LCAOMinimize: Iter:   0  F: +2.2104960152795869  |grad|_K:  9.972e-02  alpha:  1.000e+00
LCAOMinimize: 	Wrong curvature in test step, increasing alphaT to 3.000000e+00.
	FillingsUpdate:  mu: +0.399468637  nElectrons: 3.000000
LCAOMinimize: Iter:   1  F: -0.8937005313947227  |grad|_K:  3.763e-02  alpha: -6.057e-01  linmin:  9.366e-02  cgtest: -1.292e+00  t[s]:      0.81
LCAOMinimize: 	Bad step direction: g.d > 0.
LCAOMinimize: 	Undoing step.
LCAOMinimize: 	Step failed: resetting search direction.
	FillingsUpdate:  mu: +0.399468637  nElectrons: 3.000000
LCAOMinimize: Iter:   2  F: -0.8937005313947227  |grad|_K:  3.763e-02  alpha:  0.000e+00
LCAOMinimize: 	Wrong curvature in test step, increasing alphaT to 3.000000e+00.
	FillingsUpdate:  mu: +0.413221017  nElectrons: 3.000000
LCAOMinimize: Iter:   3  F: -1.3179502549561637  |grad|_K:  1.887e-02  alpha: -6.651e-01  linmin:  1.492e-01  cgtest: -4.204e-01  t[s]:      1.08
LCAOMinimize: 	Bad step direction: g.d > 0.
LCAOMinimize: 	Undoing step.
LCAOMinimize: 	Step failed: resetting search direction.
	FillingsUpdate:  mu: +0.413221017  nElectrons: 3.000000
LCAOMinimize: Iter:   4  F: -1.3179502549561637  |grad|_K:  1.887e-02  alpha:  0.000e+00
	FillingsUpdate:  mu: +0.399160099  nElectrons: 3.000000
LCAOMinimize: Iter:   5  F: -1.3387261793071148  |grad|_K:  7.436e-04  alpha:  7.463e-01  linmin: -4.850e-02  cgtest:  1.165e+00  t[s]:      1.36
LCAOMinimize: Encountered beta<0, resetting CG.
	FillingsUpdate:  mu: +0.398652576  nElectrons: 3.000000
LCAOMinimize: Iter:   6  F: -1.3387637742041523  |grad|_K:  4.847e-05  alpha:  7.906e-01  linmin: -5.430e-02  cgtest:  1.073e+00  t[s]:      1.53
LCAOMinimize: Encountered beta<0, resetting CG.
	FillingsUpdate:  mu: +0.398619870  nElectrons: 3.000000
LCAOMinimize: Iter:   7  F: -1.3387639495052770  |grad|_K:  2.892e-06  alpha:  8.714e-01  linmin: -1.717e-02  cgtest:  1.713e-01  t[s]:      1.70
LCAOMinimize: Encountered beta<0, resetting CG.
	FillingsUpdate:  mu: +0.398620650  nElectrons: 3.000000
LCAOMinimize: Iter:   8  F: -1.3387639502080315  |grad|_K:  1.415e-07  alpha:  9.817e-01  linmin: -1.593e-03  cgtest:  3.035e-02  t[s]:      1.87
LCAOMinimize: Converged (|Delta F|<1.000000e-06 for 2 iters).


---- Citations for features of the code used in this run ----

   Software package:
      R. Sundararaman, K. Letchworth-Weaver, K.A. Schwarz, D. Gunceler, Y. Ozhabes and T.A. Arias, 'JDFTx: software for joint density-functional theory', SoftwareX 6, 278 (2017)

   gga-PBE exchange-correlation functional:
      J.P. Perdew, K. Burke and M. Ernzerhof, Phys. Rev. Lett. 77, 3865 (1996)

   Pseudopotentials:
      M Schlipf and F Gygi, Comput. Phys. Commun. 196, 36 (2015)

   Truncated Coulomb potentials:
      R. Sundararaman and T.A. Arias, Phys. Rev. B 87, 165122 (2013)

This list may not be complete. Please suggest additional citations or
report any other bugs at https://github.com/shankar1729/jdftx/issues

Initialization completed successfully at t[s]:      1.90


-------- Electronic minimization -----------
Will mix electronic density at each iteration.
	FillingsUpdate:  mu: +0.398620650  nElectrons: 3.000000
	FillingsUpdate:  mu: -4.519175289  nElectrons: 3.000000
SCF: Cycle:  0   F: -6.313621914932449   dF: -4.975e+00   |Residual|: 6.123e-01   |deigs|: 4.641e+00  t[s]:      2.16
	FillingsUpdate:  mu: -4.432251649  nElectrons: 3.000000
SCF: Cycle:  1   F: -6.789940268207991   dF: -4.763e-01   |Residual|: 4.669e-01   |deigs|: 3.545e-01  t[s]:      2.32
	FillingsUpdate:  mu: -3.661266802  nElectrons: 3.000000
SCF: Cycle:  2   F: -6.900224182148219   dF: -1.103e-01   |Residual|: 3.567e-01   |deigs|: 9.668e-01  t[s]:      2.48
	FillingsUpdate:  mu: -4.113609845  nElectrons: 3.000000
SCF: Cycle:  3   F: -6.905921665549299   dF: -5.697e-03   |Residual|: 4.143e-01   |deigs|: 6.537e-01  t[s]:      2.64
	FillingsUpdate:  mu: -3.580499812  nElectrons: 3.000000
SCF: Cycle:  4   F: -6.930823085228456   dF: -2.490e-02   |Residual|: 3.924e-01   |deigs|: 5.317e-01  t[s]:      2.81
	FillingsUpdate:  mu: -3.010769586  nElectrons: 3.000000
SCF: Cycle:  5   F: -6.967793486997264   dF: -3.697e-02   |Residual|: 2.175e-01   |deigs|: 6.052e-01  t[s]:      2.98
	FillingsUpdate:  mu: -2.511088312  nElectrons: 3.000000
SCF: Cycle:  6   F: -6.961377522232143   dF: +6.416e-03   |Residual|: 1.904e-01   |deigs|: 4.924e-01  t[s]:      3.15
	FillingsUpdate:  mu: -2.310471298  nElectrons: 3.000000
SCF: Cycle:  7   F: -6.968828094400614   dF: -7.451e-03   |Residual|: 1.784e-01   |deigs|: 1.983e-01  t[s]:      3.32
	FillingsUpdate:  mu: -1.136238436  nElectrons: 3.000000
SCF: Cycle:  8   F: -7.013089059852708   dF: -4.426e-02   |Residual|: 1.180e-01   |deigs|: 1.217e+00  t[s]:      3.49
	FillingsUpdate:  mu: -0.542264582  nElectrons: 3.000000
SCF: Cycle:  9   F: -6.954863017440659   dF: +5.823e-02   |Residual|: 1.924e-01   |deigs|: 6.541e-01  t[s]:      3.65
	FillingsUpdate:  mu: -1.934932786  nElectrons: 3.000000
SCF: Cycle: 10   F: -6.923421555132031   dF: +3.144e-02   |Residual|: 2.794e-01   |deigs|: 1.529e+00  t[s]:      3.82
	FillingsUpdate:  mu: -0.292711357  nElectrons: 3.000000
SCF: Cycle: 11   F: -7.012605099885931   dF: -8.918e-02   |Residual|: 9.914e-02   |deigs|: 1.724e+00  t[s]:      3.98
	FillingsUpdate:  mu: +0.168343042  nElectrons: 3.000000
SCF: Cycle: 12   F: -5.873102026686359   dF: +1.140e+00   |Residual|: 3.087e-01   |deigs|: 6.399e-01  t[s]:      4.15
	FillingsUpdate:  mu: -1.569609703  nElectrons: 3.000000
SCF: Cycle: 13   F: -6.959052472398998   dF: -1.086e+00   |Residual|: 1.094e-01   |deigs|: 1.874e+00  t[s]:      4.32
	FillingsUpdate:  mu: -0.202625342  nElectrons: 3.000000
SCF: Cycle: 14   F: -6.994341515741993   dF: -3.529e-02   |Residual|: 1.027e-01   |deigs|: 1.334e+00  t[s]:      4.48
	FillingsUpdate:  mu: -0.054460127  nElectrons: 3.000000
SCF: Cycle: 15   F: -7.015333466141306   dF: -2.099e-02   |Residual|: 2.230e-02   |deigs|: 1.291e-01  t[s]:      4.63
	FillingsUpdate:  mu: -0.262408019  nElectrons: 3.000000
SCF: Cycle: 16   F: -7.014852108177011   dF: +4.814e-04   |Residual|: 5.163e-02   |deigs|: 1.962e-01  t[s]:      4.79
[d-4-7-2:10644] 18 more processes have sent help message help-mpi-common-cuda.txt / dlopen failed
[d-4-7-2:10644] Set MCA parameter "orte_base_help_aggregate" to 0 to see all help / error messages
[d-4-7-2:10644] 18 more processes have sent help message help-mpi-btl-openib-cpc-base.txt / no cpcs for port
	FillingsUpdate:  mu: +0.104925754  nElectrons: 3.000000
SCF: Cycle: 17   F: -7.003509876692171   dF: +1.134e-02   |Residual|: 3.693e-02   |deigs|: 3.611e-01  t[s]:      4.96
	FillingsUpdate:  mu: +0.117626265  nElectrons: 3.000000
SCF: Cycle: 18   F: -1.745223719464894   dF: +5.258e+00   |Residual|: 1.586e-01   |deigs|: 2.442e-01  t[s]:      5.12
	FillingsUpdate:  mu: -0.453819301  nElectrons: 3.000000
SCF: Cycle: 19   F: +0.534364528602438   dF: +2.280e+00   |Residual|: 1.747e-01   |deigs|: 3.982e-01  t[s]:      5.28
	FillingsUpdate:  mu: -0.043894356  nElectrons: 3.000000
SCF: Cycle: 20   F: +0.053336160464087   dF: -4.810e-01   |Residual|: 1.579e-01   |deigs|: 4.422e-01  t[s]:      5.43
	FillingsUpdate:  mu: +0.083099575  nElectrons: 3.000000
SCF: Cycle: 21   F: -5.997387498342674   dF: -6.051e+00   |Residual|: 1.013e-01   |deigs|: 2.178e-01  t[s]:      5.59
	FillingsUpdate:  mu: -0.011122284  nElectrons: 3.000000
SCF: Cycle: 22   F: -6.900730561876949   dF: -9.033e-01   |Residual|: 3.420e-02   |deigs|: 1.233e-01  t[s]:      5.74
	FillingsUpdate:  mu: -0.036583090  nElectrons: 3.000000
SCF: Cycle: 23   F: -6.979584803780223   dF: -7.885e-02   |Residual|: 1.914e-02   |deigs|: 5.015e-02  t[s]:      5.89
	FillingsUpdate:  mu: -0.013057480  nElectrons: 3.000000
SCF: Cycle: 24   F: -6.895476834370217   dF: +8.411e-02   |Residual|: 3.001e-02   |deigs|: 3.533e-02  t[s]:      6.04
	FillingsUpdate:  mu: -0.091119813  nElectrons: 3.000000
SCF: Cycle: 25   F: -7.013520384203748   dF: -1.180e-01   |Residual|: 1.777e-02   |deigs|: 7.779e-02  t[s]:      6.20
	FillingsUpdate:  mu: -0.033397962  nElectrons: 3.000000
SCF: Cycle: 26   F: -6.992909937394633   dF: +2.061e-02   |Residual|: 2.047e-02   |deigs|: 5.855e-02  t[s]:      6.35
	FillingsUpdate:  mu: -0.024723303  nElectrons: 3.000000
SCF: Cycle: 27   F: -6.979192515461371   dF: +1.372e-02   |Residual|: 2.187e-02   |deigs|: 9.291e-03  t[s]:      6.51
	FillingsUpdate:  mu: -0.008576989  nElectrons: 3.000000
SCF: Cycle: 28   F: -6.970064261539065   dF: +9.128e-03   |Residual|: 2.547e-02   |deigs|: 1.670e-02  t[s]:      6.66
	FillingsUpdate:  mu: -0.079756502  nElectrons: 3.000000
SCF: Cycle: 29   F: -7.012156017134545   dF: -4.209e-02   |Residual|: 1.477e-02   |deigs|: 7.508e-02  t[s]:      6.82
	FillingsUpdate:  mu: -0.173951023  nElectrons: 3.000000
SCF: Cycle: 30   F: -7.014400834832486   dF: -2.245e-03   |Residual|: 1.654e-02   |deigs|: 9.130e-02  t[s]:      6.98
	FillingsUpdate:  mu: -0.285774119  nElectrons: 3.000000
SCF: Cycle: 31   F: -7.012938660353444   dF: +1.462e-03   |Residual|: 2.184e-02   |deigs|: 1.160e-01  t[s]:      7.14
	FillingsUpdate:  mu: +0.179651719  nElectrons: 3.000000
SCF: Cycle: 32   F: -6.523445710348957   dF: +4.895e-01   |Residual|: 5.477e-02   |deigs|: 4.655e-01  t[s]:      7.29
	FillingsUpdate:  mu: -0.009207290  nElectrons: 3.000000
SCF: Cycle: 33   F: -0.885561514650068   dF: +5.638e+00   |Residual|: 1.512e-01   |deigs|: 1.377e-01  t[s]:      7.44
	FillingsUpdate:  mu: -0.053866471  nElectrons: 3.000000
SCF: Cycle: 34   F: -0.312785836664827   dF: +5.728e-01   |Residual|: 1.551e-01   |deigs|: 5.309e-02  t[s]:      7.60
	FillingsUpdate:  mu: -0.151378839  nElectrons: 3.000000
SCF: Cycle: 35   F: -0.229133804292137   dF: +8.365e-02   |Residual|: 1.561e-01   |deigs|: 8.808e-02  t[s]:      7.76
	FillingsUpdate:  mu: -0.173520196  nElectrons: 3.000000
SCF: Cycle: 36   F: -0.415864424087703   dF: -1.867e-01   |Residual|: 1.572e-01   |deigs|: 4.296e-02  t[s]:      7.91
	FillingsUpdate:  mu: -0.136468263  nElectrons: 3.000000
SCF: Cycle: 37   F: -0.471068726685232   dF: -5.520e-02   |Residual|: 1.567e-01   |deigs|: 5.485e-02  t[s]:      8.07
	FillingsUpdate:  mu: -0.189687819  nElectrons: 3.000000
SCF: Cycle: 38   F: -0.380571183112630   dF: +9.050e-02   |Residual|: 1.568e-01   |deigs|: 6.054e-02  t[s]:      8.23
	FillingsUpdate:  mu: -0.259911469  nElectrons: 3.000000
SCF: Cycle: 39   F: -0.167967965391770   dF: +2.126e-01   |Residual|: 1.584e-01   |deigs|: 6.495e-02  t[s]:      8.39
	FillingsUpdate:  mu: -0.257967478  nElectrons: 3.000000
SCF: Cycle: 40   F: -0.145395801998917   dF: +2.257e-02   |Residual|: 1.587e-01   |deigs|: 6.843e-03  t[s]:      8.54
	FillingsUpdate:  mu: -0.262030109  nElectrons: 3.000000
SCF: Cycle: 41   F: -0.141661965891995   dF: +3.734e-03   |Residual|: 1.588e-01   |deigs|: 3.446e-02  t[s]:      8.70
	FillingsUpdate:  mu: -0.322088107  nElectrons: 3.000000
SCF: Cycle: 42   F: -0.055117450029517   dF: +8.654e-02   |Residual|: 1.598e-01   |deigs|: 6.885e-02  t[s]:      8.86
	FillingsUpdate:  mu: -3.720443355  nElectrons: 3.000000
SCF: Cycle: 43   F: -6.946885149538943   dF: -6.892e+00   |Residual|: 1.789e-01   |deigs|: 3.509e+00  t[s]:      9.03
	FillingsUpdate:  mu: -1.150573058  nElectrons: 3.000000
SCF: Cycle: 44   F: -6.964915604524182   dF: -1.803e-02   |Residual|: 1.942e-01   |deigs|: 2.440e+00  t[s]:      9.20
	FillingsUpdate:  mu: -1.440056927  nElectrons: 3.000000
SCF: Cycle: 45   F: -6.975110722075159   dF: -1.020e-02   |Residual|: 1.397e-01   |deigs|: 3.264e-01  t[s]:      9.37
	FillingsUpdate:  mu: -1.556453036  nElectrons: 3.000000
SCF: Cycle: 46   F: -6.971722166719752   dF: +3.389e-03   |Residual|: 1.143e-01   |deigs|: 1.155e-01  t[s]:      9.53
	FillingsUpdate:  mu: -1.659155820  nElectrons: 3.000000
SCF: Cycle: 47   F: -6.978399155476293   dF: -6.677e-03   |Residual|: 7.597e-02   |deigs|: 1.215e-01  t[s]:      9.71
	FillingsUpdate:  mu: -1.269383181  nElectrons: 3.000000
SCF: Cycle: 48   F: -6.991941819915261   dF: -1.354e-02   |Residual|: 3.476e-02   |deigs|: 3.741e-01  t[s]:      9.87
	FillingsUpdate:  mu: -1.133729460  nElectrons: 3.000000
SCF: Cycle: 49   F: -6.999142463255472   dF: -7.201e-03   |Residual|: 2.246e-02   |deigs|: 1.321e-01  t[s]:     10.04
	FillingsUpdate:  mu: -0.769609887  nElectrons: 3.000000
SCF: Cycle: 50   F: -7.011536713793009   dF: -1.239e-02   |Residual|: 1.599e-02   |deigs|: 3.627e-01  t[s]:     10.20
	FillingsUpdate:  mu: -0.674235458  nElectrons: 3.000000
SCF: Cycle: 51   F: -7.013786680713732   dF: -2.250e-03   |Residual|: 1.375e-02   |deigs|: 9.684e-02  t[s]:     10.36
	FillingsUpdate:  mu: -0.698352408  nElectrons: 3.000000
SCF: Cycle: 52   F: -7.014126590298920   dF: -3.399e-04   |Residual|: 1.277e-02   |deigs|: 5.180e-02  t[s]:     10.53
	FillingsUpdate:  mu: -0.181861408  nElectrons: 3.000000
SCF: Cycle: 53   F: -7.016311767523900   dF: -2.185e-03   |Residual|: 4.387e-03   |deigs|: 5.086e-01  t[s]:     10.69
	FillingsUpdate:  mu: -0.196482404  nElectrons: 3.000000
SCF: Cycle: 54   F: -7.016442067681307   dF: -1.303e-04   |Residual|: 1.465e-03   |deigs|: 2.380e-02  t[s]:     10.84
	FillingsUpdate:  mu: -0.196989409  nElectrons: 3.000000
SCF: Cycle: 55   F: -7.016466779393985   dF: -2.471e-05   |Residual|: 9.827e-04   |deigs|: 1.297e-02  t[s]:     11.00
	FillingsUpdate:  mu: -0.197357532  nElectrons: 3.000000
SCF: Cycle: 56   F: -7.016470528183051   dF: -3.749e-06   |Residual|: 6.154e-04   |deigs|: 1.878e-03  t[s]:     11.15
	FillingsUpdate:  mu: -0.196101281  nElectrons: 3.000000
SCF: Cycle: 57   F: -7.016471432006044   dF: -9.038e-07   |Residual|: 4.305e-04   |deigs|: 2.181e-02  t[s]:     11.30
	FillingsUpdate:  mu: -0.195787324  nElectrons: 3.000000
SCF: Cycle: 58   F: -7.016471945620719   dF: -5.136e-07   |Residual|: 3.853e-04   |deigs|: 1.001e-02  t[s]:     11.45
	FillingsUpdate:  mu: -0.195800572  nElectrons: 3.000000
SCF: Cycle: 59   F: -7.016472043206523   dF: -9.759e-08   |Residual|: 3.727e-04   |deigs|: 3.448e-03  t[s]:     11.60
	FillingsUpdate:  mu: -0.195710217  nElectrons: 3.000000
SCF: Cycle: 60   F: -7.016472205876698   dF: -1.627e-07   |Residual|: 1.547e-04   |deigs|: 9.405e-04  t[s]:     11.76
	FillingsUpdate:  mu: -0.196263112  nElectrons: 3.000000
SCF: Cycle: 61   F: -7.016472386420549   dF: -1.805e-07   |Residual|: 7.356e-05   |deigs|: 6.865e-04  t[s]:     11.92
	FillingsUpdate:  mu: -0.196116226  nElectrons: 3.000000
SCF: Cycle: 62   F: -7.016472424824693   dF: -3.840e-08   |Residual|: 3.940e-05   |deigs|: 1.095e-02  t[s]:     12.07
	FillingsUpdate:  mu: -0.196184949  nElectrons: 3.000000
SCF: Cycle: 63   F: -7.016472472897158   dF: -4.807e-08   |Residual|: 1.277e-05   |deigs|: 3.117e-03  t[s]:     12.22
	FillingsUpdate:  mu: -0.196159520  nElectrons: 3.000000
SCF: Cycle: 64   F: -7.016472479543731   dF: -6.647e-09   |Residual|: 7.898e-06   |deigs|: 1.751e-04  t[s]:     12.39
	FillingsUpdate:  mu: -0.196191432  nElectrons: 3.000000
SCF: Cycle: 65   F: -7.016472483684212   dF: -4.140e-09   |Residual|: 1.331e-06   |deigs|: 1.714e-04  t[s]:     12.54
SCF: Converged (|Delta E|<1.000000e-08 for 2 iters).


# Ionic positions in lattice coordinates:
ion Li   0.000000000000000   0.000000000000000   0.000000000000000 0

# Forces in Lattice coordinates:
force Li  -0.000000000000000   0.000000000000000   0.000000000000000 0

# Energy components:
   Eewald =       -5.2086655412215457
       EH =       -1.8644334136582812
     Eloc =        0.2788847559311442
      Enl =       -3.6764071936420493
   Epulay =       -0.0000076679014985
      Exc =       -1.6721792538685847
       KE =        5.1314086012775180
-------------------------------------
     Etot =       -7.0113997130832972
       TS =        0.0050727706009149
-------------------------------------
        F =       -7.0164724836842121

IonicMinimize: Iter:   0  F: -7.016472483684212  |grad|_K:  0.000e+00  t[s]:     12.56
IonicMinimize: Converged (|grad|_K<1.000000e-04).

#--- Lowdin population analysis ---
# oxidation-state Li +1.611

End date and time: Sun Jan 16 15:07:02 2022  (Duration: 0-0:00:12.57)
Done!
