1.7
--------------------------------------------------------------------------
The library attempted to open the following supporting CUDA libraries,
but each of them failed.  CUDA-aware support is disabled.
libcuda.so.1: cannot open shared object file: No such file or directory
libcuda.dylib: cannot open shared object file: No such file or directory
/usr/lib64/libcuda.so.1: cannot open shared object file: No such file or directory
/usr/lib64/libcuda.dylib: cannot open shared object file: No such file or directory
If you are not interested in CUDA-aware support, then run with
--mca opal_warn_on_missing_libcuda 0 to suppress this message.  If you are interested
in CUDA-aware support, then try setting LD_LIBRARY_PATH to the location
of libcuda.so.1 to get passed this issue.
--------------------------------------------------------------------------
--------------------------------------------------------------------------
No OpenFabrics connection schemes reported that they were able to be
used on a specific port.  As such, the openib BTL (OpenFabrics
support) will be disabled for this port.

  Local host:           d-16-7-2
  Local device:         mlx5_1
  Local port:           1
  CPCs attempted:       rdmacm, udcm
--------------------------------------------------------------------------

*************** JDFTx 1.6.0 (git hash 42ebbcc2) ***************

Start date and time: Sun Jan 16 15:07:28 2022
Executable jdftx with command-line: -i Lithium.in
Running on hosts (process indices):  d-16-7-2 (0-18)
Divided in process groups (process indices):  0 (0)  1 (1)  2 (2)  3 (3)  4 (4)  5 (5)  6 (6)  7 (7)  8 (8)  9 (9)  10 (10)  11 (11)  12 (12)  13 (13)  14 (14)  15 (15)  16 (16)  17 (17)  18 (18)
Resource initialization completed at t[s]:      0.00
Run totals: 19 processes, 48 threads, 0 GPUs


Input parsed successfully to the following command list (including defaults):

basis kpoint-dependent
coords-type Lattice
core-overlap-check vector
coulomb-interaction Slab 001
davidson-band-ratio 1.1
dump End None
dump-name $INPUT.$VAR
elec-cutoff 20
elec-eigen-algo Davidson
elec-ex-corr gga-PBE
elec-smearing Fermi 0.01
electronic-minimize  \
	dirUpdateScheme      FletcherReeves \
	linminMethod         DirUpdateRecommended \
	nIterations          100 \
	history              15 \
	knormThreshold       0 \
	energyDiffThreshold  1e-08 \
	nEnergyDiff          2 \
	alphaTstart          1 \
	alphaTmin            1e-10 \
	updateTestStepSize   yes \
	alphaTreduceFactor   0.1 \
	alphaTincreaseFactor 3 \
	nAlphaAdjustMax      3 \
	wolfeEnergy          0.0001 \
	wolfeGradient        0.9 \
	fdTest               no
electronic-scf  \
	nIterations	10000 \
	energyDiffThreshold	1e-08 \
	residualThreshold	1e-07 \
	mixFraction	0.5 \
	qMetric	0.8 \
	history	10 \
	nEigSteps	2 \
	eigDiffThreshold	1e-08 \
	mixedVariable	Density \
	qKerker	0.8 \
	qKappa	-1 \
	verbose	no \
	mixFractionMag	1.5
exchange-regularization WignerSeitzTruncated
fluid None
fluid-ex-corr (null) lda-PZ
fluid-gummel-loop 10 1.000000e-05
fluid-minimize  \
	dirUpdateScheme      PolakRibiere \
	linminMethod         DirUpdateRecommended \
	nIterations          100 \
	history              15 \
	knormThreshold       0 \
	energyDiffThreshold  0 \
	nEnergyDiff          2 \
	alphaTstart          1 \
	alphaTmin            1e-10 \
	updateTestStepSize   yes \
	alphaTreduceFactor   0.1 \
	alphaTincreaseFactor 3 \
	nAlphaAdjustMax      3 \
	wolfeEnergy          0.0001 \
	wolfeGradient        0.9 \
	fdTest               no
fluid-solvent H2O 55.338 ScalarEOS \
	epsBulk 78.4 \
	pMol 0.92466 \
	epsInf 1.77 \
	Pvap 1.06736e-10 \
	sigmaBulk 4.62e-05 \
	Rvdw 2.61727 \
	Res 1.42 \
	tauNuc 343133 \
	poleEl 15 7 1
forces-output-coords Positions
ion Li   0.000000000000000   0.000000000000000   0.000000000000000 0
ion-species SG15/$ID_ONCV_PBE.upf
ion-width 0
ionic-minimize  \
	dirUpdateScheme      L-BFGS \
	linminMethod         DirUpdateRecommended \
	nIterations          0 \
	history              15 \
	knormThreshold       0.0001 \
	energyDiffThreshold  1e-06 \
	nEnergyDiff          2 \
	alphaTstart          1 \
	alphaTmin            1e-10 \
	updateTestStepSize   yes \
	alphaTreduceFactor   0.1 \
	alphaTincreaseFactor 3 \
	nAlphaAdjustMax      3 \
	wolfeEnergy          0.0001 \
	wolfeGradient        0.9 \
	fdTest               no
kpoint   0.000000000000   0.000000000000   0.000000000000  1.00000000000000
kpoint-folding 12 12 1 
latt-move-scale 1 1 1
latt-scale 1.7 1.7 1 
lattice  \
	   4.727486978767153   -2.363743489383575    0.000000000000000  \
	  -0.000000000000000    4.094123819672498    0.000000000000000  \
	   0.000000000000000    0.000000000000000   40.000000000000000 
lattice-minimize  \
	dirUpdateScheme      L-BFGS \
	linminMethod         DirUpdateRecommended \
	nIterations          0 \
	history              15 \
	knormThreshold       0 \
	energyDiffThreshold  1e-06 \
	nEnergyDiff          2 \
	alphaTstart          1 \
	alphaTmin            1e-10 \
	updateTestStepSize   yes \
	alphaTreduceFactor   0.1 \
	alphaTincreaseFactor 3 \
	nAlphaAdjustMax      3 \
	wolfeEnergy          0.0001 \
	wolfeGradient        0.9 \
	fdTest               no
lcao-params -1 1e-06 0.01
pcm-variant GLSSA13
spintype no-spin
subspace-rotation-factor 1 yes
symmetries automatic
symmetry-threshold 0.0001



---------- Setting up symmetries ----------

Found 24 point-group symmetries of the bravais lattice
Found 24 space-group symmetries with basis
Applied RMS atom displacement 0 bohrs to make symmetries exact.

---------- Initializing the Grid ----------
R = 
[      8.03673     -4.01836            0  ]
[            0      6.96001            0  ]
[            0            0           40  ]
unit cell volume = 2237.43
G =
[   0.781809   0.451378         -0  ]
[          0   0.902755         -0  ]
[         -0         -0    0.15708  ]
Minimum fftbox size, Smin = [  36  36  164  ]
Chosen fftbox size, S = [  36  36  168  ]

---------- Exchange Correlation functional ----------
Initalized PBE GGA exchange.
Initalized PBE GGA correlation.

---------- Setting up pseudopotentials ----------
Width of ionic core gaussian charges (only for fluid interactions / plotting) set to 0

Reading pseudopotential file '/home/gridsan/aligho/DFT/build-Nov24/pseudopotentials/SG15/Li_ONCV_PBE.upf':
  'Li' pseudopotential, 'PBE' functional
  Generated using ONCVPSP code by D. R. Hamann
  Author: Martin Schlipf and Francois Gygi  Date: 150915.
  3 valence electrons, 2 orbitals, 4 projectors, 1328 radial grid points, with lMax = 1
  Transforming local potential to a uniform radial grid of dG=0.02 with 1560 points.
  Transforming nonlocal projectors to a uniform radial grid of dG=0.02 with 432 points.
    1S    l: 0   occupation:  2.0   eigenvalue: -1.905623
    2S    l: 0   occupation:  1.0   eigenvalue: -0.105624
  Transforming atomic orbitals to a uniform radial grid of dG=0.02 with 432 points.
  WARNING: large normalization error in atomic orbital 1s (integral: 0.000000).
  Core radius for overlap checks: 1.63 bohrs.
  Reading pulay file /home/gridsan/aligho/DFT/build-Nov24/pseudopotentials/SG15/Li_ONCV_PBE.pulay ... using dE_dnG = -1.230239e-02 computed for Ecut = 20.

Initialized 1 species with 1 total atoms.

Folded 1 k-points by 12x12x1 to 144 k-points.

---------- Setting up k-points, bands, fillings ----------
Reduced to 19 k-points under symmetry. 
Computing the number of bands and number of electrons
Calculating initial fillings.
nElectrons:   3.000000   nBands: 3   nStates: 19

----- Setting up reduced wavefunction bases (one per k-point) -----
average nbasis = 9555.229 , ideal nbasis = 9558.465

---------- Setting up coulomb interaction ----------
Initialized slab truncation along lattice direction 001

---------- Setting up 2D ewald sum ----------
Optimum gaussian width for ewald sums = 4.461667 bohr.
Real space sums over 289 unit cells with max indices [  8  8  0  ]
Reciprocal space sums over 81 terms with max indices [  4  4  0  ]

---------- Allocating electronic variables ----------
Initializing wave functions:  linear combination of atomic orbitals
Note: number of bands (3) exceeds available atomic orbitals (2)
Li pseudo-atom occupations:   s ( 2 1 )
	FillingsUpdate:  mu: +0.352046021  nElectrons: 3.000000
LCAOMinimize: Iter:   0  F: -1.0669566704927822  |grad|_K:  4.689e-03  alpha:  1.000e+00
	FillingsUpdate:  mu: +0.352200710  nElectrons: 3.000000
LCAOMinimize: Iter:   1  F: -1.0689369839450187  |grad|_K:  1.506e-03  alpha:  1.160e+00  linmin:  1.799e-02  cgtest: -4.900e-01  t[s]:      2.14
LCAOMinimize: 	Bad step direction: g.d > 0.
LCAOMinimize: 	Undoing step.
LCAOMinimize: 	Step failed: resetting search direction.
	FillingsUpdate:  mu: +0.352200710  nElectrons: 3.000000
LCAOMinimize: Iter:   2  F: -1.0689369839450187  |grad|_K:  1.506e-03  alpha:  0.000e+00
	FillingsUpdate:  mu: +0.352148781  nElectrons: 3.000000
LCAOMinimize: Iter:   3  F: -1.0690957367920964  |grad|_K:  1.196e-04  alpha:  8.908e-01  linmin: -1.324e-02  cgtest:  1.258e+00  t[s]:      2.91
LCAOMinimize: Encountered beta<0, resetting CG.
	FillingsUpdate:  mu: +0.352144523  nElectrons: 3.000000
LCAOMinimize: Iter:   4  F: -1.0690969356635183  |grad|_K:  2.285e-06  alpha:  9.780e-01  linmin: -1.193e-02  cgtest:  8.838e-01  t[s]:      3.39
LCAOMinimize: Encountered beta<0, resetting CG.
	FillingsUpdate:  mu: +0.352144468  nElectrons: 3.000000
LCAOMinimize: Iter:   5  F: -1.0690969361144846  |grad|_K:  6.220e-08  alpha:  1.009e+00  linmin: -9.805e-03  cgtest:  1.976e-01  t[s]:      3.87
LCAOMinimize: Encountered beta<0, resetting CG.
	FillingsUpdate:  mu: +0.352144468  nElectrons: 3.000000
LCAOMinimize: Iter:   6  F: -1.0690969361147022  |grad|_K:  3.791e-08  alpha:  4.076e-01  linmin: -7.253e-02  cgtest:  9.999e-01  t[s]:      4.33
LCAOMinimize: Encountered beta<0, resetting CG.
LCAOMinimize: Converged (|Delta F|<1.000000e-06 for 2 iters).


---- Citations for features of the code used in this run ----

   Software package:
      R. Sundararaman, K. Letchworth-Weaver, K.A. Schwarz, D. Gunceler, Y. Ozhabes and T.A. Arias, 'JDFTx: software for joint density-functional theory', SoftwareX 6, 278 (2017)

   gga-PBE exchange-correlation functional:
      J.P. Perdew, K. Burke and M. Ernzerhof, Phys. Rev. Lett. 77, 3865 (1996)

   Pseudopotentials:
      M Schlipf and F Gygi, Comput. Phys. Commun. 196, 36 (2015)

   Truncated Coulomb potentials:
      R. Sundararaman and T.A. Arias, Phys. Rev. B 87, 165122 (2013)

This list may not be complete. Please suggest additional citations or
report any other bugs at https://github.com/shankar1729/jdftx/issues

Initialization completed successfully at t[s]:      4.38


-------- Electronic minimization -----------
Will mix electronic density at each iteration.
	FillingsUpdate:  mu: +0.352144468  nElectrons: 3.000000
[d-16-7-2:80860] 18 more processes have sent help message help-mpi-common-cuda.txt / dlopen failed
[d-16-7-2:80860] Set MCA parameter "orte_base_help_aggregate" to 0 to see all help / error messages
[d-16-7-2:80860] 18 more processes have sent help message help-mpi-btl-openib-cpc-base.txt / no cpcs for port
	FillingsUpdate:  mu: -1.232360080  nElectrons: 3.000000
SCF: Cycle:  0   F: -6.494400341076042   dF: -5.425e+00   |Residual|: 1.083e+00   |deigs|: 4.157e+00  t[s]:      5.14
	FillingsUpdate:  mu: -1.136168655  nElectrons: 3.000000
SCF: Cycle:  1   F: -6.959167917180835   dF: -4.648e-01   |Residual|: 7.940e-01   |deigs|: 3.115e-01  t[s]:      5.70
	FillingsUpdate:  mu: -0.810644722  nElectrons: 3.000000
SCF: Cycle:  2   F: -7.039839054372949   dF: -8.067e-02   |Residual|: 7.493e-01   |deigs|: 1.031e+00  t[s]:      6.27
	FillingsUpdate:  mu: -0.897753158  nElectrons: 3.000000
SCF: Cycle:  3   F: -7.065901871219080   dF: -2.606e-02   |Residual|: 2.952e-01   |deigs|: 2.819e-01  t[s]:      6.85
	FillingsUpdate:  mu: -0.879873149  nElectrons: 3.000000
SCF: Cycle:  4   F: -7.066545817374005   dF: -6.439e-04   |Residual|: 4.728e-02   |deigs|: 7.921e-02  t[s]:      7.47
	FillingsUpdate:  mu: -0.820385399  nElectrons: 3.000000
SCF: Cycle:  5   F: -7.033945615405928   dF: +3.260e-02   |Residual|: 7.636e-01   |deigs|: 2.901e-01  t[s]:      8.06
	FillingsUpdate:  mu: -0.789046163  nElectrons: 3.000000
SCF: Cycle:  6   F: -7.047026347796501   dF: -1.308e-02   |Residual|: 5.921e-01   |deigs|: 1.053e-01  t[s]:      8.68
	FillingsUpdate:  mu: -0.520811512  nElectrons: 3.000000
SCF: Cycle:  7   F: -7.074243423584155   dF: -2.722e-02   |Residual|: 1.762e-01   |deigs|: 4.093e-01  t[s]:      9.29
	FillingsUpdate:  mu: -0.529821962  nElectrons: 3.000000
SCF: Cycle:  8   F: -7.063021147562654   dF: +1.122e-02   |Residual|: 4.331e-01   |deigs|: 1.305e-01  t[s]:      9.90
	FillingsUpdate:  mu: -0.424099576  nElectrons: 3.000000
SCF: Cycle:  9   F: -7.069565115266761   dF: -6.544e-03   |Residual|: 4.099e-01   |deigs|: 1.002e-01  t[s]:     10.54
	FillingsUpdate:  mu: -0.325365434  nElectrons: 3.000000
SCF: Cycle: 10   F: -7.079581944340954   dF: -1.002e-02   |Residual|: 2.313e-01   |deigs|: 1.840e-01  t[s]:     11.20
	FillingsUpdate:  mu: -0.226983611  nElectrons: 3.000000
SCF: Cycle: 11   F: -7.083004896181344   dF: -3.423e-03   |Residual|: 1.264e-01   |deigs|: 1.658e-01  t[s]:     11.83
	FillingsUpdate:  mu: -0.185251553  nElectrons: 3.000000
SCF: Cycle: 12   F: -7.083676452252918   dF: -6.716e-04   |Residual|: 5.040e-02   |deigs|: 5.116e-02  t[s]:     12.47
	FillingsUpdate:  mu: -0.121076526  nElectrons: 3.000000
SCF: Cycle: 13   F: -7.083868756429172   dF: -1.923e-04   |Residual|: 8.937e-02   |deigs|: 9.874e-02  t[s]:     13.13
	FillingsUpdate:  mu: -0.122524235  nElectrons: 3.000000
SCF: Cycle: 14   F: -7.084091109017226   dF: -2.224e-04   |Residual|: 5.306e-02   |deigs|: 1.504e-02  t[s]:     13.78
	FillingsUpdate:  mu: -0.118819069  nElectrons: 3.000000
SCF: Cycle: 15   F: -7.084357837777004   dF: -2.667e-04   |Residual|: 2.773e-03   |deigs|: 1.531e-02  t[s]:     14.42
	FillingsUpdate:  mu: -0.116518577  nElectrons: 3.000000
SCF: Cycle: 16   F: -7.084382851718197   dF: -2.501e-05   |Residual|: 1.783e-03   |deigs|: 3.080e-03  t[s]:     15.08
	FillingsUpdate:  mu: -0.117275574  nElectrons: 3.000000
SCF: Cycle: 17   F: -7.084389881290900   dF: -7.030e-06   |Residual|: 8.519e-04   |deigs|: 9.011e-04  t[s]:     15.72
	FillingsUpdate:  mu: -0.117473090  nElectrons: 3.000000
SCF: Cycle: 18   F: -7.084390254578871   dF: -3.733e-07   |Residual|: 3.371e-04   |deigs|: 2.480e-04  t[s]:     16.35
	FillingsUpdate:  mu: -0.117895214  nElectrons: 3.000000
SCF: Cycle: 19   F: -7.084390774855556   dF: -5.203e-07   |Residual|: 1.318e-04   |deigs|: 1.322e-03  t[s]:     16.99
	FillingsUpdate:  mu: -0.117816776  nElectrons: 3.000000
SCF: Cycle: 20   F: -7.084391203154083   dF: -4.283e-07   |Residual|: 1.045e-04   |deigs|: 6.004e-04  t[s]:     17.62
	FillingsUpdate:  mu: -0.117482749  nElectrons: 3.000000
SCF: Cycle: 21   F: -7.084391327579342   dF: -1.244e-07   |Residual|: 9.488e-05   |deigs|: 3.236e-04  t[s]:     18.25
	FillingsUpdate:  mu: -0.116994177  nElectrons: 3.000000
SCF: Cycle: 22   F: -7.084391357775088   dF: -3.020e-08   |Residual|: 5.672e-05   |deigs|: 4.944e-04  t[s]:     18.87
	FillingsUpdate:  mu: -0.116841116  nElectrons: 3.000000
SCF: Cycle: 23   F: -7.084391361045518   dF: -3.270e-09   |Residual|: 3.976e-05   |deigs|: 1.389e-04  t[s]:     19.51
	FillingsUpdate:  mu: -0.116859011  nElectrons: 3.000000
SCF: Cycle: 24   F: -7.084391365349128   dF: -4.304e-09   |Residual|: 1.722e-05   |deigs|: 1.448e-05  t[s]:     20.15
SCF: Converged (|Delta E|<1.000000e-08 for 2 iters).


# Ionic positions in lattice coordinates:
ion Li   0.000000000000000   0.000000000000000   0.000000000000000 0

# Forces in Lattice coordinates:
force Li   0.000000000000000   0.000000000000000   0.000000000000000 0

# Energy components:
   Eewald =       -2.3592190980827015
       EH =        1.2121812773323888
     Eloc =       -5.5293322264076554
      Enl =       -3.5896260619056077
   Epulay =       -0.0000177903005338
      Exc =       -1.5503358783070396
       KE =        4.7391315542986385
-------------------------------------
     Etot =       -7.0772182233725109
       TS =        0.0071731419766171
-------------------------------------
        F =       -7.0843913653491279

IonicMinimize: Iter:   0  F: -7.084391365349128  |grad|_K:  0.000e+00  t[s]:     20.19
IonicMinimize: Converged (|grad|_K<1.000000e-04).

#--- Lowdin population analysis ---
# oxidation-state Li +2.169

End date and time: Sun Jan 16 15:07:48 2022  (Duration: 0-0:00:20.20)
Done!
