0.53
--------------------------------------------------------------------------
The library attempted to open the following supporting CUDA libraries,
but each of them failed.  CUDA-aware support is disabled.
libcuda.so.1: cannot open shared object file: No such file or directory
libcuda.dylib: cannot open shared object file: No such file or directory
/usr/lib64/libcuda.so.1: cannot open shared object file: No such file or directory
/usr/lib64/libcuda.dylib: cannot open shared object file: No such file or directory
If you are not interested in CUDA-aware support, then run with
--mca opal_warn_on_missing_libcuda 0 to suppress this message.  If you are interested
in CUDA-aware support, then try setting LD_LIBRARY_PATH to the location
of libcuda.so.1 to get passed this issue.
--------------------------------------------------------------------------
[d-3-3-1:39495] [[31916,0],0] ORTE_ERROR_LOG: Data unpack would read past end of buffer in file util/show_help.c at line 501
--------------------------------------------------------------------------
No OpenFabrics connection schemes reported that they were able to be
used on a specific port.  As such, the openib BTL (OpenFabrics
support) will be disabled for this port.

  Local host:           d-3-3-1
  Local device:         mlx5_1
  Local port:           1
  CPCs attempted:       rdmacm, udcm
--------------------------------------------------------------------------

*************** JDFTx 1.6.0 (git hash 42ebbcc2) ***************

Start date and time: Sun Jan 16 15:06:51 2022
Executable jdftx with command-line: -i Lithium.in
Running on hosts (process indices):  d-3-3-1 (0-18)
Divided in process groups (process indices):  0 (0)  1 (1)  2 (2)  3 (3)  4 (4)  5 (5)  6 (6)  7 (7)  8 (8)  9 (9)  10 (10)  11 (11)  12 (12)  13 (13)  14 (14)  15 (15)  16 (16)  17 (17)  18 (18)
Resource initialization completed at t[s]:      0.00
Run totals: 19 processes, 48 threads, 0 GPUs


Input parsed successfully to the following command list (including defaults):

basis kpoint-dependent
coords-type Lattice
core-overlap-check vector
coulomb-interaction Slab 001
davidson-band-ratio 1.1
dump End None
dump-name $INPUT.$VAR
elec-cutoff 20
elec-eigen-algo Davidson
elec-ex-corr gga-PBE
elec-smearing Fermi 0.01
electronic-minimize  \
	dirUpdateScheme      FletcherReeves \
	linminMethod         DirUpdateRecommended \
	nIterations          100 \
	history              15 \
	knormThreshold       0 \
	energyDiffThreshold  1e-08 \
	nEnergyDiff          2 \
	alphaTstart          1 \
	alphaTmin            1e-10 \
	updateTestStepSize   yes \
	alphaTreduceFactor   0.1 \
	alphaTincreaseFactor 3 \
	nAlphaAdjustMax      3 \
	wolfeEnergy          0.0001 \
	wolfeGradient        0.9 \
	fdTest               no
electronic-scf  \
	nIterations	10000 \
	energyDiffThreshold	1e-08 \
	residualThreshold	1e-07 \
	mixFraction	0.5 \
	qMetric	0.8 \
	history	10 \
	nEigSteps	2 \
	eigDiffThreshold	1e-08 \
	mixedVariable	Density \
	qKerker	0.8 \
	qKappa	-1 \
	verbose	no \
	mixFractionMag	1.5
exchange-regularization WignerSeitzTruncated
fluid None
fluid-ex-corr (null) lda-PZ
fluid-gummel-loop 10 1.000000e-05
fluid-minimize  \
	dirUpdateScheme      PolakRibiere \
	linminMethod         DirUpdateRecommended \
	nIterations          100 \
	history              15 \
	knormThreshold       0 \
	energyDiffThreshold  0 \
	nEnergyDiff          2 \
	alphaTstart          1 \
	alphaTmin            1e-10 \
	updateTestStepSize   yes \
	alphaTreduceFactor   0.1 \
	alphaTincreaseFactor 3 \
	nAlphaAdjustMax      3 \
	wolfeEnergy          0.0001 \
	wolfeGradient        0.9 \
	fdTest               no
fluid-solvent H2O 55.338 ScalarEOS \
	epsBulk 78.4 \
	pMol 0.92466 \
	epsInf 1.77 \
	Pvap 1.06736e-10 \
	sigmaBulk 4.62e-05 \
	Rvdw 2.61727 \
	Res 1.42 \
	tauNuc 343133 \
	poleEl 15 7 1
forces-output-coords Positions
ion Li   0.000000000000000   0.000000000000000   0.000000000000000 0
ion-species SG15/$ID_ONCV_PBE.upf
ion-width 0
ionic-minimize  \
	dirUpdateScheme      L-BFGS \
	linminMethod         DirUpdateRecommended \
	nIterations          0 \
	history              15 \
	knormThreshold       0.0001 \
	energyDiffThreshold  1e-06 \
	nEnergyDiff          2 \
	alphaTstart          1 \
	alphaTmin            1e-10 \
	updateTestStepSize   yes \
	alphaTreduceFactor   0.1 \
	alphaTincreaseFactor 3 \
	nAlphaAdjustMax      3 \
	wolfeEnergy          0.0001 \
	wolfeGradient        0.9 \
	fdTest               no
kpoint   0.000000000000   0.000000000000   0.000000000000  1.00000000000000
kpoint-folding 12 12 1 
latt-move-scale 1 1 1
latt-scale 0.53 0.53 1 
lattice  \
	   4.727486978767153   -2.363743489383574    0.000000000000000  \
	  -0.000000000000000    4.094123819672498    0.000000000000000  \
	   0.000000000000000    0.000000000000000   40.000000000000000 
lattice-minimize  \
	dirUpdateScheme      L-BFGS \
	linminMethod         DirUpdateRecommended \
	nIterations          0 \
	history              15 \
	knormThreshold       0 \
	energyDiffThreshold  1e-06 \
	nEnergyDiff          2 \
	alphaTstart          1 \
	alphaTmin            1e-10 \
	updateTestStepSize   yes \
	alphaTreduceFactor   0.1 \
	alphaTincreaseFactor 3 \
	nAlphaAdjustMax      3 \
	wolfeEnergy          0.0001 \
	wolfeGradient        0.9 \
	fdTest               no
lcao-params -1 1e-06 0.01
pcm-variant GLSSA13
spintype no-spin
subspace-rotation-factor 1 yes
symmetries automatic
symmetry-threshold 0.0001



---------- Setting up symmetries ----------

Found 24 point-group symmetries of the bravais lattice
Found 24 space-group symmetries with basis
Applied RMS atom displacement 0 bohrs to make symmetries exact.

---------- Initializing the Grid ----------
R = 
[      2.50557     -1.25278            0  ]
[            0      2.16989            0  ]
[            0            0           40  ]
unit cell volume = 217.472
G =
[    2.50769    1.44781         -0  ]
[          0    2.89563         -0  ]
[         -0         -0    0.15708  ]
Minimum fftbox size, Smin = [  12  12  164  ]
Chosen fftbox size, S = [  12  12  168  ]

---------- Exchange Correlation functional ----------
Initalized PBE GGA exchange.
Initalized PBE GGA correlation.

---------- Setting up pseudopotentials ----------
Width of ionic core gaussian charges (only for fluid interactions / plotting) set to 0

Reading pseudopotential file '/home/gridsan/aligho/DFT/build-Nov24/pseudopotentials/SG15/Li_ONCV_PBE.upf':
  'Li' pseudopotential, 'PBE' functional
  Generated using ONCVPSP code by D. R. Hamann
  Author: Martin Schlipf and Francois Gygi  Date: 150915.
  3 valence electrons, 2 orbitals, 4 projectors, 1328 radial grid points, with lMax = 1
  Transforming local potential to a uniform radial grid of dG=0.02 with 1648 points.
  Transforming nonlocal projectors to a uniform radial grid of dG=0.02 with 432 points.
    1S    l: 0   occupation:  2.0   eigenvalue: -1.905623
    2S    l: 0   occupation:  1.0   eigenvalue: -0.105624
  Transforming atomic orbitals to a uniform radial grid of dG=0.02 with 432 points.
  WARNING: large normalization error in atomic orbital 1s (integral: 0.000000).
  Core radius for overlap checks: 1.63 bohrs.
  Reading pulay file /home/gridsan/aligho/DFT/build-Nov24/pseudopotentials/SG15/Li_ONCV_PBE.pulay ... using dE_dnG = -1.230239e-02 computed for Ecut = 20.

Initialized 1 species with 1 total atoms.

Folded 1 k-points by 12x12x1 to 144 k-points.

---------- Setting up k-points, bands, fillings ----------
Reduced to 19 k-points under symmetry. 
Computing the number of bands and number of electrons
Calculating initial fillings.
nElectrons:   3.000000   nBands: 3   nStates: 19

----- Setting up reduced wavefunction bases (one per k-point) -----
average nbasis = 929.521 , ideal nbasis = 929.056

---------- Setting up coulomb interaction ----------
Initialized slab truncation along lattice direction 001

---------- Setting up 2D ewald sum ----------
Optimum gaussian width for ewald sums = 1.390990 bohr.
Real space sums over 289 unit cells with max indices [  8  8  0  ]
Reciprocal space sums over 81 terms with max indices [  4  4  0  ]

---------- Allocating electronic variables ----------
Initializing wave functions:  linear combination of atomic orbitals
Note: number of bands (3) exceeds available atomic orbitals (2)
Li pseudo-atom occupations:   s ( 2 1 )
	FillingsUpdate:  mu: +0.634890069  nElectrons: 3.000000
LCAOMinimize: Iter:   0  F: +0.9135148388320675  |grad|_K:  3.306e-02  alpha:  1.000e+00
	FillingsUpdate:  mu: +0.635731766  nElectrons: 3.000000
LCAOMinimize: Iter:   1  F: +0.7854813368628811  |grad|_K:  5.079e-02  alpha:  3.714e-01  linmin: -8.141e-02  cgtest:  4.066e-01  t[s]:      0.72
	FillingsUpdate:  mu: +0.635803812  nElectrons: 3.000000
LCAOMinimize: Iter:   2  F: +0.7753479898403852  |grad|_K:  5.246e-02  alpha:  5.821e-03  linmin: -8.413e-02  cgtest:  9.463e-01  t[s]:      0.87
LCAOMinimize: 	Wrong curvature in test step, increasing alphaT to 1.746267e-02.
	FillingsUpdate:  mu: +0.635830871  nElectrons: 3.000000
LCAOMinimize: Iter:   3  F: +0.7716030051713959  |grad|_K:  5.308e-02  alpha: -1.829e-01  linmin: -8.571e-02  cgtest:  9.804e-01  t[s]:      1.04
	FillingsUpdate:  mu: +0.751711354  nElectrons: 3.000000
LCAOMinimize: Iter:   4  F: -0.0589969051880329  |grad|_K:  1.014e-01  alpha:  3.331e-01  linmin: -1.322e-01  cgtest:  3.010e-01  t[s]:      1.20
	FillingsUpdate:  mu: +0.836755258  nElectrons: 3.000000
LCAOMinimize: Iter:   5  F: -0.4273561128678025  |grad|_K:  1.062e-01  alpha:  2.671e-02  linmin: -2.125e-01  cgtest:  7.063e-01  t[s]:      1.36
LCAOMinimize: 	Wrong curvature in test step, increasing alphaT to 8.013951e-02.
	FillingsUpdate:  mu: +0.848688256  nElectrons: 3.000000
LCAOMinimize: Iter:   6  F: -0.6921238943275174  |grad|_K:  9.837e-02  alpha: -5.747e-02  linmin: -1.509e-01  cgtest:  8.440e-01  t[s]:      1.53
	FillingsUpdate:  mu: +0.595696483  nElectrons: 3.000000
LCAOMinimize: Iter:   7  F: -1.1332385284191537  |grad|_K:  1.030e-02  alpha:  2.972e-01  linmin: -3.559e-01  cgtest:  8.301e-01  t[s]:      1.69
LCAOMinimize: Encountered beta<0, resetting CG.
	FillingsUpdate:  mu: +0.490031818  nElectrons: 3.000000
LCAOMinimize: Iter:   8  F: -1.1368510998920227  |grad|_K:  3.359e-04  alpha:  4.026e-01  linmin:  3.097e-01  cgtest: -8.167e-01  t[s]:      1.85
	FillingsUpdate:  mu: +0.490256353  nElectrons: 3.000000
LCAOMinimize: Iter:   9  F: -1.1368534929953162  |grad|_K:  2.730e-04  alpha:  1.069e+00  linmin: -1.272e-04  cgtest:  8.687e-01  t[s]:      2.03
LCAOMinimize: Encountered beta<0, resetting CG.
	FillingsUpdate:  mu: +0.492434217  nElectrons: 3.000000
LCAOMinimize: Iter:  10  F: -1.1368559659908162  |grad|_K:  1.076e-05  alpha:  3.886e-01  linmin:  9.093e-03  cgtest: -2.684e-02  t[s]:      2.20
	FillingsUpdate:  mu: +0.492429395  nElectrons: 3.000000
LCAOMinimize: Iter:  11  F: -1.1368559758447803  |grad|_K:  3.390e-07  alpha:  9.965e-01  linmin: -1.394e-04  cgtest:  6.801e-02  t[s]:      2.38
LCAOMinimize: Encountered beta<0, resetting CG.
	FillingsUpdate:  mu: +0.492426665  nElectrons: 3.000000
LCAOMinimize: Iter:  12  F: -1.1368559758489536  |grad|_K:  2.781e-08  alpha:  3.958e-01  linmin:  6.366e-02  cgtest: -1.358e-01  t[s]:      2.55
LCAOMinimize: Converged (|Delta F|<1.000000e-06 for 2 iters).


---- Citations for features of the code used in this run ----

   Software package:
      R. Sundararaman, K. Letchworth-Weaver, K.A. Schwarz, D. Gunceler, Y. Ozhabes and T.A. Arias, 'JDFTx: software for joint density-functional theory', SoftwareX 6, 278 (2017)

   gga-PBE exchange-correlation functional:
      J.P. Perdew, K. Burke and M. Ernzerhof, Phys. Rev. Lett. 77, 3865 (1996)

   Pseudopotentials:
      M Schlipf and F Gygi, Comput. Phys. Commun. 196, 36 (2015)

   Truncated Coulomb potentials:
      R. Sundararaman and T.A. Arias, Phys. Rev. B 87, 165122 (2013)

This list may not be complete. Please suggest additional citations or
report any other bugs at https://github.com/shankar1729/jdftx/issues

Initialization completed successfully at t[s]:      2.59


-------- Electronic minimization -----------
Will mix electronic density at each iteration.
	FillingsUpdate:  mu: +0.492426665  nElectrons: 3.000000
	FillingsUpdate:  mu: -5.033135109  nElectrons: 3.000000
SCF: Cycle:  0   F: -6.118826978326878   dF: -4.982e+00   |Residual|: 3.945e-01   |deigs|: 4.637e+00  t[s]:      2.83
	FillingsUpdate:  mu: -4.937473719  nElectrons: 3.000000
SCF: Cycle:  1   F: -6.318930940425547   dF: -2.001e-01   |Residual|: 3.046e-01   |deigs|: 3.398e-01  t[s]:      2.97
	FillingsUpdate:  mu: -3.917977266  nElectrons: 3.000000
SCF: Cycle:  2   F: -6.648656696341041   dF: -3.297e-01   |Residual|: 2.547e-01   |deigs|: 1.026e+00  t[s]:      3.11
	FillingsUpdate:  mu: -4.399400636  nElectrons: 3.000000
SCF: Cycle:  3   F: -6.624207155095763   dF: +2.445e-02   |Residual|: 1.392e-01   |deigs|: 5.319e-01  t[s]:      3.24
	FillingsUpdate:  mu: -3.689719968  nElectrons: 3.000000
SCF: Cycle:  4   F: -6.649428302061344   dF: -2.522e-02   |Residual|: 2.401e-01   |deigs|: 6.558e-01  t[s]:      3.38
	FillingsUpdate:  mu: -3.437757170  nElectrons: 3.000000
SCF: Cycle:  5   F: -6.743789296615820   dF: -9.436e-02   |Residual|: 7.247e-02   |deigs|: 2.946e-01  t[s]:      3.52
	FillingsUpdate:  mu: -3.292157925  nElectrons: 3.000000
SCF: Cycle:  6   F: -6.638843358518183   dF: +1.049e-01   |Residual|: 2.936e-01   |deigs|: 1.576e-01  t[s]:      3.65
	FillingsUpdate:  mu: -2.736611164  nElectrons: 3.000000
SCF: Cycle:  7   F: -6.676918451985723   dF: -3.808e-02   |Residual|: 2.340e-01   |deigs|: 5.576e-01  t[s]:      3.79
[d-3-3-1:39495] 17 more processes have sent help message help-mpi-common-cuda.txt / dlopen failed
[d-3-3-1:39495] Set MCA parameter "orte_base_help_aggregate" to 0 to see all help / error messages
[d-3-3-1:39495] 18 more processes have sent help message help-mpi-btl-openib-cpc-base.txt / no cpcs for port
	FillingsUpdate:  mu: -0.965226715  nElectrons: 3.000000
SCF: Cycle:  8   F: -6.177199869937493   dF: +4.997e-01   |Residual|: 4.640e-01   |deigs|: 2.239e+00  t[s]:      3.92
	FillingsUpdate:  mu: -3.469844092  nElectrons: 3.000000
SCF: Cycle:  9   F: -6.480140562950959   dF: -3.029e-01   |Residual|: 4.103e-01   |deigs|: 2.950e+00  t[s]:      4.05
	FillingsUpdate:  mu: -3.333270099  nElectrons: 3.000000
SCF: Cycle: 10   F: -6.473978214990801   dF: +6.162e-03   |Residual|: 4.191e-01   |deigs|: 1.743e-01  t[s]:      4.19
	FillingsUpdate:  mu: -0.538165704  nElectrons: 3.000000
SCF: Cycle: 11   F: -6.663836150214424   dF: -1.899e-01   |Residual|: 4.031e-01   |deigs|: 2.933e+00  t[s]:      4.32
	FillingsUpdate:  mu: -0.668987893  nElectrons: 3.000000
SCF: Cycle: 12   F: -6.705053929769157   dF: -4.122e-02   |Residual|: 2.890e-01   |deigs|: 3.351e-01  t[s]:      4.45
	FillingsUpdate:  mu: -0.865784214  nElectrons: 3.000000
SCF: Cycle: 13   F: -6.707017550105295   dF: -1.964e-03   |Residual|: 2.036e-01   |deigs|: 2.058e-01  t[s]:      4.58
	FillingsUpdate:  mu: -0.019496070  nElectrons: 3.000000
SCF: Cycle: 14   F: -6.764752972370395   dF: -5.774e-02   |Residual|: 8.761e-02   |deigs|: 8.693e-01  t[s]:      4.70
	FillingsUpdate:  mu: -0.037257464  nElectrons: 3.000000
SCF: Cycle: 15   F: -6.764433426881080   dF: +3.195e-04   |Residual|: 9.192e-02   |deigs|: 2.946e-02  t[s]:      4.81
	FillingsUpdate:  mu: -0.146005558  nElectrons: 3.000000
SCF: Cycle: 16   F: -6.774116933148183   dF: -9.684e-03   |Residual|: 4.176e-02   |deigs|: 1.171e-01  t[s]:      4.93
	FillingsUpdate:  mu: -0.239753968  nElectrons: 3.000000
SCF: Cycle: 17   F: -6.774514586591753   dF: -3.977e-04   |Residual|: 3.820e-02   |deigs|: 9.030e-02  t[s]:      5.06
	FillingsUpdate:  mu: -0.119364103  nElectrons: 3.000000
SCF: Cycle: 18   F: -6.774547160169265   dF: -3.257e-05   |Residual|: 3.634e-02   |deigs|: 1.189e-01  t[s]:      5.18
	FillingsUpdate:  mu: -0.179511041  nElectrons: 3.000000
SCF: Cycle: 19   F: -6.774636993236344   dF: -8.983e-05   |Residual|: 6.391e-03   |deigs|: 6.311e-02  t[s]:      5.30
	FillingsUpdate:  mu: -0.213928627  nElectrons: 3.000000
SCF: Cycle: 20   F: -6.774655039267015   dF: -1.805e-05   |Residual|: 1.975e-03   |deigs|: 3.524e-02  t[s]:      5.42
	FillingsUpdate:  mu: -0.208627831  nElectrons: 3.000000
SCF: Cycle: 21   F: -6.774659928485566   dF: -4.889e-06   |Residual|: 6.879e-04   |deigs|: 5.304e-03  t[s]:      5.54
	FillingsUpdate:  mu: -0.201427070  nElectrons: 3.000000
SCF: Cycle: 22   F: -6.774660850712617   dF: -9.222e-07   |Residual|: 3.840e-04   |deigs|: 7.262e-03  t[s]:      5.67
	FillingsUpdate:  mu: -0.198835196  nElectrons: 3.000000
SCF: Cycle: 23   F: -6.774661029159214   dF: -1.784e-07   |Residual|: 3.946e-04   |deigs|: 2.527e-03  t[s]:      5.79
	FillingsUpdate:  mu: -0.200654195  nElectrons: 3.000000
SCF: Cycle: 24   F: -6.774661213234707   dF: -1.841e-07   |Residual|: 5.203e-05   |deigs|: 1.813e-03  t[s]:      5.91
	FillingsUpdate:  mu: -0.200915814  nElectrons: 3.000000
SCF: Cycle: 25   F: -6.774661221723033   dF: -8.488e-09   |Residual|: 1.733e-05   |deigs|: 2.615e-04  t[s]:      6.04
	FillingsUpdate:  mu: -0.200878469  nElectrons: 3.000000
SCF: Cycle: 26   F: -6.774661227363348   dF: -5.640e-09   |Residual|: 9.544e-06   |deigs|: 3.974e-05  t[s]:      6.17
SCF: Converged (|Delta E|<1.000000e-08 for 2 iters).


# Ionic positions in lattice coordinates:
ion Li   0.000000000000000   0.000000000000000   0.000000000000000 0

# Forces in Lattice coordinates:
force Li   0.000000000000000  -0.000000000000000   0.000000000000000 0

# Energy components:
   Eewald =       -7.5673065410199829
       EH =       -5.1514404082189547
     Eloc =        5.9470576310682448
      Enl =       -3.6153118799886217
   Epulay =        0.0000262782533468
      Exc =       -1.7577712661522260
       KE =        5.3726563072665314
-------------------------------------
     Etot =       -6.7720898787916610
       TS =        0.0025713485716869
-------------------------------------
        F =       -6.7746612273633477

IonicMinimize: Iter:   0  F: -6.774661227363348  |grad|_K:  0.000e+00  t[s]:      6.18
IonicMinimize: Converged (|grad|_K<1.000000e-04).

#--- Lowdin population analysis ---
# oxidation-state Li +1.420

End date and time: Sun Jan 16 15:06:57 2022  (Duration: 0-0:00:06.19)
Done!
