3.17
--------------------------------------------------------------------------
The library attempted to open the following supporting CUDA libraries,
but each of them failed.  CUDA-aware support is disabled.
libcuda.so.1: cannot open shared object file: No such file or directory
libcuda.dylib: cannot open shared object file: No such file or directory
/usr/lib64/libcuda.so.1: cannot open shared object file: No such file or directory
/usr/lib64/libcuda.dylib: cannot open shared object file: No such file or directory
If you are not interested in CUDA-aware support, then run with
--mca opal_warn_on_missing_libcuda 0 to suppress this message.  If you are interested
in CUDA-aware support, then try setting LD_LIBRARY_PATH to the location
of libcuda.so.1 to get passed this issue.
--------------------------------------------------------------------------
--------------------------------------------------------------------------
No OpenFabrics connection schemes reported that they were able to be
used on a specific port.  As such, the openib BTL (OpenFabrics
support) will be disabled for this port.

  Local host:           d-16-6-2
  Local device:         mlx5_1
  Local port:           1
  CPCs attempted:       rdmacm, udcm
--------------------------------------------------------------------------

*************** JDFTx 1.6.0 (git hash 42ebbcc2) ***************

Start date and time: Sun Jan 16 15:09:16 2022
Executable jdftx with command-line: -i Lithium.in
Running on hosts (process indices):  d-16-6-2 (0-18)
Divided in process groups (process indices):  0 (0)  1 (1)  2 (2)  3 (3)  4 (4)  5 (5)  6 (6)  7 (7)  8 (8)  9 (9)  10 (10)  11 (11)  12 (12)  13 (13)  14 (14)  15 (15)  16 (16)  17 (17)  18 (18)
Resource initialization completed at t[s]:      0.00
Run totals: 19 processes, 48 threads, 0 GPUs


Input parsed successfully to the following command list (including defaults):

basis kpoint-dependent
coords-type Lattice
core-overlap-check vector
coulomb-interaction Slab 001
davidson-band-ratio 1.1
dump End None
dump-name $INPUT.$VAR
elec-cutoff 20
elec-eigen-algo Davidson
elec-ex-corr gga-PBE
elec-smearing Fermi 0.01
electronic-minimize  \
	dirUpdateScheme      FletcherReeves \
	linminMethod         DirUpdateRecommended \
	nIterations          100 \
	history              15 \
	knormThreshold       0 \
	energyDiffThreshold  1e-08 \
	nEnergyDiff          2 \
	alphaTstart          1 \
	alphaTmin            1e-10 \
	updateTestStepSize   yes \
	alphaTreduceFactor   0.1 \
	alphaTincreaseFactor 3 \
	nAlphaAdjustMax      3 \
	wolfeEnergy          0.0001 \
	wolfeGradient        0.9 \
	fdTest               no
electronic-scf  \
	nIterations	10000 \
	energyDiffThreshold	1e-08 \
	residualThreshold	1e-07 \
	mixFraction	0.5 \
	qMetric	0.8 \
	history	10 \
	nEigSteps	2 \
	eigDiffThreshold	1e-08 \
	mixedVariable	Density \
	qKerker	0.8 \
	qKappa	-1 \
	verbose	no \
	mixFractionMag	1.5
exchange-regularization WignerSeitzTruncated
fluid None
fluid-ex-corr (null) lda-PZ
fluid-gummel-loop 10 1.000000e-05
fluid-minimize  \
	dirUpdateScheme      PolakRibiere \
	linminMethod         DirUpdateRecommended \
	nIterations          100 \
	history              15 \
	knormThreshold       0 \
	energyDiffThreshold  0 \
	nEnergyDiff          2 \
	alphaTstart          1 \
	alphaTmin            1e-10 \
	updateTestStepSize   yes \
	alphaTreduceFactor   0.1 \
	alphaTincreaseFactor 3 \
	nAlphaAdjustMax      3 \
	wolfeEnergy          0.0001 \
	wolfeGradient        0.9 \
	fdTest               no
fluid-solvent H2O 55.338 ScalarEOS \
	epsBulk 78.4 \
	pMol 0.92466 \
	epsInf 1.77 \
	Pvap 1.06736e-10 \
	sigmaBulk 4.62e-05 \
	Rvdw 2.61727 \
	Res 1.42 \
	tauNuc 343133 \
	poleEl 15 7 1
forces-output-coords Positions
ion Li   0.000000000000000   0.000000000000000   0.000000000000000 0
ion-species SG15/$ID_ONCV_PBE.upf
ion-width 0
ionic-minimize  \
	dirUpdateScheme      L-BFGS \
	linminMethod         DirUpdateRecommended \
	nIterations          0 \
	history              15 \
	knormThreshold       0.0001 \
	energyDiffThreshold  1e-06 \
	nEnergyDiff          2 \
	alphaTstart          1 \
	alphaTmin            1e-10 \
	updateTestStepSize   yes \
	alphaTreduceFactor   0.1 \
	alphaTincreaseFactor 3 \
	nAlphaAdjustMax      3 \
	wolfeEnergy          0.0001 \
	wolfeGradient        0.9 \
	fdTest               no
kpoint   0.000000000000   0.000000000000   0.000000000000  1.00000000000000
kpoint-folding 12 12 1 
latt-move-scale 1 1 1
latt-scale 3.17 3.17 1 
lattice  \
	   4.727486978767153   -2.363743489383574    0.000000000000000  \
	  -0.000000000000000    4.094123819672498    0.000000000000000  \
	   0.000000000000000    0.000000000000000   40.000000000000000 
lattice-minimize  \
	dirUpdateScheme      L-BFGS \
	linminMethod         DirUpdateRecommended \
	nIterations          0 \
	history              15 \
	knormThreshold       0 \
	energyDiffThreshold  1e-06 \
	nEnergyDiff          2 \
	alphaTstart          1 \
	alphaTmin            1e-10 \
	updateTestStepSize   yes \
	alphaTreduceFactor   0.1 \
	alphaTincreaseFactor 3 \
	nAlphaAdjustMax      3 \
	wolfeEnergy          0.0001 \
	wolfeGradient        0.9 \
	fdTest               no
lcao-params -1 1e-06 0.01
pcm-variant GLSSA13
spintype no-spin
subspace-rotation-factor 1 yes
symmetries automatic
symmetry-threshold 0.0001



---------- Setting up symmetries ----------

Found 24 point-group symmetries of the bravais lattice
Found 24 space-group symmetries with basis
Applied RMS atom displacement 0 bohrs to make symmetries exact.

---------- Initializing the Grid ----------
R = 
[      14.9861     -7.49307            0  ]
[            0      12.9784            0  ]
[            0            0           40  ]
unit cell volume = 7779.83
G =
[   0.419267   0.242064         -0  ]
[          0   0.484127         -0  ]
[         -0         -0    0.15708  ]
Minimum fftbox size, Smin = [  64  64  164  ]
Chosen fftbox size, S = [  64  64  168  ]

---------- Exchange Correlation functional ----------
Initalized PBE GGA exchange.
Initalized PBE GGA correlation.

---------- Setting up pseudopotentials ----------
Width of ionic core gaussian charges (only for fluid interactions / plotting) set to 0

Reading pseudopotential file '/home/gridsan/aligho/DFT/build-Nov24/pseudopotentials/SG15/Li_ONCV_PBE.upf':
  'Li' pseudopotential, 'PBE' functional
  Generated using ONCVPSP code by D. R. Hamann
  Author: Martin Schlipf and Francois Gygi  Date: 150915.
  3 valence electrons, 2 orbitals, 4 projectors, 1328 radial grid points, with lMax = 1
  Transforming local potential to a uniform radial grid of dG=0.02 with 1501 points.
  Transforming nonlocal projectors to a uniform radial grid of dG=0.02 with 432 points.
    1S    l: 0   occupation:  2.0   eigenvalue: -1.905623
    2S    l: 0   occupation:  1.0   eigenvalue: -0.105624
  Transforming atomic orbitals to a uniform radial grid of dG=0.02 with 432 points.
  WARNING: large normalization error in atomic orbital 1s (integral: 0.000000).
  Core radius for overlap checks: 1.63 bohrs.
  Reading pulay file /home/gridsan/aligho/DFT/build-Nov24/pseudopotentials/SG15/Li_ONCV_PBE.pulay ... using dE_dnG = -1.230239e-02 computed for Ecut = 20.

Initialized 1 species with 1 total atoms.

Folded 1 k-points by 12x12x1 to 144 k-points.

---------- Setting up k-points, bands, fillings ----------
Reduced to 19 k-points under symmetry. 
Computing the number of bands and number of electrons
Calculating initial fillings.
nElectrons:   3.000000   nBands: 3   nStates: 19

----- Setting up reduced wavefunction bases (one per k-point) -----
average nbasis = 33237.229 , ideal nbasis = 33236.005

---------- Setting up coulomb interaction ----------
Initialized slab truncation along lattice direction 001

---------- Setting up 2D ewald sum ----------
Optimum gaussian width for ewald sums = 8.319697 bohr.
Real space sums over 289 unit cells with max indices [  8  8  0  ]
Reciprocal space sums over 81 terms with max indices [  4  4  0  ]

---------- Allocating electronic variables ----------
Initializing wave functions:  linear combination of atomic orbitals
Note: number of bands (3) exceeds available atomic orbitals (2)
Li pseudo-atom occupations:   s ( 2 1 )
	FillingsUpdate:  mu: +0.355579205  nElectrons: 3.000000
LCAOMinimize: Iter:   0  F: -1.2993099249825459  |grad|_K:  2.822e-03  alpha:  1.000e+00
[d-16-6-2:52444] 18 more processes have sent help message help-mpi-common-cuda.txt / dlopen failed
[d-16-6-2:52444] Set MCA parameter "orte_base_help_aggregate" to 0 to see all help / error messages
[d-16-6-2:52444] 18 more processes have sent help message help-mpi-btl-openib-cpc-base.txt / no cpcs for port
	FillingsUpdate:  mu: +0.355554431  nElectrons: 3.000000
LCAOMinimize: Iter:   1  F: -1.3000506938443059  |grad|_K:  8.750e-04  alpha:  1.215e+00  linmin:  1.810e-02  cgtest: -6.706e-01  t[s]:      5.84
LCAOMinimize: 	Bad step direction: g.d > 0.
LCAOMinimize: 	Undoing step.
LCAOMinimize: 	Step failed: resetting search direction.
	FillingsUpdate:  mu: +0.355554431  nElectrons: 3.000000
LCAOMinimize: Iter:   2  F: -1.3000506938443059  |grad|_K:  8.750e-04  alpha:  0.000e+00
	FillingsUpdate:  mu: +0.355561435  nElectrons: 3.000000
LCAOMinimize: Iter:   3  F: -1.3001114418442363  |grad|_K:  3.120e-05  alpha:  9.596e-01  linmin: -1.617e-02  cgtest:  1.046e+00  t[s]:      7.55
LCAOMinimize: Encountered beta<0, resetting CG.
	FillingsUpdate:  mu: +0.355561703  nElectrons: 3.000000
LCAOMinimize: Iter:   4  F: -1.3001115255604105  |grad|_K:  7.359e-07  alpha:  1.006e+00  linmin: -3.658e-03  cgtest:  7.242e-02  t[s]:      8.66
LCAOMinimize: Encountered beta<0, resetting CG.
	FillingsUpdate:  mu: +0.355561706  nElectrons: 3.000000
LCAOMinimize: Iter:   5  F: -1.3001115256031512  |grad|_K:  1.745e-08  alpha:  1.039e+00  linmin: -2.205e-02  cgtest:  4.019e-01  t[s]:      9.77
LCAOMinimize: Encountered beta<0, resetting CG.
LCAOMinimize: Converged (|Delta F|<1.000000e-06 for 2 iters).


---- Citations for features of the code used in this run ----

   Software package:
      R. Sundararaman, K. Letchworth-Weaver, K.A. Schwarz, D. Gunceler, Y. Ozhabes and T.A. Arias, 'JDFTx: software for joint density-functional theory', SoftwareX 6, 278 (2017)

   gga-PBE exchange-correlation functional:
      J.P. Perdew, K. Burke and M. Ernzerhof, Phys. Rev. Lett. 77, 3865 (1996)

   Pseudopotentials:
      M Schlipf and F Gygi, Comput. Phys. Commun. 196, 36 (2015)

   Truncated Coulomb potentials:
      R. Sundararaman and T.A. Arias, Phys. Rev. B 87, 165122 (2013)

This list may not be complete. Please suggest additional citations or
report any other bugs at https://github.com/shankar1729/jdftx/issues

Initialization completed successfully at t[s]:      9.83


-------- Electronic minimization -----------
Will mix electronic density at each iteration.
	FillingsUpdate:  mu: +0.355561706  nElectrons: 3.000000
	FillingsUpdate:  mu: -0.672035885  nElectrons: 3.000000
SCF: Cycle:  0   F: -6.886925528320726   dF: -5.587e+00   |Residual|: 1.222e+00   |deigs|: 4.162e+00  t[s]:     11.70
	FillingsUpdate:  mu: -0.558782881  nElectrons: 3.000000
SCF: Cycle:  1   F: -6.928149946556896   dF: -4.122e-02   |Residual|: 7.608e-01   |deigs|: 2.693e-01  t[s]:     13.13
	FillingsUpdate:  mu: -0.295034618  nElectrons: 3.000000
SCF: Cycle:  2   F: -7.054056366634880   dF: -1.259e-01   |Residual|: 3.249e-01   |deigs|: 7.213e-01  t[s]:     14.62
	FillingsUpdate:  mu: -0.341450987  nElectrons: 3.000000
SCF: Cycle:  3   F: -7.052563678014427   dF: +1.493e-03   |Residual|: 1.799e-01   |deigs|: 9.067e-02  t[s]:     16.11
	FillingsUpdate:  mu: -0.297965884  nElectrons: 3.000000
SCF: Cycle:  4   F: -7.048029973495018   dF: +4.534e-03   |Residual|: 1.407e-01   |deigs|: 3.750e-02  t[s]:     17.63
	FillingsUpdate:  mu: -0.293132609  nElectrons: 3.000000
SCF: Cycle:  5   F: -7.049943068518903   dF: -1.913e-03   |Residual|: 3.751e-02   |deigs|: 3.544e-02  t[s]:     19.21
	FillingsUpdate:  mu: -0.201211294  nElectrons: 3.000000
SCF: Cycle:  6   F: -7.055818054126402   dF: -5.875e-03   |Residual|: 1.723e-01   |deigs|: 1.908e-01  t[s]:     20.83
	FillingsUpdate:  mu: -0.254678213  nElectrons: 3.000000
SCF: Cycle:  7   F: -7.055565104527119   dF: +2.529e-04   |Residual|: 1.168e-01   |deigs|: 1.744e-01  t[s]:     22.47
	FillingsUpdate:  mu: -0.216431419  nElectrons: 3.000000
SCF: Cycle:  8   F: -7.051541152171853   dF: +4.024e-03   |Residual|: 3.932e-01   |deigs|: 8.187e-02  t[s]:     24.17
	FillingsUpdate:  mu: -0.145089542  nElectrons: 3.000000
SCF: Cycle:  9   F: -7.044663581991301   dF: +6.878e-03   |Residual|: 4.064e-01   |deigs|: 2.790e-01  t[s]:     25.88
	FillingsUpdate:  mu: -0.145734868  nElectrons: 3.000000
SCF: Cycle: 10   F: -7.055758874083861   dF: -1.110e-02   |Residual|: 1.614e-01   |deigs|: 6.315e-02  t[s]:     27.62
	FillingsUpdate:  mu: -0.151789594  nElectrons: 3.000000
SCF: Cycle: 11   F: -7.058072586853525   dF: -2.314e-03   |Residual|: 1.901e-02   |deigs|: 4.963e-02  t[s]:     29.41
	FillingsUpdate:  mu: -0.099957577  nElectrons: 3.000000
SCF: Cycle: 12   F: -7.057673463244599   dF: +3.991e-04   |Residual|: 2.159e-02   |deigs|: 7.477e-02  t[s]:     31.19
	FillingsUpdate:  mu: -0.107513774  nElectrons: 3.000000
SCF: Cycle: 13   F: -7.058134237077999   dF: -4.608e-04   |Residual|: 1.153e-02   |deigs|: 1.844e-02  t[s]:     32.94
	FillingsUpdate:  mu: -0.108509129  nElectrons: 3.000000
SCF: Cycle: 14   F: -7.058337824588549   dF: -2.036e-04   |Residual|: 3.016e-03   |deigs|: 1.708e-03  t[s]:     34.67
	FillingsUpdate:  mu: -0.108897012  nElectrons: 3.000000
SCF: Cycle: 15   F: -7.058438855501659   dF: -1.010e-04   |Residual|: 3.333e-03   |deigs|: 4.571e-03  t[s]:     36.40
	FillingsUpdate:  mu: -0.108094476  nElectrons: 3.000000
SCF: Cycle: 16   F: -7.058461400626913   dF: -2.255e-05   |Residual|: 2.000e-03   |deigs|: 2.021e-03  t[s]:     38.13
	FillingsUpdate:  mu: -0.105161415  nElectrons: 3.000000
SCF: Cycle: 17   F: -7.058483185844324   dF: -2.179e-05   |Residual|: 1.304e-03   |deigs|: 5.383e-03  t[s]:     39.89
	FillingsUpdate:  mu: -0.106011846  nElectrons: 3.000000
SCF: Cycle: 18   F: -7.058484927813272   dF: -1.742e-06   |Residual|: 2.602e-04   |deigs|: 1.676e-03  t[s]:     41.60
	FillingsUpdate:  mu: -0.106240976  nElectrons: 3.000000
SCF: Cycle: 19   F: -7.058485857848974   dF: -9.300e-07   |Residual|: 1.646e-04   |deigs|: 2.923e-04  t[s]:     43.32
	FillingsUpdate:  mu: -0.106355999  nElectrons: 3.000000
SCF: Cycle: 20   F: -7.058486581888721   dF: -7.240e-07   |Residual|: 1.010e-04   |deigs|: 1.833e-04  t[s]:     45.07
	FillingsUpdate:  mu: -0.106323709  nElectrons: 3.000000
SCF: Cycle: 21   F: -7.058486822246673   dF: -2.404e-07   |Residual|: 7.003e-05   |deigs|: 6.488e-05  t[s]:     46.81
	FillingsUpdate:  mu: -0.106240545  nElectrons: 3.000000
SCF: Cycle: 22   F: -7.058486966833426   dF: -1.446e-07   |Residual|: 3.529e-05   |deigs|: 7.970e-05  t[s]:     48.56
	FillingsUpdate:  mu: -0.106173120  nElectrons: 3.000000
SCF: Cycle: 23   F: -7.058487043172445   dF: -7.634e-08   |Residual|: 2.396e-05   |deigs|: 7.709e-05  t[s]:     50.29
	FillingsUpdate:  mu: -0.106202564  nElectrons: 3.000000
SCF: Cycle: 24   F: -7.058487097212120   dF: -5.404e-08   |Residual|: 1.320e-05   |deigs|: 4.060e-05  t[s]:     51.99
	FillingsUpdate:  mu: -0.106209284  nElectrons: 3.000000
SCF: Cycle: 25   F: -7.058487138553772   dF: -4.134e-08   |Residual|: 9.032e-06   |deigs|: 1.715e-05  t[s]:     53.74
	FillingsUpdate:  mu: -0.106216328  nElectrons: 3.000000
SCF: Cycle: 26   F: -7.058487169360686   dF: -3.081e-08   |Residual|: 5.759e-06   |deigs|: 1.378e-05  t[s]:     55.47
	FillingsUpdate:  mu: -0.106218857  nElectrons: 3.000000
SCF: Cycle: 27   F: -7.058487192912670   dF: -2.355e-08   |Residual|: 4.211e-06   |deigs|: 1.115e-05  t[s]:     57.17
	FillingsUpdate:  mu: -0.106217460  nElectrons: 3.000000
SCF: Cycle: 28   F: -7.058487211129976   dF: -1.822e-08   |Residual|: 2.901e-06   |deigs|: 7.748e-06  t[s]:     58.91
	FillingsUpdate:  mu: -0.106208680  nElectrons: 3.000000
SCF: Cycle: 29   F: -7.058487225385570   dF: -1.426e-08   |Residual|: 1.948e-06   |deigs|: 1.017e-05  t[s]:     60.63
	FillingsUpdate:  mu: -0.106210160  nElectrons: 3.000000
SCF: Cycle: 30   F: -7.058487236129888   dF: -1.074e-08   |Residual|: 1.590e-06   |deigs|: 5.369e-06  t[s]:     62.30
	FillingsUpdate:  mu: -0.106211356  nElectrons: 3.000000
SCF: Cycle: 31   F: -7.058487244050385   dF: -7.920e-09   |Residual|: 7.561e-07   |deigs|: 4.124e-06  t[s]:     63.97
	FillingsUpdate:  mu: -0.106210775  nElectrons: 3.000000
SCF: Cycle: 32   F: -7.058487263934587   dF: -1.988e-08   |Residual|: 8.443e-07   |deigs|: 1.226e-05  t[s]:     65.64
	FillingsUpdate:  mu: -0.106210761  nElectrons: 3.000000
SCF: Cycle: 33   F: -7.058487287911181   dF: -2.398e-08   |Residual|: 8.333e-07   |deigs|: 1.662e-05  t[s]:     67.25
	FillingsUpdate:  mu: -0.106210119  nElectrons: 3.000000
SCF: Cycle: 34   F: -7.058487298051123   dF: -1.014e-08   |Residual|: 1.485e-06   |deigs|: 6.160e-06  t[s]:     68.88
	FillingsUpdate:  mu: -0.106210250  nElectrons: 3.000000
SCF: Cycle: 35   F: -7.058487308324987   dF: -1.027e-08   |Residual|: 1.278e-06   |deigs|: 6.546e-06  t[s]:     70.46
	FillingsUpdate:  mu: -0.106210701  nElectrons: 3.000000
SCF: Cycle: 36   F: -7.058487319297544   dF: -1.097e-08   |Residual|: 1.455e-06   |deigs|: 7.625e-06  t[s]:     72.02
	FillingsUpdate:  mu: -0.106210795  nElectrons: 3.000000
SCF: Cycle: 37   F: -7.058487329642536   dF: -1.034e-08   |Residual|: 1.661e-06   |deigs|: 7.369e-06  t[s]:     73.60
	FillingsUpdate:  mu: -0.106210902  nElectrons: 3.000000
SCF: Cycle: 38   F: -7.058487390049489   dF: -6.041e-08   |Residual|: 3.951e-06   |deigs|: 4.690e-05  t[s]:     75.15
	FillingsUpdate:  mu: -0.106211456  nElectrons: 3.000000
SCF: Cycle: 39   F: -7.058487434941022   dF: -4.489e-08   |Residual|: 4.117e-06   |deigs|: 3.381e-05  t[s]:     76.71
	FillingsUpdate:  mu: -0.106211814  nElectrons: 3.000000
SCF: Cycle: 40   F: -7.058487439375114   dF: -4.434e-09   |Residual|: 4.311e-06   |deigs|: 2.987e-06  t[s]:     78.27
	FillingsUpdate:  mu: -0.106211572  nElectrons: 3.000000
SCF: Cycle: 41   F: -7.058487442864080   dF: -3.489e-09   |Residual|: 4.601e-06   |deigs|: 2.265e-06  t[s]:     79.85
SCF: Converged (|Delta E|<1.000000e-08 for 2 iters).


# Ionic positions in lattice coordinates:
ion Li   0.000000000000000   0.000000000000000   0.000000000000000 0

# Forces in Lattice coordinates:
force Li   0.000000000000000   0.000000000000000   0.000000000000000 0

# Energy components:
   Eewald =       -1.2651963617478212
       EH =        2.2818151095412595
     Eloc =       -7.6962887944742659
      Enl =       -3.6026929183799692
   Epulay =        0.0000019351122759
      Exc =       -1.5339377930359914
       KE =        4.7719690209826036
-------------------------------------
     Etot =       -7.0443298020019069
       TS =        0.0141576408621733
-------------------------------------
        F =       -7.0584874428640800

IonicMinimize: Iter:   0  F: -7.058487442864080  |grad|_K:  0.000e+00  t[s]:     79.97
IonicMinimize: Converged (|grad|_K<1.000000e-04).

#--- Lowdin population analysis ---
# oxidation-state Li +2.090

End date and time: Sun Jan 16 15:10:36 2022  (Duration: 0-0:01:19.98)
Done!
