2.63
--------------------------------------------------------------------------
The library attempted to open the following supporting CUDA libraries,
but each of them failed.  CUDA-aware support is disabled.
libcuda.so.1: cannot open shared object file: No such file or directory
libcuda.dylib: cannot open shared object file: No such file or directory
/usr/lib64/libcuda.so.1: cannot open shared object file: No such file or directory
/usr/lib64/libcuda.dylib: cannot open shared object file: No such file or directory
If you are not interested in CUDA-aware support, then run with
--mca opal_warn_on_missing_libcuda 0 to suppress this message.  If you are interested
in CUDA-aware support, then try setting LD_LIBRARY_PATH to the location
of libcuda.so.1 to get passed this issue.
--------------------------------------------------------------------------
--------------------------------------------------------------------------
No OpenFabrics connection schemes reported that they were able to be
used on a specific port.  As such, the openib BTL (OpenFabrics
support) will be disabled for this port.

  Local host:           d-17-12-4
  Local device:         mlx5_1
  Local port:           1
  CPCs attempted:       rdmacm, udcm
--------------------------------------------------------------------------

*************** JDFTx 1.6.0 (git hash 42ebbcc2) ***************

Start date and time: Sun Jan 16 15:08:41 2022
Executable jdftx with command-line: -i Lithium.in
Running on hosts (process indices):  d-17-12-4 (0-18)
Divided in process groups (process indices):  0 (0)  1 (1)  2 (2)  3 (3)  4 (4)  5 (5)  6 (6)  7 (7)  8 (8)  9 (9)  10 (10)  11 (11)  12 (12)  13 (13)  14 (14)  15 (15)  16 (16)  17 (17)  18 (18)
Resource initialization completed at t[s]:      0.00
Run totals: 19 processes, 48 threads, 0 GPUs


Input parsed successfully to the following command list (including defaults):

basis kpoint-dependent
coords-type Lattice
core-overlap-check vector
coulomb-interaction Slab 001
davidson-band-ratio 1.1
dump End None
dump-name $INPUT.$VAR
elec-cutoff 20
elec-eigen-algo Davidson
elec-ex-corr gga-PBE
elec-smearing Fermi 0.01
electronic-minimize  \
	dirUpdateScheme      FletcherReeves \
	linminMethod         DirUpdateRecommended \
	nIterations          100 \
	history              15 \
	knormThreshold       0 \
	energyDiffThreshold  1e-08 \
	nEnergyDiff          2 \
	alphaTstart          1 \
	alphaTmin            1e-10 \
	updateTestStepSize   yes \
	alphaTreduceFactor   0.1 \
	alphaTincreaseFactor 3 \
	nAlphaAdjustMax      3 \
	wolfeEnergy          0.0001 \
	wolfeGradient        0.9 \
	fdTest               no
electronic-scf  \
	nIterations	10000 \
	energyDiffThreshold	1e-08 \
	residualThreshold	1e-07 \
	mixFraction	0.5 \
	qMetric	0.8 \
	history	10 \
	nEigSteps	2 \
	eigDiffThreshold	1e-08 \
	mixedVariable	Density \
	qKerker	0.8 \
	qKappa	-1 \
	verbose	no \
	mixFractionMag	1.5
exchange-regularization WignerSeitzTruncated
fluid None
fluid-ex-corr (null) lda-PZ
fluid-gummel-loop 10 1.000000e-05
fluid-minimize  \
	dirUpdateScheme      PolakRibiere \
	linminMethod         DirUpdateRecommended \
	nIterations          100 \
	history              15 \
	knormThreshold       0 \
	energyDiffThreshold  0 \
	nEnergyDiff          2 \
	alphaTstart          1 \
	alphaTmin            1e-10 \
	updateTestStepSize   yes \
	alphaTreduceFactor   0.1 \
	alphaTincreaseFactor 3 \
	nAlphaAdjustMax      3 \
	wolfeEnergy          0.0001 \
	wolfeGradient        0.9 \
	fdTest               no
fluid-solvent H2O 55.338 ScalarEOS \
	epsBulk 78.4 \
	pMol 0.92466 \
	epsInf 1.77 \
	Pvap 1.06736e-10 \
	sigmaBulk 4.62e-05 \
	Rvdw 2.61727 \
	Res 1.42 \
	tauNuc 343133 \
	poleEl 15 7 1
forces-output-coords Positions
ion Li   0.000000000000000   0.000000000000000   0.000000000000000 0
ion-species SG15/$ID_ONCV_PBE.upf
ion-width 0
ionic-minimize  \
	dirUpdateScheme      L-BFGS \
	linminMethod         DirUpdateRecommended \
	nIterations          0 \
	history              15 \
	knormThreshold       0.0001 \
	energyDiffThreshold  1e-06 \
	nEnergyDiff          2 \
	alphaTstart          1 \
	alphaTmin            1e-10 \
	updateTestStepSize   yes \
	alphaTreduceFactor   0.1 \
	alphaTincreaseFactor 3 \
	nAlphaAdjustMax      3 \
	wolfeEnergy          0.0001 \
	wolfeGradient        0.9 \
	fdTest               no
kpoint   0.000000000000   0.000000000000   0.000000000000  1.00000000000000
kpoint-folding 12 12 1 
latt-move-scale 1 1 1
latt-scale 2.63 2.63 1 
lattice  \
	   4.727486978767153   -2.363743489383575    0.000000000000000  \
	  -0.000000000000000    4.094123819672498    0.000000000000000  \
	   0.000000000000000    0.000000000000000   40.000000000000000 
lattice-minimize  \
	dirUpdateScheme      L-BFGS \
	linminMethod         DirUpdateRecommended \
	nIterations          0 \
	history              15 \
	knormThreshold       0 \
	energyDiffThreshold  1e-06 \
	nEnergyDiff          2 \
	alphaTstart          1 \
	alphaTmin            1e-10 \
	updateTestStepSize   yes \
	alphaTreduceFactor   0.1 \
	alphaTincreaseFactor 3 \
	nAlphaAdjustMax      3 \
	wolfeEnergy          0.0001 \
	wolfeGradient        0.9 \
	fdTest               no
lcao-params -1 1e-06 0.01
pcm-variant GLSSA13
spintype no-spin
subspace-rotation-factor 1 yes
symmetries automatic
symmetry-threshold 0.0001



---------- Setting up symmetries ----------

Found 24 point-group symmetries of the bravais lattice
Found 24 space-group symmetries with basis
Applied RMS atom displacement 0 bohrs to make symmetries exact.

---------- Initializing the Grid ----------
R = 
[      12.4333     -6.21665            0  ]
[            0      10.7675            0  ]
[            0            0           40  ]
unit cell volume = 5355.04
G =
[   0.505352   0.291765         -0  ]
[          0    0.58353         -0  ]
[         -0         -0    0.15708  ]
Minimum fftbox size, Smin = [  52  52  164  ]
Chosen fftbox size, S = [  54  54  168  ]

---------- Exchange Correlation functional ----------
Initalized PBE GGA exchange.
Initalized PBE GGA correlation.

---------- Setting up pseudopotentials ----------
Width of ionic core gaussian charges (only for fluid interactions / plotting) set to 0

Reading pseudopotential file '/home/gridsan/aligho/DFT/build-Nov24/pseudopotentials/SG15/Li_ONCV_PBE.upf':
  'Li' pseudopotential, 'PBE' functional
  Generated using ONCVPSP code by D. R. Hamann
  Author: Martin Schlipf and Francois Gygi  Date: 150915.
  3 valence electrons, 2 orbitals, 4 projectors, 1328 radial grid points, with lMax = 1
  Transforming local potential to a uniform radial grid of dG=0.02 with 1521 points.
  Transforming nonlocal projectors to a uniform radial grid of dG=0.02 with 432 points.
    1S    l: 0   occupation:  2.0   eigenvalue: -1.905623
    2S    l: 0   occupation:  1.0   eigenvalue: -0.105624
  Transforming atomic orbitals to a uniform radial grid of dG=0.02 with 432 points.
  WARNING: large normalization error in atomic orbital 1s (integral: 0.000000).
  Core radius for overlap checks: 1.63 bohrs.
  Reading pulay file /home/gridsan/aligho/DFT/build-Nov24/pseudopotentials/SG15/Li_ONCV_PBE.pulay ... using dE_dnG = -1.230239e-02 computed for Ecut = 20.

Initialized 1 species with 1 total atoms.

Folded 1 k-points by 12x12x1 to 144 k-points.

---------- Setting up k-points, bands, fillings ----------
Reduced to 19 k-points under symmetry. 
Computing the number of bands and number of electrons
Calculating initial fillings.
nElectrons:   3.000000   nBands: 3   nStates: 19

----- Setting up reduced wavefunction bases (one per k-point) -----
average nbasis = 22880.354 , ideal nbasis = 22877.143

---------- Setting up coulomb interaction ----------
Initialized slab truncation along lattice direction 001

---------- Setting up 2D ewald sum ----------
Optimum gaussian width for ewald sums = 6.902461 bohr.
Real space sums over 289 unit cells with max indices [  8  8  0  ]
Reciprocal space sums over 81 terms with max indices [  4  4  0  ]

---------- Allocating electronic variables ----------
Initializing wave functions:  linear combination of atomic orbitals
Note: number of bands (3) exceeds available atomic orbitals (2)
Li pseudo-atom occupations:   s ( 2 1 )
	FillingsUpdate:  mu: +0.346535321  nElectrons: 3.000000
LCAOMinimize: Iter:   0  F: -1.2606822363576617  |grad|_K:  2.298e-03  alpha:  1.000e+00
LCAOMinimize: 	Step increased F by 2.976529e-03, reducing alpha to 1.982306e-01.
	FillingsUpdate:  mu: +0.346533772  nElectrons: 3.000000
LCAOMinimize: Iter:   1  F: -1.2608586518176526  |grad|_K:  2.027e-03  alpha:  1.982e-01  linmin: -1.177e-02  cgtest:  9.117e-01  t[s]:      4.31
LCAOMinimize: Encountered beta<0, resetting CG.
LCAOMinimize: 	Predicted alpha/alphaT>3.000000, increasing alphaT to 5.946918e-01.
[d-17-12-4:34006] 18 more processes have sent help message help-mpi-common-cuda.txt / dlopen failed
[d-17-12-4:34006] Set MCA parameter "orte_base_help_aggregate" to 0 to see all help / error messages
[d-17-12-4:34006] 18 more processes have sent help message help-mpi-btl-openib-cpc-base.txt / no cpcs for port
LCAOMinimize: 	Predicted alpha/alphaT>3.000000, increasing alphaT to 1.784075e+00.
	FillingsUpdate:  mu: +0.346528356  nElectrons: 3.000000
LCAOMinimize: Iter:   2  F: -1.2612305552349412  |grad|_K:  1.125e-03  alpha:  5.851e-01  linmin: -1.564e-02  cgtest:  7.579e-01  t[s]:      6.04
LCAOMinimize: Encountered beta<0, resetting CG.
	FillingsUpdate:  mu: +0.346517251  nElectrons: 3.000000
LCAOMinimize: Iter:   3  F: -1.2613165355698523  |grad|_K:  7.246e-04  alpha:  1.451e+00  linmin:  1.929e-02  cgtest: -6.939e-01  t[s]:      6.94
LCAOMinimize: 	Bad step direction: g.d > 0.
LCAOMinimize: 	Undoing step.
LCAOMinimize: 	Step failed: resetting search direction.
	FillingsUpdate:  mu: +0.346517251  nElectrons: 3.000000
LCAOMinimize: Iter:   4  F: -1.2613165355698523  |grad|_K:  7.246e-04  alpha:  0.000e+00
	FillingsUpdate:  mu: +0.346521277  nElectrons: 3.000000
LCAOMinimize: Iter:   5  F: -1.2613580037754857  |grad|_K:  9.909e-06  alpha:  9.884e-01  linmin: -1.703e-02  cgtest:  5.917e-01  t[s]:      8.37
LCAOMinimize: Encountered beta<0, resetting CG.
	FillingsUpdate:  mu: +0.346521378  nElectrons: 3.000000
LCAOMinimize: Iter:   6  F: -1.2613580125542319  |grad|_K:  2.325e-07  alpha:  1.046e+00  linmin: -2.535e-04  cgtest:  5.123e-03  t[s]:      9.32
	FillingsUpdate:  mu: +0.346521378  nElectrons: 3.000000
LCAOMinimize: Iter:   7  F: -1.2613580125560135  |grad|_K:  3.396e-08  alpha:  8.640e-01  linmin: -2.253e-02  cgtest:  9.984e-01  t[s]:     10.25
LCAOMinimize: Encountered beta<0, resetting CG.
LCAOMinimize: Converged (|Delta F|<1.000000e-06 for 2 iters).


---- Citations for features of the code used in this run ----

   Software package:
      R. Sundararaman, K. Letchworth-Weaver, K.A. Schwarz, D. Gunceler, Y. Ozhabes and T.A. Arias, 'JDFTx: software for joint density-functional theory', SoftwareX 6, 278 (2017)

   gga-PBE exchange-correlation functional:
      J.P. Perdew, K. Burke and M. Ernzerhof, Phys. Rev. Lett. 77, 3865 (1996)

   Pseudopotentials:
      M Schlipf and F Gygi, Comput. Phys. Commun. 196, 36 (2015)

   Truncated Coulomb potentials:
      R. Sundararaman and T.A. Arias, Phys. Rev. B 87, 165122 (2013)

This list may not be complete. Please suggest additional citations or
report any other bugs at https://github.com/shankar1729/jdftx/issues

Initialization completed successfully at t[s]:     10.30


-------- Electronic minimization -----------
Will mix electronic density at each iteration.
	FillingsUpdate:  mu: +0.346521378  nElectrons: 3.000000
	FillingsUpdate:  mu: -0.765292736  nElectrons: 3.000000
SCF: Cycle:  0   F: -6.887070374033467   dF: -5.626e+00   |Residual|: 1.212e+00   |deigs|: 4.162e+00  t[s]:     11.85
	FillingsUpdate:  mu: -0.653945665  nElectrons: 3.000000
SCF: Cycle:  1   F: -6.927895732980664   dF: -4.083e-02   |Residual|: 7.646e-01   |deigs|: 2.636e-01  t[s]:     13.02
	FillingsUpdate:  mu: -0.393112959  nElectrons: 3.000000
SCF: Cycle:  2   F: -7.052350043867697   dF: -1.245e-01   |Residual|: 3.469e-01   |deigs|: 7.362e-01  t[s]:     14.23
	FillingsUpdate:  mu: -0.438601783  nElectrons: 3.000000
SCF: Cycle:  3   F: -7.053815168613851   dF: -1.465e-03   |Residual|: 1.824e-01   |deigs|: 1.021e-01  t[s]:     15.42
	FillingsUpdate:  mu: -0.393500165  nElectrons: 3.000000
SCF: Cycle:  4   F: -7.048543376528182   dF: +5.272e-03   |Residual|: 1.390e-01   |deigs|: 4.032e-02  t[s]:     16.68
	FillingsUpdate:  mu: -0.386704020  nElectrons: 3.000000
SCF: Cycle:  5   F: -7.050229441052864   dF: -1.686e-03   |Residual|: 5.046e-02   |deigs|: 3.309e-02  t[s]:     17.96
	FillingsUpdate:  mu: -0.260098099  nElectrons: 3.000000
SCF: Cycle:  6   F: -7.056973506434134   dF: -6.744e-03   |Residual|: 2.014e-01   |deigs|: 2.362e-01  t[s]:     19.25
	FillingsUpdate:  mu: -0.290671856  nElectrons: 3.000000
SCF: Cycle:  7   F: -7.056827466921035   dF: +1.460e-04   |Residual|: 2.043e-01   |deigs|: 2.065e-01  t[s]:     20.61
	FillingsUpdate:  mu: -0.243923465  nElectrons: 3.000000
SCF: Cycle:  8   F: -7.054556704493003   dF: +2.271e-03   |Residual|: 3.191e-01   |deigs|: 3.972e-02  t[s]:     21.97
	FillingsUpdate:  mu: -0.163638238  nElectrons: 3.000000
SCF: Cycle:  9   F: -7.048875778142609   dF: +5.681e-03   |Residual|: 3.551e-01   |deigs|: 2.432e-01  t[s]:     23.36
	FillingsUpdate:  mu: -0.152481178  nElectrons: 3.000000
SCF: Cycle: 10   F: -7.057541212953326   dF: -8.665e-03   |Residual|: 6.097e-02   |deigs|: 8.548e-02  t[s]:     24.78
	FillingsUpdate:  mu: -0.154491461  nElectrons: 3.000000
SCF: Cycle: 11   F: -7.059376241752896   dF: -1.835e-03   |Residual|: 2.463e-02   |deigs|: 9.056e-03  t[s]:     26.16
	FillingsUpdate:  mu: -0.154780812  nElectrons: 3.000000
SCF: Cycle: 12   F: -7.059840592536665   dF: -4.644e-04   |Residual|: 3.605e-02   |deigs|: 1.810e-03  t[s]:     27.55
	FillingsUpdate:  mu: -0.096058315  nElectrons: 3.000000
SCF: Cycle: 13   F: -7.059993039078885   dF: -1.524e-04   |Residual|: 2.722e-02   |deigs|: 9.535e-02  t[s]:     28.96
	FillingsUpdate:  mu: -0.120045817  nElectrons: 3.000000
SCF: Cycle: 14   F: -7.060327747308861   dF: -3.347e-04   |Residual|: 9.163e-03   |deigs|: 4.916e-02  t[s]:     30.36
	FillingsUpdate:  mu: -0.110554417  nElectrons: 3.000000
SCF: Cycle: 15   F: -7.060392975369409   dF: -6.523e-05   |Residual|: 2.231e-03   |deigs|: 1.556e-02  t[s]:     31.77
	FillingsUpdate:  mu: -0.106511860  nElectrons: 3.000000
SCF: Cycle: 16   F: -7.060393163099515   dF: -1.877e-07   |Residual|: 2.394e-03   |deigs|: 7.485e-03  t[s]:     33.20
	FillingsUpdate:  mu: -0.108882727  nElectrons: 3.000000
SCF: Cycle: 17   F: -7.060417857743293   dF: -2.469e-05   |Residual|: 6.147e-04   |deigs|: 5.134e-03  t[s]:     34.60
	FillingsUpdate:  mu: -0.108304648  nElectrons: 3.000000
SCF: Cycle: 18   F: -7.060419852553285   dF: -1.995e-06   |Residual|: 3.433e-04   |deigs|: 1.095e-03  t[s]:     36.01
	FillingsUpdate:  mu: -0.107997493  nElectrons: 3.000000
SCF: Cycle: 19   F: -7.060420419143636   dF: -5.666e-07   |Residual|: 2.032e-04   |deigs|: 2.513e-04  t[s]:     37.41
	FillingsUpdate:  mu: -0.108056846  nElectrons: 3.000000
SCF: Cycle: 20   F: -7.060421015168081   dF: -5.960e-07   |Residual|: 9.370e-05   |deigs|: 1.936e-04  t[s]:     38.80
	FillingsUpdate:  mu: -0.108190258  nElectrons: 3.000000
SCF: Cycle: 21   F: -7.060421369969141   dF: -3.548e-07   |Residual|: 5.554e-05   |deigs|: 1.515e-04  t[s]:     40.19
	FillingsUpdate:  mu: -0.108251203  nElectrons: 3.000000
SCF: Cycle: 22   F: -7.060421602360307   dF: -2.324e-07   |Residual|: 4.065e-05   |deigs|: 8.625e-05  t[s]:     41.56
	FillingsUpdate:  mu: -0.108262223  nElectrons: 3.000000
SCF: Cycle: 23   F: -7.060421704239461   dF: -1.019e-07   |Residual|: 2.189e-05   |deigs|: 4.285e-05  t[s]:     42.93
	FillingsUpdate:  mu: -0.108266298  nElectrons: 3.000000
SCF: Cycle: 24   F: -7.060421760727503   dF: -5.649e-08   |Residual|: 1.016e-05   |deigs|: 2.675e-05  t[s]:     44.28
	FillingsUpdate:  mu: -0.108276900  nElectrons: 3.000000
SCF: Cycle: 25   F: -7.060421788833446   dF: -2.811e-08   |Residual|: 5.444e-06   |deigs|: 1.776e-05  t[s]:     45.64
	FillingsUpdate:  mu: -0.108275919  nElectrons: 3.000000
SCF: Cycle: 26   F: -7.060421805885079   dF: -1.705e-08   |Residual|: 3.870e-06   |deigs|: 7.735e-06  t[s]:     47.03
	FillingsUpdate:  mu: -0.108280881  nElectrons: 3.000000
SCF: Cycle: 27   F: -7.060421818445788   dF: -1.256e-08   |Residual|: 2.876e-06   |deigs|: 7.956e-06  t[s]:     48.42
	FillingsUpdate:  mu: -0.108280846  nElectrons: 3.000000
SCF: Cycle: 28   F: -7.060421825336562   dF: -6.891e-09   |Residual|: 2.258e-06   |deigs|: 4.076e-06  t[s]:     49.80
	FillingsUpdate:  mu: -0.108283995  nElectrons: 3.000000
SCF: Cycle: 29   F: -7.060421981921993   dF: -1.566e-07   |Residual|: 4.477e-06   |deigs|: 1.495e-04  t[s]:     51.15
	FillingsUpdate:  mu: -0.108283320  nElectrons: 3.000000
SCF: Cycle: 30   F: -7.060422200012594   dF: -2.181e-07   |Residual|: 6.161e-06   |deigs|: 1.898e-04  t[s]:     52.45
	FillingsUpdate:  mu: -0.108283091  nElectrons: 3.000000
SCF: Cycle: 31   F: -7.060422217435109   dF: -1.742e-08   |Residual|: 6.347e-06   |deigs|: 1.359e-05  t[s]:     53.70
	FillingsUpdate:  mu: -0.108281878  nElectrons: 3.000000
SCF: Cycle: 32   F: -7.060422226200568   dF: -8.765e-09   |Residual|: 6.734e-06   |deigs|: 6.864e-06  t[s]:     55.09
	FillingsUpdate:  mu: -0.108286802  nElectrons: 3.000000
SCF: Cycle: 33   F: -7.060422232613290   dF: -6.413e-09   |Residual|: 6.488e-06   |deigs|: 8.199e-06  t[s]:     56.43
SCF: Converged (|Delta E|<1.000000e-08 for 2 iters).


# Ionic positions in lattice coordinates:
ion Li   0.000000000000000   0.000000000000000   0.000000000000000 0

# Forces in Lattice coordinates:
force Li  -0.000000000000000  -0.000000000000000   0.000000000000000 0

# Energy components:
   Eewald =       -1.5249705196732286
       EH =        2.0087750058991309
     Eloc =       -7.1583489603133268
      Enl =       -3.5994923910269376
   Epulay =        0.0000073763208984
      Exc =       -1.5315020656739007
       KE =        4.7584510945169551
-------------------------------------
     Etot =       -7.0470804599504095
       TS =        0.0133417726628808
-------------------------------------
        F =       -7.0604222326132904

IonicMinimize: Iter:   0  F: -7.060422232613290  |grad|_K:  0.000e+00  t[s]:     56.52
IonicMinimize: Converged (|grad|_K<1.000000e-04).

#--- Lowdin population analysis ---
# oxidation-state Li +2.125

End date and time: Sun Jan 16 15:09:37 2022  (Duration: 0-0:00:56.53)
Done!
