1.94
--------------------------------------------------------------------------
The library attempted to open the following supporting CUDA libraries,
but each of them failed.  CUDA-aware support is disabled.
libcuda.so.1: cannot open shared object file: No such file or directory
libcuda.dylib: cannot open shared object file: No such file or directory
/usr/lib64/libcuda.so.1: cannot open shared object file: No such file or directory
/usr/lib64/libcuda.dylib: cannot open shared object file: No such file or directory
If you are not interested in CUDA-aware support, then run with
--mca opal_warn_on_missing_libcuda 0 to suppress this message.  If you are interested
in CUDA-aware support, then try setting LD_LIBRARY_PATH to the location
of libcuda.so.1 to get passed this issue.
--------------------------------------------------------------------------
--------------------------------------------------------------------------
No OpenFabrics connection schemes reported that they were able to be
used on a specific port.  As such, the openib BTL (OpenFabrics
support) will be disabled for this port.

  Local host:           d-3-3-4
  Local device:         mlx5_1
  Local port:           1
  CPCs attempted:       rdmacm, udcm
--------------------------------------------------------------------------

*************** JDFTx 1.6.0 (git hash 42ebbcc2) ***************

Start date and time: Sun Jan 16 15:08:05 2022
Executable jdftx with command-line: -i Lithium.in
Running on hosts (process indices):  d-3-3-4 (0-18)
Divided in process groups (process indices):  0 (0)  1 (1)  2 (2)  3 (3)  4 (4)  5 (5)  6 (6)  7 (7)  8 (8)  9 (9)  10 (10)  11 (11)  12 (12)  13 (13)  14 (14)  15 (15)  16 (16)  17 (17)  18 (18)
Resource initialization completed at t[s]:      0.00
Run totals: 19 processes, 48 threads, 0 GPUs


Input parsed successfully to the following command list (including defaults):

basis kpoint-dependent
coords-type Lattice
core-overlap-check vector
coulomb-interaction Slab 001
davidson-band-ratio 1.1
dump End None
dump-name $INPUT.$VAR
elec-cutoff 20
elec-eigen-algo Davidson
elec-ex-corr gga-PBE
elec-smearing Fermi 0.01
electronic-minimize  \
	dirUpdateScheme      FletcherReeves \
	linminMethod         DirUpdateRecommended \
	nIterations          100 \
	history              15 \
	knormThreshold       0 \
	energyDiffThreshold  1e-08 \
	nEnergyDiff          2 \
	alphaTstart          1 \
	alphaTmin            1e-10 \
	updateTestStepSize   yes \
	alphaTreduceFactor   0.1 \
	alphaTincreaseFactor 3 \
	nAlphaAdjustMax      3 \
	wolfeEnergy          0.0001 \
	wolfeGradient        0.9 \
	fdTest               no
electronic-scf  \
	nIterations	10000 \
	energyDiffThreshold	1e-08 \
	residualThreshold	1e-07 \
	mixFraction	0.5 \
	qMetric	0.8 \
	history	10 \
	nEigSteps	2 \
	eigDiffThreshold	1e-08 \
	mixedVariable	Density \
	qKerker	0.8 \
	qKappa	-1 \
	verbose	no \
	mixFractionMag	1.5
exchange-regularization WignerSeitzTruncated
fluid None
fluid-ex-corr (null) lda-PZ
fluid-gummel-loop 10 1.000000e-05
fluid-minimize  \
	dirUpdateScheme      PolakRibiere \
	linminMethod         DirUpdateRecommended \
	nIterations          100 \
	history              15 \
	knormThreshold       0 \
	energyDiffThreshold  0 \
	nEnergyDiff          2 \
	alphaTstart          1 \
	alphaTmin            1e-10 \
	updateTestStepSize   yes \
	alphaTreduceFactor   0.1 \
	alphaTincreaseFactor 3 \
	nAlphaAdjustMax      3 \
	wolfeEnergy          0.0001 \
	wolfeGradient        0.9 \
	fdTest               no
fluid-solvent H2O 55.338 ScalarEOS \
	epsBulk 78.4 \
	pMol 0.92466 \
	epsInf 1.77 \
	Pvap 1.06736e-10 \
	sigmaBulk 4.62e-05 \
	Rvdw 2.61727 \
	Res 1.42 \
	tauNuc 343133 \
	poleEl 15 7 1
forces-output-coords Positions
ion Li   0.000000000000000   0.000000000000000   0.000000000000000 0
ion-species SG15/$ID_ONCV_PBE.upf
ion-width 0
ionic-minimize  \
	dirUpdateScheme      L-BFGS \
	linminMethod         DirUpdateRecommended \
	nIterations          0 \
	history              15 \
	knormThreshold       0.0001 \
	energyDiffThreshold  1e-06 \
	nEnergyDiff          2 \
	alphaTstart          1 \
	alphaTmin            1e-10 \
	updateTestStepSize   yes \
	alphaTreduceFactor   0.1 \
	alphaTincreaseFactor 3 \
	nAlphaAdjustMax      3 \
	wolfeEnergy          0.0001 \
	wolfeGradient        0.9 \
	fdTest               no
kpoint   0.000000000000   0.000000000000   0.000000000000  1.00000000000000
kpoint-folding 12 12 1 
latt-move-scale 1 1 1
latt-scale 1.94 1.94 1 
lattice  \
	   4.727486978767153   -2.363743489383575    0.000000000000000  \
	  -0.000000000000000    4.094123819672498    0.000000000000000  \
	   0.000000000000000    0.000000000000000   40.000000000000000 
lattice-minimize  \
	dirUpdateScheme      L-BFGS \
	linminMethod         DirUpdateRecommended \
	nIterations          0 \
	history              15 \
	knormThreshold       0 \
	energyDiffThreshold  1e-06 \
	nEnergyDiff          2 \
	alphaTstart          1 \
	alphaTmin            1e-10 \
	updateTestStepSize   yes \
	alphaTreduceFactor   0.1 \
	alphaTincreaseFactor 3 \
	nAlphaAdjustMax      3 \
	wolfeEnergy          0.0001 \
	wolfeGradient        0.9 \
	fdTest               no
lcao-params -1 1e-06 0.01
pcm-variant GLSSA13
spintype no-spin
subspace-rotation-factor 1 yes
symmetries automatic
symmetry-threshold 0.0001



---------- Setting up symmetries ----------

Found 24 point-group symmetries of the bravais lattice
Found 24 space-group symmetries with basis
Applied RMS atom displacement 0 bohrs to make symmetries exact.

---------- Initializing the Grid ----------
R = 
[      9.17132     -4.58566            0  ]
[            0       7.9426            0  ]
[            0            0           40  ]
unit cell volume = 2913.77
G =
[    0.68509   0.395537         -0  ]
[          0   0.791074         -0  ]
[         -0         -0    0.15708  ]
Minimum fftbox size, Smin = [  40  40  164  ]
Chosen fftbox size, S = [  40  40  168  ]

---------- Exchange Correlation functional ----------
Initalized PBE GGA exchange.
Initalized PBE GGA correlation.

---------- Setting up pseudopotentials ----------
Width of ionic core gaussian charges (only for fluid interactions / plotting) set to 0

Reading pseudopotential file '/home/gridsan/aligho/DFT/build-Nov24/pseudopotentials/SG15/Li_ONCV_PBE.upf':
  'Li' pseudopotential, 'PBE' functional
  Generated using ONCVPSP code by D. R. Hamann
  Author: Martin Schlipf and Francois Gygi  Date: 150915.
  3 valence electrons, 2 orbitals, 4 projectors, 1328 radial grid points, with lMax = 1
  Transforming local potential to a uniform radial grid of dG=0.02 with 1526 points.
  Transforming nonlocal projectors to a uniform radial grid of dG=0.02 with 432 points.
    1S    l: 0   occupation:  2.0   eigenvalue: -1.905623
    2S    l: 0   occupation:  1.0   eigenvalue: -0.105624
  Transforming atomic orbitals to a uniform radial grid of dG=0.02 with 432 points.
  WARNING: large normalization error in atomic orbital 1s (integral: 0.000000).
  Core radius for overlap checks: 1.63 bohrs.
  Reading pulay file /home/gridsan/aligho/DFT/build-Nov24/pseudopotentials/SG15/Li_ONCV_PBE.pulay ... using dE_dnG = -1.230239e-02 computed for Ecut = 20.

Initialized 1 species with 1 total atoms.

Folded 1 k-points by 12x12x1 to 144 k-points.

---------- Setting up k-points, bands, fillings ----------
Reduced to 19 k-points under symmetry. 
Computing the number of bands and number of electrons
Calculating initial fillings.
nElectrons:   3.000000   nBands: 3   nStates: 19

----- Setting up reduced wavefunction bases (one per k-point) -----
average nbasis = 12445.063 , ideal nbasis = 12447.833

---------- Setting up coulomb interaction ----------
Initialized slab truncation along lattice direction 001

---------- Setting up 2D ewald sum ----------
Optimum gaussian width for ewald sums = 5.091549 bohr.
Real space sums over 289 unit cells with max indices [  8  8  0  ]
Reciprocal space sums over 81 terms with max indices [  4  4  0  ]

---------- Allocating electronic variables ----------
Initializing wave functions:  linear combination of atomic orbitals
Note: number of bands (3) exceeds available atomic orbitals (2)
Li pseudo-atom occupations:   s ( 2 1 )
	FillingsUpdate:  mu: +0.318143414  nElectrons: 3.000000
LCAOMinimize: Iter:   0  F: -1.1849631921442054  |grad|_K:  3.728e-03  alpha:  1.000e+00
LCAOMinimize: 	Predicted alpha/alphaT>3.000000, increasing alphaT to 3.000000e+00.
	FillingsUpdate:  mu: +0.318142982  nElectrons: 3.000000
LCAOMinimize: Iter:   1  F: -1.1849780855188019  |grad|_K:  3.710e-03  alpha:  6.278e-03  linmin: -1.662e-02  cgtest:  9.984e-01  t[s]:      2.60
LCAOMinimize: Encountered beta<0, resetting CG.
LCAOMinimize: 	Predicted alpha/alphaT>3.000000, increasing alphaT to 1.883386e-02.
LCAOMinimize: 	Predicted alpha/alphaT>3.000000, increasing alphaT to 5.650158e-02.
LCAOMinimize: 	Predicted alpha/alphaT>3.000000, increasing alphaT to 1.695047e-01.
LCAOMinimize: 	Step increased F by 5.471246e-02, reducing alpha to 2.245122e-01.
	FillingsUpdate:  mu: +0.318126175  nElectrons: 3.000000
LCAOMinimize: Iter:   2  F: -1.1854868431218644  |grad|_K:  3.175e-03  alpha:  2.245e-01  linmin: -1.683e-02  cgtest:  9.076e-01  t[s]:      3.94
LCAOMinimize: Encountered beta<0, resetting CG.
LCAOMinimize: 	Wrong curvature in test step, increasing alphaT to 6.735367e-01.
	FillingsUpdate:  mu: +0.318109257  nElectrons: 3.000000
LCAOMinimize: Iter:   3  F: -1.1858781756122063  |grad|_K:  2.843e-03  alpha: -1.005e+01  linmin: -1.733e-02  cgtest:  8.669e-01  t[s]:      4.53
[d-3-3-4:72615] 18 more processes have sent help message help-mpi-common-cuda.txt / dlopen failed
[d-3-3-4:72615] Set MCA parameter "orte_base_help_aggregate" to 0 to see all help / error messages
[d-3-3-4:72615] 18 more processes have sent help message help-mpi-btl-openib-cpc-base.txt / no cpcs for port
LCAOMinimize: 	Step increased F by 3.528806e-02, reducing alpha to 2.668176e-01.
	FillingsUpdate:  mu: +0.318086457  nElectrons: 3.000000
LCAOMinimize: Iter:   4  F: -1.1862709022820195  |grad|_K:  2.489e-03  alpha:  2.668e-01  linmin: -1.682e-02  cgtest:  8.278e-01  t[s]:      5.38
LCAOMinimize: 	Predicted alpha/alphaT>3.000000, increasing alphaT to 8.004529e-01.
LCAOMinimize: 	Step increased F by 3.841582e-03, reducing alpha to 2.342047e-01.
	FillingsUpdate:  mu: +0.318065859  nElectrons: 3.000000
LCAOMinimize: Iter:   5  F: -1.1865335954817213  |grad|_K:  2.142e-03  alpha:  2.342e-01  linmin: -1.611e-02  cgtest:  8.728e-01  t[s]:      6.47
LCAOMinimize: Encountered beta<0, resetting CG.
LCAOMinimize: 	Predicted alpha/alphaT>3.000000, increasing alphaT to 7.026140e-01.
LCAOMinimize: 	Step increased F by 2.755891e-04, reducing alpha to 1.914767e-01.
	FillingsUpdate:  mu: +0.318051199  nElectrons: 3.000000
LCAOMinimize: Iter:   6  F: -1.1866801561878388  |grad|_K:  1.869e-03  alpha:  1.915e-01  linmin: -1.573e-02  cgtest:  9.258e-01  t[s]:      7.54
LCAOMinimize: Encountered beta<0, resetting CG.
LCAOMinimize: 	Predicted alpha/alphaT>3.000000, increasing alphaT to 5.744300e-01.
	FillingsUpdate:  mu: +0.317889093  nElectrons: 3.000000
LCAOMinimize: Iter:   7  F: -1.1867764864268284  |grad|_K:  1.819e-03  alpha:  1.676e+00  linmin:  1.665e-02  cgtest: -7.094e-01  t[s]:      8.34
LCAOMinimize: 	Bad step direction: g.d > 0.
LCAOMinimize: 	Undoing step.
LCAOMinimize: 	Step failed: resetting search direction.
	FillingsUpdate:  mu: +0.317889093  nElectrons: 3.000000
LCAOMinimize: Iter:   8  F: -1.1867764864268284  |grad|_K:  1.819e-03  alpha:  0.000e+00
	FillingsUpdate:  mu: +0.317967471  nElectrons: 3.000000
LCAOMinimize: Iter:   9  F: -1.1870424738462622  |grad|_K:  5.040e-05  alpha:  1.018e+00  linmin:  1.494e-02  cgtest: -1.074e+00  t[s]:      9.23
	FillingsUpdate:  mu: +0.317967571  nElectrons: 3.000000
LCAOMinimize: Iter:  10  F: -1.1870424770742005  |grad|_K:  5.005e-05  alpha:  4.598e-01  linmin:  4.444e-07  cgtest:  9.929e-01  t[s]:      9.77
	FillingsUpdate:  mu: +0.317965523  nElectrons: 3.000000
LCAOMinimize: Iter:  11  F: -1.1870426894528425  |grad|_K:  3.041e-07  alpha:  9.943e-01  linmin:  1.527e-02  cgtest: -9.121e-01  t[s]:     10.33
LCAOMinimize: Converged (|Delta F|<1.000000e-06 for 2 iters).


---- Citations for features of the code used in this run ----

   Software package:
      R. Sundararaman, K. Letchworth-Weaver, K.A. Schwarz, D. Gunceler, Y. Ozhabes and T.A. Arias, 'JDFTx: software for joint density-functional theory', SoftwareX 6, 278 (2017)

   gga-PBE exchange-correlation functional:
      J.P. Perdew, K. Burke and M. Ernzerhof, Phys. Rev. Lett. 77, 3865 (1996)

   Pseudopotentials:
      M Schlipf and F Gygi, Comput. Phys. Commun. 196, 36 (2015)

   Truncated Coulomb potentials:
      R. Sundararaman and T.A. Arias, Phys. Rev. B 87, 165122 (2013)

This list may not be complete. Please suggest additional citations or
report any other bugs at https://github.com/shankar1729/jdftx/issues

Initialization completed successfully at t[s]:     10.37


-------- Electronic minimization -----------
Will mix electronic density at each iteration.
	FillingsUpdate:  mu: +0.317965523  nElectrons: 3.000000
	FillingsUpdate:  mu: -1.000770195  nElectrons: 3.000000
SCF: Cycle:  0   F: -6.819857255712670   dF: -5.633e+00   |Residual|: 1.167e+00   |deigs|: 4.182e+00  t[s]:     11.29
	FillingsUpdate:  mu: -0.894196363  nElectrons: 3.000000
SCF: Cycle:  1   F: -6.943063589835465   dF: -1.232e-01   |Residual|: 7.747e-01   |deigs|: 2.249e-01  t[s]:     12.00
	FillingsUpdate:  mu: -0.642889748  nElectrons: 3.000000
SCF: Cycle:  2   F: -7.055818970500336   dF: -1.128e-01   |Residual|: 4.361e-01   |deigs|: 7.981e-01  t[s]:     12.69
	FillingsUpdate:  mu: -0.688302565  nElectrons: 3.000000
SCF: Cycle:  3   F: -7.064110490798720   dF: -8.292e-03   |Residual|: 2.148e-01   |deigs|: 1.382e-01  t[s]:     13.39
	FillingsUpdate:  mu: -0.648969574  nElectrons: 3.000000
SCF: Cycle:  4   F: -7.062178135974605   dF: +1.932e-03   |Residual|: 7.024e-02   |deigs|: 4.420e-02  t[s]:     14.14
	FillingsUpdate:  mu: -0.559402678  nElectrons: 3.000000
SCF: Cycle:  5   F: -7.061344579136227   dF: +8.336e-04   |Residual|: 2.831e-01   |deigs|: 7.196e-02  t[s]:     14.88
	FillingsUpdate:  mu: -0.479985691  nElectrons: 3.000000
SCF: Cycle:  6   F: -7.066687436072677   dF: -5.343e-03   |Residual|: 2.009e-01   |deigs|: 2.377e-01  t[s]:     15.64
	FillingsUpdate:  mu: -0.321432422  nElectrons: 3.000000
SCF: Cycle:  7   F: -7.073019899211935   dF: -6.332e-03   |Residual|: 1.181e-01   |deigs|: 1.268e-01  t[s]:     16.37
	FillingsUpdate:  mu: -0.359822282  nElectrons: 3.000000
SCF: Cycle:  8   F: -7.071499073638144   dF: +1.521e-03   |Residual|: 1.293e-01   |deigs|: 8.019e-02  t[s]:     17.13
	FillingsUpdate:  mu: -0.273367512  nElectrons: 3.000000
SCF: Cycle:  9   F: -7.072739303858219   dF: -1.240e-03   |Residual|: 1.456e-01   |deigs|: 1.323e-01  t[s]:     17.93
	FillingsUpdate:  mu: -0.270332839  nElectrons: 3.000000
SCF: Cycle: 10   F: -7.072905893563921   dF: -1.666e-04   |Residual|: 1.399e-01   |deigs|: 6.963e-02  t[s]:     18.70
	FillingsUpdate:  mu: -0.056899471  nElectrons: 3.000000
SCF: Cycle: 11   F: -7.072790884163937   dF: +1.150e-04   |Residual|: 1.012e-01   |deigs|: 2.707e-01  t[s]:     19.46
	FillingsUpdate:  mu: -0.132508009  nElectrons: 3.000000
SCF: Cycle: 12   F: -7.073960675522218   dF: -1.170e-03   |Residual|: 4.310e-02   |deigs|: 8.138e-02  t[s]:     20.25
	FillingsUpdate:  mu: -0.076578604  nElectrons: 3.000000
SCF: Cycle: 13   F: -7.074486345225520   dF: -5.257e-04   |Residual|: 1.609e-02   |deigs|: 6.251e-02  t[s]:     21.03
	FillingsUpdate:  mu: -0.106939396  nElectrons: 3.000000
SCF: Cycle: 14   F: -7.074850170312567   dF: -3.638e-04   |Residual|: 5.460e-03   |deigs|: 3.307e-02  t[s]:     21.81
	FillingsUpdate:  mu: -0.116171337  nElectrons: 3.000000
SCF: Cycle: 15   F: -7.074993713047328   dF: -1.435e-04   |Residual|: 2.046e-03   |deigs|: 1.175e-02  t[s]:     22.62
	FillingsUpdate:  mu: -0.114614568  nElectrons: 3.000000
SCF: Cycle: 16   F: -7.075008463885057   dF: -1.475e-05   |Residual|: 1.634e-03   |deigs|: 1.807e-03  t[s]:     23.40
	FillingsUpdate:  mu: -0.113274143  nElectrons: 3.000000
SCF: Cycle: 17   F: -7.075010059332409   dF: -1.595e-06   |Residual|: 4.084e-04   |deigs|: 1.981e-03  t[s]:     24.19
	FillingsUpdate:  mu: -0.113783244  nElectrons: 3.000000
SCF: Cycle: 18   F: -7.075010702343861   dF: -6.430e-07   |Residual|: 2.223e-04   |deigs|: 8.100e-04  t[s]:     24.97
	FillingsUpdate:  mu: -0.113680428  nElectrons: 3.000000
SCF: Cycle: 19   F: -7.075010995065994   dF: -2.927e-07   |Residual|: 1.143e-04   |deigs|: 2.717e-04  t[s]:     25.75
	FillingsUpdate:  mu: -0.113327105  nElectrons: 3.000000
SCF: Cycle: 20   F: -7.075011147191620   dF: -1.521e-07   |Residual|: 6.631e-05   |deigs|: 3.872e-04  t[s]:     26.52
	FillingsUpdate:  mu: -0.113250914  nElectrons: 3.000000
SCF: Cycle: 21   F: -7.075011259088733   dF: -1.119e-07   |Residual|: 4.001e-05   |deigs|: 1.830e-04  t[s]:     27.32
	FillingsUpdate:  mu: -0.113324307  nElectrons: 3.000000
SCF: Cycle: 22   F: -7.075011336389125   dF: -7.730e-08   |Residual|: 1.529e-05   |deigs|: 1.329e-04  t[s]:     28.08
	FillingsUpdate:  mu: -0.113363382  nElectrons: 3.000000
SCF: Cycle: 23   F: -7.075011357267570   dF: -2.088e-08   |Residual|: 8.546e-06   |deigs|: 6.423e-05  t[s]:     28.82
	FillingsUpdate:  mu: -0.113369271  nElectrons: 3.000000
SCF: Cycle: 24   F: -7.075011372282570   dF: -1.501e-08   |Residual|: 2.531e-06   |deigs|: 3.567e-05  t[s]:     29.59
	FillingsUpdate:  mu: -0.113372197  nElectrons: 3.000000
SCF: Cycle: 25   F: -7.075011403044583   dF: -3.076e-08   |Residual|: 1.463e-06   |deigs|: 6.614e-05  t[s]:     30.37
	FillingsUpdate:  mu: -0.113375380  nElectrons: 3.000000
SCF: Cycle: 26   F: -7.075011411543409   dF: -8.499e-09   |Residual|: 8.027e-07   |deigs|: 2.103e-05  t[s]:     31.07
	FillingsUpdate:  mu: -0.113374247  nElectrons: 3.000000
SCF: Cycle: 27   F: -7.075011413169335   dF: -1.626e-09   |Residual|: 4.889e-07   |deigs|: 4.070e-06  t[s]:     31.80
SCF: Converged (|Delta E|<1.000000e-08 for 2 iters).


# Ionic positions in lattice coordinates:
ion Li   0.000000000000000   0.000000000000000   0.000000000000000 0

# Forces in Lattice coordinates:
force Li   0.000000000000000   0.000000000000000   0.000000000000000 0

# Energy components:
   Eewald =       -2.0673569416188626
       EH =        1.4717856564939238
     Eloc =       -6.0718524104009965
      Enl =       -3.5894432856441392
   Epulay =       -0.0000116979228841
      Exc =       -1.5390399036929563
       KE =        4.7294759201653758
-------------------------------------
     Etot =       -7.0664426626205383
       TS =        0.0085687505487968
-------------------------------------
        F =       -7.0750114131693351

IonicMinimize: Iter:   0  F: -7.075011413169335  |grad|_K:  0.000e+00  t[s]:     31.85
IonicMinimize: Converged (|grad|_K<1.000000e-04).

#--- Lowdin population analysis ---
# oxidation-state Li +2.192

End date and time: Sun Jan 16 15:08:37 2022  (Duration: 0-0:00:31.86)
Done!
