2.15
--------------------------------------------------------------------------
The library attempted to open the following supporting CUDA libraries,
but each of them failed.  CUDA-aware support is disabled.
libcuda.so.1: cannot open shared object file: No such file or directory
libcuda.dylib: cannot open shared object file: No such file or directory
/usr/lib64/libcuda.so.1: cannot open shared object file: No such file or directory
/usr/lib64/libcuda.dylib: cannot open shared object file: No such file or directory
If you are not interested in CUDA-aware support, then run with
--mca opal_warn_on_missing_libcuda 0 to suppress this message.  If you are interested
in CUDA-aware support, then try setting LD_LIBRARY_PATH to the location
of libcuda.so.1 to get passed this issue.
--------------------------------------------------------------------------
--------------------------------------------------------------------------
No OpenFabrics connection schemes reported that they were able to be
used on a specific port.  As such, the openib BTL (OpenFabrics
support) will be disabled for this port.

  Local host:           d-4-7-2
  Local device:         mlx5_1
  Local port:           1
  CPCs attempted:       rdmacm, udcm
--------------------------------------------------------------------------

*************** JDFTx 1.6.0 (git hash 42ebbcc2) ***************

Start date and time: Sun Jan 16 15:08:05 2022
Executable jdftx with command-line: -i Lithium.in
Running on hosts (process indices):  d-4-7-2 (0-18)
Divided in process groups (process indices):  0 (0)  1 (1)  2 (2)  3 (3)  4 (4)  5 (5)  6 (6)  7 (7)  8 (8)  9 (9)  10 (10)  11 (11)  12 (12)  13 (13)  14 (14)  15 (15)  16 (16)  17 (17)  18 (18)
Resource initialization completed at t[s]:      0.00
Run totals: 19 processes, 48 threads, 0 GPUs


Input parsed successfully to the following command list (including defaults):

basis kpoint-dependent
coords-type Lattice
core-overlap-check vector
coulomb-interaction Slab 001
davidson-band-ratio 1.1
dump End None
dump-name $INPUT.$VAR
elec-cutoff 20
elec-eigen-algo Davidson
elec-ex-corr gga-PBE
elec-smearing Fermi 0.01
electronic-minimize  \
	dirUpdateScheme      FletcherReeves \
	linminMethod         DirUpdateRecommended \
	nIterations          100 \
	history              15 \
	knormThreshold       0 \
	energyDiffThreshold  1e-08 \
	nEnergyDiff          2 \
	alphaTstart          1 \
	alphaTmin            1e-10 \
	updateTestStepSize   yes \
	alphaTreduceFactor   0.1 \
	alphaTincreaseFactor 3 \
	nAlphaAdjustMax      3 \
	wolfeEnergy          0.0001 \
	wolfeGradient        0.9 \
	fdTest               no
electronic-scf  \
	nIterations	10000 \
	energyDiffThreshold	1e-08 \
	residualThreshold	1e-07 \
	mixFraction	0.5 \
	qMetric	0.8 \
	history	10 \
	nEigSteps	2 \
	eigDiffThreshold	1e-08 \
	mixedVariable	Density \
	qKerker	0.8 \
	qKappa	-1 \
	verbose	no \
	mixFractionMag	1.5
exchange-regularization WignerSeitzTruncated
fluid None
fluid-ex-corr (null) lda-PZ
fluid-gummel-loop 10 1.000000e-05
fluid-minimize  \
	dirUpdateScheme      PolakRibiere \
	linminMethod         DirUpdateRecommended \
	nIterations          100 \
	history              15 \
	knormThreshold       0 \
	energyDiffThreshold  0 \
	nEnergyDiff          2 \
	alphaTstart          1 \
	alphaTmin            1e-10 \
	updateTestStepSize   yes \
	alphaTreduceFactor   0.1 \
	alphaTincreaseFactor 3 \
	nAlphaAdjustMax      3 \
	wolfeEnergy          0.0001 \
	wolfeGradient        0.9 \
	fdTest               no
fluid-solvent H2O 55.338 ScalarEOS \
	epsBulk 78.4 \
	pMol 0.92466 \
	epsInf 1.77 \
	Pvap 1.06736e-10 \
	sigmaBulk 4.62e-05 \
	Rvdw 2.61727 \
	Res 1.42 \
	tauNuc 343133 \
	poleEl 15 7 1
forces-output-coords Positions
ion Li   0.000000000000000   0.000000000000000   0.000000000000000 0
ion-species SG15/$ID_ONCV_PBE.upf
ion-width 0
ionic-minimize  \
	dirUpdateScheme      L-BFGS \
	linminMethod         DirUpdateRecommended \
	nIterations          0 \
	history              15 \
	knormThreshold       0.0001 \
	energyDiffThreshold  1e-06 \
	nEnergyDiff          2 \
	alphaTstart          1 \
	alphaTmin            1e-10 \
	updateTestStepSize   yes \
	alphaTreduceFactor   0.1 \
	alphaTincreaseFactor 3 \
	nAlphaAdjustMax      3 \
	wolfeEnergy          0.0001 \
	wolfeGradient        0.9 \
	fdTest               no
kpoint   0.000000000000   0.000000000000   0.000000000000  1.00000000000000
kpoint-folding 12 12 1 
latt-move-scale 1 1 1
latt-scale 2.15 2.15 1 
lattice  \
	   4.727486978767153   -2.363743489383575    0.000000000000000  \
	  -0.000000000000000    4.094123819672497    0.000000000000000  \
	   0.000000000000000    0.000000000000000   40.000000000000000 
lattice-minimize  \
	dirUpdateScheme      L-BFGS \
	linminMethod         DirUpdateRecommended \
	nIterations          0 \
	history              15 \
	knormThreshold       0 \
	energyDiffThreshold  1e-06 \
	nEnergyDiff          2 \
	alphaTstart          1 \
	alphaTmin            1e-10 \
	updateTestStepSize   yes \
	alphaTreduceFactor   0.1 \
	alphaTincreaseFactor 3 \
	nAlphaAdjustMax      3 \
	wolfeEnergy          0.0001 \
	wolfeGradient        0.9 \
	fdTest               no
lcao-params -1 1e-06 0.01
pcm-variant GLSSA13
spintype no-spin
subspace-rotation-factor 1 yes
symmetries automatic
symmetry-threshold 0.0001



---------- Setting up symmetries ----------

Found 24 point-group symmetries of the bravais lattice
Found 24 space-group symmetries with basis
Applied RMS atom displacement 0 bohrs to make symmetries exact.

---------- Initializing the Grid ----------
R = 
[      10.1641     -5.08205            0  ]
[            0      8.80237            0  ]
[            0            0           40  ]
unit cell volume = 3578.72
G =
[   0.618174   0.356903         -0  ]
[          0   0.713806         -0  ]
[         -0         -0    0.15708  ]
Minimum fftbox size, Smin = [  44  44  164  ]
Chosen fftbox size, S = [  48  48  168  ]

---------- Exchange Correlation functional ----------
Initalized PBE GGA exchange.
Initalized PBE GGA correlation.

---------- Setting up pseudopotentials ----------
Width of ionic core gaussian charges (only for fluid interactions / plotting) set to 0

Reading pseudopotential file '/home/gridsan/aligho/DFT/build-Nov24/pseudopotentials/SG15/Li_ONCV_PBE.upf':
  'Li' pseudopotential, 'PBE' functional
  Generated using ONCVPSP code by D. R. Hamann
  Author: Martin Schlipf and Francois Gygi  Date: 150915.
  3 valence electrons, 2 orbitals, 4 projectors, 1328 radial grid points, with lMax = 1
  Transforming local potential to a uniform radial grid of dG=0.02 with 1629 points.
  Transforming nonlocal projectors to a uniform radial grid of dG=0.02 with 432 points.
    1S    l: 0   occupation:  2.0   eigenvalue: -1.905623
    2S    l: 0   occupation:  1.0   eigenvalue: -0.105624
  Transforming atomic orbitals to a uniform radial grid of dG=0.02 with 432 points.
  WARNING: large normalization error in atomic orbital 1s (integral: 0.000000).
  Core radius for overlap checks: 1.63 bohrs.
  Reading pulay file /home/gridsan/aligho/DFT/build-Nov24/pseudopotentials/SG15/Li_ONCV_PBE.pulay ... using dE_dnG = -1.230239e-02 computed for Ecut = 20.

Initialized 1 species with 1 total atoms.

Folded 1 k-points by 12x12x1 to 144 k-points.

---------- Setting up k-points, bands, fillings ----------
Reduced to 19 k-points under symmetry. 
Computing the number of bands and number of electrons
Calculating initial fillings.
nElectrons:   3.000000   nBands: 3   nStates: 19

----- Setting up reduced wavefunction bases (one per k-point) -----
average nbasis = 15289.854 , ideal nbasis = 15288.582

---------- Setting up coulomb interaction ----------
Initialized slab truncation along lattice direction 001

---------- Setting up 2D ewald sum ----------
Optimum gaussian width for ewald sums = 5.642696 bohr.
Real space sums over 289 unit cells with max indices [  8  8  0  ]
Reciprocal space sums over 81 terms with max indices [  4  4  0  ]

---------- Allocating electronic variables ----------
Initializing wave functions:  linear combination of atomic orbitals
Note: number of bands (3) exceeds available atomic orbitals (2)
Li pseudo-atom occupations:   s ( 2 1 )
	FillingsUpdate:  mu: +0.329178906  nElectrons: 3.000000
LCAOMinimize: Iter:   0  F: -1.2129236175428040  |grad|_K:  2.580e-03  alpha:  1.000e+00
	FillingsUpdate:  mu: +0.329035544  nElectrons: 3.000000
LCAOMinimize: Iter:   1  F: -1.2130962251735624  |grad|_K:  3.118e-03  alpha:  1.400e+00  linmin:  2.351e-02  cgtest: -3.194e-01  t[s]:      3.06
LCAOMinimize: 	Bad step direction: g.d > 0.
LCAOMinimize: 	Undoing step.
LCAOMinimize: 	Step failed: resetting search direction.
	FillingsUpdate:  mu: +0.329035544  nElectrons: 3.000000
LCAOMinimize: Iter:   2  F: -1.2130962251735624  |grad|_K:  3.118e-03  alpha:  0.000e+00
	FillingsUpdate:  mu: +0.329094933  nElectrons: 3.000000
LCAOMinimize: Iter:   3  F: -1.2136533548120563  |grad|_K:  1.661e-04  alpha:  9.046e-01  linmin: -1.431e-02  cgtest:  1.667e+00  t[s]:      4.25
LCAOMinimize: Encountered beta<0, resetting CG.
[d-4-7-2:94421] 18 more processes have sent help message help-mpi-common-cuda.txt / dlopen failed
[d-4-7-2:94421] Set MCA parameter "orte_base_help_aggregate" to 0 to see all help / error messages
[d-4-7-2:94421] 18 more processes have sent help message help-mpi-btl-openib-cpc-base.txt / no cpcs for port
	FillingsUpdate:  mu: +0.329099147  nElectrons: 3.000000
LCAOMinimize: Iter:   4  F: -1.2136556590750089  |grad|_K:  5.417e-06  alpha:  9.733e-01  linmin: -1.544e-02  cgtest:  8.974e-01  t[s]:      5.00
LCAOMinimize: Encountered beta<0, resetting CG.
	FillingsUpdate:  mu: +0.329099293  nElectrons: 3.000000
LCAOMinimize: Iter:   5  F: -1.2136556616564214  |grad|_K:  1.550e-07  alpha:  1.028e+00  linmin:  2.595e-04  cgtest: -1.004e-02  t[s]:      5.72
LCAOMinimize: 	Step increased F by 1.945333e-12, reducing alpha to 1.309476e-01.
LCAOMinimize: 	Step increased F by 1.892042e-12, reducing alpha to 1.309476e-02.
LCAOMinimize: 	Step increased F by 2.156053e-13, reducing alpha to 1.309476e-03.
LCAOMinimize: 	Step failed to reduce F after 3 attempts. Quitting step.
LCAOMinimize: 	Undoing step.
LCAOMinimize: 	Step failed: resetting search direction.
	FillingsUpdate:  mu: +0.329099293  nElectrons: 3.000000
LCAOMinimize: Iter:   6  F: -1.2136556616561793  |grad|_K:  1.532e-07  alpha:  1.309e-03
	FillingsUpdate:  mu: +0.329099293  nElectrons: 3.000000
LCAOMinimize: Iter:   7  F: -1.2136556616562681  |grad|_K:  9.054e-08  alpha:  4.200e-01  linmin: -2.529e-02  cgtest:  9.998e-01  t[s]:      8.41
LCAOMinimize: Encountered beta<0, resetting CG.
	FillingsUpdate:  mu: +0.329099293  nElectrons: 3.000000
LCAOMinimize: Iter:   8  F: -1.2136556616564000  |grad|_K:  7.468e-08  alpha:  1.800e-01  linmin: -2.597e-02  cgtest:  1.000e+00  t[s]:      9.14
LCAOMinimize: Encountered beta<0, resetting CG.
LCAOMinimize: Converged (|Delta F|<1.000000e-06 for 2 iters).


---- Citations for features of the code used in this run ----

   Software package:
      R. Sundararaman, K. Letchworth-Weaver, K.A. Schwarz, D. Gunceler, Y. Ozhabes and T.A. Arias, 'JDFTx: software for joint density-functional theory', SoftwareX 6, 278 (2017)

   gga-PBE exchange-correlation functional:
      J.P. Perdew, K. Burke and M. Ernzerhof, Phys. Rev. Lett. 77, 3865 (1996)

   Pseudopotentials:
      M Schlipf and F Gygi, Comput. Phys. Commun. 196, 36 (2015)

   Truncated Coulomb potentials:
      R. Sundararaman and T.A. Arias, Phys. Rev. B 87, 165122 (2013)

This list may not be complete. Please suggest additional citations or
report any other bugs at https://github.com/shankar1729/jdftx/issues

Initialization completed successfully at t[s]:      9.18


-------- Electronic minimization -----------
Will mix electronic density at each iteration.
	FillingsUpdate:  mu: +0.329099293  nElectrons: 3.000000
	FillingsUpdate:  mu: -0.903306063  nElectrons: 3.000000
SCF: Cycle:  0   F: -6.867661869622729   dF: -5.654e+00   |Residual|: 1.187e+00   |deigs|: 4.166e+00  t[s]:     10.42
	FillingsUpdate:  mu: -0.794052439  nElectrons: 3.000000
SCF: Cycle:  1   F: -6.933658851474591   dF: -6.600e-02   |Residual|: 7.707e-01   |deigs|: 2.477e-01  t[s]:     11.32
	FillingsUpdate:  mu: -0.535700050  nElectrons: 3.000000
SCF: Cycle:  2   F: -7.052388846910034   dF: -1.187e-01   |Residual|: 3.936e-01   |deigs|: 7.694e-01  t[s]:     12.27
	FillingsUpdate:  mu: -0.583109583  nElectrons: 3.000000
SCF: Cycle:  3   F: -7.059304812465310   dF: -6.916e-03   |Residual|: 1.966e-01   |deigs|: 1.226e-01  t[s]:     13.20
	FillingsUpdate:  mu: -0.542297849  nElectrons: 3.000000
SCF: Cycle:  4   F: -7.056280060029070   dF: +3.025e-03   |Residual|: 1.095e-01   |deigs|: 4.097e-02  t[s]:     14.17
	FillingsUpdate:  mu: -0.514677940  nElectrons: 3.000000
SCF: Cycle:  5   F: -7.057066849048110   dF: -7.868e-04   |Residual|: 7.561e-02   |deigs|: 3.701e-02  t[s]:     15.14
	FillingsUpdate:  mu: -0.364399531  nElectrons: 3.000000
SCF: Cycle:  6   F: -7.061028236783624   dF: -3.961e-03   |Residual|: 2.798e-01   |deigs|: 2.740e-01  t[s]:     16.16
	FillingsUpdate:  mu: -0.341651469  nElectrons: 3.000000
SCF: Cycle:  7   F: -7.057731698800629   dF: +3.297e-03   |Residual|: 5.028e-01   |deigs|: 2.686e-01  t[s]:     17.17
	FillingsUpdate:  mu: -0.294797514  nElectrons: 3.000000
SCF: Cycle:  8   F: -7.062693038478207   dF: -4.961e-03   |Residual|: 2.991e-01   |deigs|: 8.838e-02  t[s]:     18.21
	FillingsUpdate:  mu: -0.191368603  nElectrons: 3.000000
SCF: Cycle:  9   F: -7.054264799517918   dF: +8.428e-03   |Residual|: 4.939e-01   |deigs|: 3.253e-01  t[s]:     19.27
	FillingsUpdate:  mu: -0.178395262  nElectrons: 3.000000
SCF: Cycle: 10   F: -7.066881290982162   dF: -1.262e-02   |Residual|: 8.632e-02   |deigs|: 1.152e-01  t[s]:     20.36
	FillingsUpdate:  mu: -0.156907493  nElectrons: 3.000000
SCF: Cycle: 11   F: -7.067717687147319   dF: -8.364e-04   |Residual|: 1.670e-02   |deigs|: 1.880e-02  t[s]:     21.45
	FillingsUpdate:  mu: -0.120871016  nElectrons: 3.000000
SCF: Cycle: 12   F: -7.067727913021696   dF: -1.023e-05   |Residual|: 1.185e-01   |deigs|: 6.607e-02  t[s]:     22.56
	FillingsUpdate:  mu: -0.107608814  nElectrons: 3.000000
SCF: Cycle: 13   F: -7.068032665368293   dF: -3.048e-04   |Residual|: 1.749e-02   |deigs|: 1.727e-02  t[s]:     23.65
	FillingsUpdate:  mu: -0.109102901  nElectrons: 3.000000
SCF: Cycle: 14   F: -7.068270309781463   dF: -2.376e-04   |Residual|: 4.706e-03   |deigs|: 1.078e-02  t[s]:     24.78
	FillingsUpdate:  mu: -0.112428565  nElectrons: 3.000000
SCF: Cycle: 15   F: -7.068336457768851   dF: -6.615e-05   |Residual|: 1.801e-02   |deigs|: 1.265e-02  t[s]:     25.83
	FillingsUpdate:  mu: -0.111272070  nElectrons: 3.000000
SCF: Cycle: 16   F: -7.068355891923861   dF: -1.943e-05   |Residual|: 5.897e-04   |deigs|: 8.056e-03  t[s]:     26.93
	FillingsUpdate:  mu: -0.111621885  nElectrons: 3.000000
SCF: Cycle: 17   F: -7.068357608172645   dF: -1.716e-06   |Residual|: 4.301e-04   |deigs|: 5.556e-04  t[s]:     28.01
	FillingsUpdate:  mu: -0.111369637  nElectrons: 3.000000
SCF: Cycle: 18   F: -7.068358690536104   dF: -1.082e-06   |Residual|: 3.120e-04   |deigs|: 2.266e-04  t[s]:     29.06
	FillingsUpdate:  mu: -0.111304173  nElectrons: 3.000000
SCF: Cycle: 19   F: -7.068358864797480   dF: -1.743e-07   |Residual|: 7.740e-05   |deigs|: 1.073e-04  t[s]:     30.16
	FillingsUpdate:  mu: -0.111255330  nElectrons: 3.000000
SCF: Cycle: 20   F: -7.068358942215385   dF: -7.742e-08   |Residual|: 4.530e-05   |deigs|: 5.578e-05  t[s]:     31.23
	FillingsUpdate:  mu: -0.111343156  nElectrons: 3.000000
SCF: Cycle: 21   F: -7.068358982550961   dF: -4.034e-08   |Residual|: 2.108e-05   |deigs|: 8.853e-05  t[s]:     32.28
	FillingsUpdate:  mu: -0.111339397  nElectrons: 3.000000
SCF: Cycle: 22   F: -7.068358999658993   dF: -1.711e-08   |Residual|: 8.528e-06   |deigs|: 1.274e-05  t[s]:     33.29
	FillingsUpdate:  mu: -0.111338323  nElectrons: 3.000000
SCF: Cycle: 23   F: -7.068359008938969   dF: -9.280e-09   |Residual|: 6.470e-06   |deigs|: 6.151e-06  t[s]:     34.42
	FillingsUpdate:  mu: -0.111338374  nElectrons: 3.000000
SCF: Cycle: 24   F: -7.068359013335717   dF: -4.397e-09   |Residual|: 1.834e-06   |deigs|: 3.535e-06  t[s]:     35.47
SCF: Converged (|Delta E|<1.000000e-08 for 2 iters).


# Ionic positions in lattice coordinates:
ion Li   0.000000000000000   0.000000000000000   0.000000000000000 0

# Forces in Lattice coordinates:
force Li  -0.000000000000000   0.000000000000000   0.000000000000000 0

# Energy components:
   Eewald =       -1.8654290542979497
       EH =        1.6598518858569087
     Eloc =       -6.4605042086209741
      Enl =       -3.5918467858294063
   Epulay =        0.0000043720762966
      Exc =       -1.5332113524651505
       KE =        4.7329752294107053
-------------------------------------
     Etot =       -7.0581599138695683
       TS =        0.0101990994661492
-------------------------------------
        F =       -7.0683590133357175

IonicMinimize: Iter:   0  F: -7.068359013335717  |grad|_K:  0.000e+00  t[s]:     35.54
IonicMinimize: Converged (|grad|_K<1.000000e-04).

#--- Lowdin population analysis ---
# oxidation-state Li +2.186

End date and time: Sun Jan 16 15:08:41 2022  (Duration: 0-0:00:35.55)
Done!
