1.76
--------------------------------------------------------------------------
The library attempted to open the following supporting CUDA libraries,
but each of them failed.  CUDA-aware support is disabled.
libcuda.so.1: cannot open shared object file: No such file or directory
libcuda.dylib: cannot open shared object file: No such file or directory
/usr/lib64/libcuda.so.1: cannot open shared object file: No such file or directory
/usr/lib64/libcuda.dylib: cannot open shared object file: No such file or directory
If you are not interested in CUDA-aware support, then run with
--mca opal_warn_on_missing_libcuda 0 to suppress this message.  If you are interested
in CUDA-aware support, then try setting LD_LIBRARY_PATH to the location
of libcuda.so.1 to get passed this issue.
--------------------------------------------------------------------------
--------------------------------------------------------------------------
No OpenFabrics connection schemes reported that they were able to be
used on a specific port.  As such, the openib BTL (OpenFabrics
support) will be disabled for this port.

  Local host:           d-16-11-3
  Local device:         mlx5_1
  Local port:           1
  CPCs attempted:       rdmacm, udcm
--------------------------------------------------------------------------

*************** JDFTx 1.6.0 (git hash 42ebbcc2) ***************

Start date and time: Sun Jan 16 15:07:28 2022
Executable jdftx with command-line: -i Lithium.in
Running on hosts (process indices):  d-16-11-3 (0-18)
Divided in process groups (process indices):  0 (0)  1 (1)  2 (2)  3 (3)  4 (4)  5 (5)  6 (6)  7 (7)  8 (8)  9 (9)  10 (10)  11 (11)  12 (12)  13 (13)  14 (14)  15 (15)  16 (16)  17 (17)  18 (18)
Resource initialization completed at t[s]:      0.00
Run totals: 19 processes, 48 threads, 0 GPUs


Input parsed successfully to the following command list (including defaults):

basis kpoint-dependent
coords-type Lattice
core-overlap-check vector
coulomb-interaction Slab 001
davidson-band-ratio 1.1
dump End None
dump-name $INPUT.$VAR
elec-cutoff 20
elec-eigen-algo Davidson
elec-ex-corr gga-PBE
elec-smearing Fermi 0.01
electronic-minimize  \
	dirUpdateScheme      FletcherReeves \
	linminMethod         DirUpdateRecommended \
	nIterations          100 \
	history              15 \
	knormThreshold       0 \
	energyDiffThreshold  1e-08 \
	nEnergyDiff          2 \
	alphaTstart          1 \
	alphaTmin            1e-10 \
	updateTestStepSize   yes \
	alphaTreduceFactor   0.1 \
	alphaTincreaseFactor 3 \
	nAlphaAdjustMax      3 \
	wolfeEnergy          0.0001 \
	wolfeGradient        0.9 \
	fdTest               no
electronic-scf  \
	nIterations	10000 \
	energyDiffThreshold	1e-08 \
	residualThreshold	1e-07 \
	mixFraction	0.5 \
	qMetric	0.8 \
	history	10 \
	nEigSteps	2 \
	eigDiffThreshold	1e-08 \
	mixedVariable	Density \
	qKerker	0.8 \
	qKappa	-1 \
	verbose	no \
	mixFractionMag	1.5
exchange-regularization WignerSeitzTruncated
fluid None
fluid-ex-corr (null) lda-PZ
fluid-gummel-loop 10 1.000000e-05
fluid-minimize  \
	dirUpdateScheme      PolakRibiere \
	linminMethod         DirUpdateRecommended \
	nIterations          100 \
	history              15 \
	knormThreshold       0 \
	energyDiffThreshold  0 \
	nEnergyDiff          2 \
	alphaTstart          1 \
	alphaTmin            1e-10 \
	updateTestStepSize   yes \
	alphaTreduceFactor   0.1 \
	alphaTincreaseFactor 3 \
	nAlphaAdjustMax      3 \
	wolfeEnergy          0.0001 \
	wolfeGradient        0.9 \
	fdTest               no
fluid-solvent H2O 55.338 ScalarEOS \
	epsBulk 78.4 \
	pMol 0.92466 \
	epsInf 1.77 \
	Pvap 1.06736e-10 \
	sigmaBulk 4.62e-05 \
	Rvdw 2.61727 \
	Res 1.42 \
	tauNuc 343133 \
	poleEl 15 7 1
forces-output-coords Positions
ion Li   0.000000000000000   0.000000000000000   0.000000000000000 0
ion-species SG15/$ID_ONCV_PBE.upf
ion-width 0
ionic-minimize  \
	dirUpdateScheme      L-BFGS \
	linminMethod         DirUpdateRecommended \
	nIterations          0 \
	history              15 \
	knormThreshold       0.0001 \
	energyDiffThreshold  1e-06 \
	nEnergyDiff          2 \
	alphaTstart          1 \
	alphaTmin            1e-10 \
	updateTestStepSize   yes \
	alphaTreduceFactor   0.1 \
	alphaTincreaseFactor 3 \
	nAlphaAdjustMax      3 \
	wolfeEnergy          0.0001 \
	wolfeGradient        0.9 \
	fdTest               no
kpoint   0.000000000000   0.000000000000   0.000000000000  1.00000000000000
kpoint-folding 12 12 1 
latt-move-scale 1 1 1
latt-scale 1.76 1.76 1 
lattice  \
	   4.727486978767153   -2.363743489383575    0.000000000000000  \
	  -0.000000000000000    4.094123819672498    0.000000000000000  \
	   0.000000000000000    0.000000000000000   40.000000000000000 
lattice-minimize  \
	dirUpdateScheme      L-BFGS \
	linminMethod         DirUpdateRecommended \
	nIterations          0 \
	history              15 \
	knormThreshold       0 \
	energyDiffThreshold  1e-06 \
	nEnergyDiff          2 \
	alphaTstart          1 \
	alphaTmin            1e-10 \
	updateTestStepSize   yes \
	alphaTreduceFactor   0.1 \
	alphaTincreaseFactor 3 \
	nAlphaAdjustMax      3 \
	wolfeEnergy          0.0001 \
	wolfeGradient        0.9 \
	fdTest               no
lcao-params -1 1e-06 0.01
pcm-variant GLSSA13
spintype no-spin
subspace-rotation-factor 1 yes
symmetries automatic
symmetry-threshold 0.0001



---------- Setting up symmetries ----------

Found 24 point-group symmetries of the bravais lattice
Found 24 space-group symmetries with basis
Applied RMS atom displacement 0 bohrs to make symmetries exact.

---------- Initializing the Grid ----------
R = 
[      8.32038     -4.16019            0  ]
[            0      7.20566            0  ]
[            0            0           40  ]
unit cell volume = 2398.15
G =
[   0.755156    0.43599         -0  ]
[          0   0.871979         -0  ]
[         -0         -0    0.15708  ]
Minimum fftbox size, Smin = [  36  36  164  ]
Chosen fftbox size, S = [  36  36  168  ]

---------- Exchange Correlation functional ----------
Initalized PBE GGA exchange.
Initalized PBE GGA correlation.

---------- Setting up pseudopotentials ----------
Width of ionic core gaussian charges (only for fluid interactions / plotting) set to 0

Reading pseudopotential file '/home/gridsan/aligho/DFT/build-Nov24/pseudopotentials/SG15/Li_ONCV_PBE.upf':
  'Li' pseudopotential, 'PBE' functional
  Generated using ONCVPSP code by D. R. Hamann
  Author: Martin Schlipf and Francois Gygi  Date: 150915.
  3 valence electrons, 2 orbitals, 4 projectors, 1328 radial grid points, with lMax = 1
  Transforming local potential to a uniform radial grid of dG=0.02 with 1516 points.
  Transforming nonlocal projectors to a uniform radial grid of dG=0.02 with 432 points.
    1S    l: 0   occupation:  2.0   eigenvalue: -1.905623
    2S    l: 0   occupation:  1.0   eigenvalue: -0.105624
  Transforming atomic orbitals to a uniform radial grid of dG=0.02 with 432 points.
  WARNING: large normalization error in atomic orbital 1s (integral: 0.000000).
  Core radius for overlap checks: 1.63 bohrs.
  Reading pulay file /home/gridsan/aligho/DFT/build-Nov24/pseudopotentials/SG15/Li_ONCV_PBE.pulay ... using dE_dnG = -1.230239e-02 computed for Ecut = 20.

Initialized 1 species with 1 total atoms.

Folded 1 k-points by 12x12x1 to 144 k-points.

---------- Setting up k-points, bands, fillings ----------
Reduced to 19 k-points under symmetry. 
Computing the number of bands and number of electrons
Calculating initial fillings.
nElectrons:   3.000000   nBands: 3   nStates: 19

----- Setting up reduced wavefunction bases (one per k-point) -----
average nbasis = 10243.354 , ideal nbasis = 10245.087

---------- Setting up coulomb interaction ----------
Initialized slab truncation along lattice direction 001

---------- Setting up 2D ewald sum ----------
Optimum gaussian width for ewald sums = 4.619138 bohr.
Real space sums over 289 unit cells with max indices [  8  8  0  ]
Reciprocal space sums over 81 terms with max indices [  4  4  0  ]

---------- Allocating electronic variables ----------
Initializing wave functions:  linear combination of atomic orbitals
Note: number of bands (3) exceeds available atomic orbitals (2)
Li pseudo-atom occupations:   s ( 2 1 )
	FillingsUpdate:  mu: +0.334604688  nElectrons: 3.000000
LCAOMinimize: Iter:   0  F: -1.1165808151297307  |grad|_K:  3.528e-03  alpha:  1.000e+00
	FillingsUpdate:  mu: +0.334574024  nElectrons: 3.000000
LCAOMinimize: Iter:   1  F: -1.1175907479084373  |grad|_K:  2.134e-04  alpha:  9.548e-01  linmin: -1.901e-02  cgtest:  8.598e-01  t[s]:      2.03
LCAOMinimize: Encountered beta<0, resetting CG.
	FillingsUpdate:  mu: +0.334572631  nElectrons: 3.000000
LCAOMinimize: Iter:   2  F: -1.1175948004551732  |grad|_K:  8.676e-06  alpha:  1.045e+00  linmin:  1.479e-02  cgtest: -6.436e-01  t[s]:      2.50
	FillingsUpdate:  mu: +0.334572579  nElectrons: 3.000000
LCAOMinimize: Iter:   3  F: -1.1175948037529229  |grad|_K:  5.992e-06  alpha:  1.033e+00  linmin: -1.962e-05  cgtest:  7.123e-01  t[s]:      2.96
LCAOMinimize: Encountered beta<0, resetting CG.
	FillingsUpdate:  mu: +0.334572614  nElectrons: 3.000000
LCAOMinimize: Iter:   4  F: -1.1175948068730810  |grad|_K:  1.602e-07  alpha:  1.016e+00  linmin: -1.003e-03  cgtest:  2.534e-02  t[s]:      3.42
LCAOMinimize: Converged (|Delta F|<1.000000e-06 for 2 iters).


---- Citations for features of the code used in this run ----

   Software package:
      R. Sundararaman, K. Letchworth-Weaver, K.A. Schwarz, D. Gunceler, Y. Ozhabes and T.A. Arias, 'JDFTx: software for joint density-functional theory', SoftwareX 6, 278 (2017)

   gga-PBE exchange-correlation functional:
      J.P. Perdew, K. Burke and M. Ernzerhof, Phys. Rev. Lett. 77, 3865 (1996)

   Pseudopotentials:
      M Schlipf and F Gygi, Comput. Phys. Commun. 196, 36 (2015)

   Truncated Coulomb potentials:
      R. Sundararaman and T.A. Arias, Phys. Rev. B 87, 165122 (2013)

This list may not be complete. Please suggest additional citations or
report any other bugs at https://github.com/shankar1729/jdftx/issues

Initialization completed successfully at t[s]:      3.46


-------- Electronic minimization -----------
Will mix electronic density at each iteration.
	FillingsUpdate:  mu: +0.334572614  nElectrons: 3.000000
	FillingsUpdate:  mu: -1.144332324  nElectrons: 3.000000
SCF: Cycle:  0   F: -6.648396916346348   dF: -5.531e+00   |Residual|: 1.140e+00   |deigs|: 4.160e+00  t[s]:      4.22
	FillingsUpdate:  mu: -1.041966564  nElectrons: 3.000000
SCF: Cycle:  1   F: -6.956750948734800   dF: -3.084e-01   |Residual|: 7.769e-01   |deigs|: 2.426e-01  t[s]:      4.77
[d-16-11-3:76293] 18 more processes have sent help message help-mpi-common-cuda.txt / dlopen failed
[d-16-11-3:76293] Set MCA parameter "orte_base_help_aggregate" to 0 to see all help / error messages
[d-16-11-3:76293] 18 more processes have sent help message help-mpi-btl-openib-cpc-base.txt / no cpcs for port
	FillingsUpdate:  mu: -0.778319146  nElectrons: 3.000000
SCF: Cycle:  2   F: -7.058305916528649   dF: -1.016e-01   |Residual|: 5.027e-01   |deigs|: 8.538e-01  t[s]:      5.33
	FillingsUpdate:  mu: -0.825650185  nElectrons: 3.000000
SCF: Cycle:  3   F: -7.066746236783636   dF: -8.440e-03   |Residual|: 2.561e-01   |deigs|: 1.566e-01  t[s]:      5.89
	FillingsUpdate:  mu: -0.790844599  nElectrons: 3.000000
SCF: Cycle:  4   F: -7.066164575910645   dF: +5.817e-04   |Residual|: 4.653e-02   |deigs|: 5.507e-02  t[s]:      6.46
	FillingsUpdate:  mu: -0.715579527  nElectrons: 3.000000
SCF: Cycle:  5   F: -7.056387289510566   dF: +9.777e-03   |Residual|: 4.891e-01   |deigs|: 1.447e-01  t[s]:      7.06
	FillingsUpdate:  mu: -0.616652844  nElectrons: 3.000000
SCF: Cycle:  6   F: -7.072706442607446   dF: -1.632e-02   |Residual|: 8.378e-02   |deigs|: 3.182e-01  t[s]:      7.65
	FillingsUpdate:  mu: -0.425609481  nElectrons: 3.000000
SCF: Cycle:  7   F: -7.078875666030593   dF: -6.169e-03   |Residual|: 1.103e-01   |deigs|: 1.624e-01  t[s]:      8.28
	FillingsUpdate:  mu: -0.476523729  nElectrons: 3.000000
SCF: Cycle:  8   F: -7.071767867450322   dF: +7.108e-03   |Residual|: 3.399e-01   |deigs|: 1.638e-01  t[s]:      8.92
	FillingsUpdate:  mu: -0.344943216  nElectrons: 3.000000
SCF: Cycle:  9   F: -7.078801183192560   dF: -7.033e-03   |Residual|: 1.400e-01   |deigs|: 1.802e-01  t[s]:      9.54
	FillingsUpdate:  mu: -0.230021152  nElectrons: 3.000000
SCF: Cycle: 10   F: -7.066728408369488   dF: +1.207e-02   |Residual|: 4.581e-01   |deigs|: 3.301e-01  t[s]:     10.17
	FillingsUpdate:  mu: -0.130866086  nElectrons: 3.000000
SCF: Cycle: 11   F: -7.079479870039900   dF: -1.275e-02   |Residual|: 6.825e-02   |deigs|: 1.389e-01  t[s]:     10.79
	FillingsUpdate:  mu: -0.138046493  nElectrons: 3.000000
SCF: Cycle: 12   F: -7.080926891422924   dF: -1.447e-03   |Residual|: 1.228e-01   |deigs|: 5.305e-02  t[s]:     11.42
	FillingsUpdate:  mu: -0.112318276  nElectrons: 3.000000
SCF: Cycle: 13   F: -7.081448414827364   dF: -5.215e-04   |Residual|: 2.791e-02   |deigs|: 2.771e-02  t[s]:     12.04
	FillingsUpdate:  mu: -0.107364643  nElectrons: 3.000000
SCF: Cycle: 14   F: -7.081542184443539   dF: -9.377e-05   |Residual|: 2.041e-02   |deigs|: 5.629e-03  t[s]:     12.68
	FillingsUpdate:  mu: -0.115818280  nElectrons: 3.000000
SCF: Cycle: 15   F: -7.081926086335272   dF: -3.839e-04   |Residual|: 2.947e-03   |deigs|: 1.644e-02  t[s]:     13.30
	FillingsUpdate:  mu: -0.117371316  nElectrons: 3.000000
SCF: Cycle: 16   F: -7.081941735252897   dF: -1.565e-05   |Residual|: 4.157e-03   |deigs|: 3.131e-03  t[s]:     13.93
	FillingsUpdate:  mu: -0.117305184  nElectrons: 3.000000
SCF: Cycle: 17   F: -7.081950933949294   dF: -9.199e-06   |Residual|: 6.874e-04   |deigs|: 2.089e-03  t[s]:     14.55
	FillingsUpdate:  mu: -0.115892900  nElectrons: 3.000000
SCF: Cycle: 18   F: -7.081951476811521   dF: -5.429e-07   |Residual|: 3.540e-04   |deigs|: 1.586e-03  t[s]:     15.18
	FillingsUpdate:  mu: -0.115983266  nElectrons: 3.000000
SCF: Cycle: 19   F: -7.081951804278132   dF: -3.275e-07   |Residual|: 2.822e-04   |deigs|: 3.523e-04  t[s]:     15.81
	FillingsUpdate:  mu: -0.115503863  nElectrons: 3.000000
SCF: Cycle: 20   F: -7.081951913406354   dF: -1.091e-07   |Residual|: 5.833e-05   |deigs|: 5.925e-04  t[s]:     16.42
	FillingsUpdate:  mu: -0.115527980  nElectrons: 3.000000
SCF: Cycle: 21   F: -7.081951923888185   dF: -1.048e-08   |Residual|: 3.497e-05   |deigs|: 4.736e-05  t[s]:     17.04
	FillingsUpdate:  mu: -0.115599492  nElectrons: 3.000000
SCF: Cycle: 22   F: -7.081952097236620   dF: -1.733e-07   |Residual|: 3.088e-05   |deigs|: 6.531e-04  t[s]:     17.66
	FillingsUpdate:  mu: -0.115776901  nElectrons: 3.000000
SCF: Cycle: 23   F: -7.081952507995217   dF: -4.108e-07   |Residual|: 3.145e-05   |deigs|: 6.433e-04  t[s]:     18.27
	FillingsUpdate:  mu: -0.115879946  nElectrons: 3.000000
SCF: Cycle: 24   F: -7.081952554343066   dF: -4.635e-08   |Residual|: 2.537e-05   |deigs|: 1.178e-04  t[s]:     18.87
	FillingsUpdate:  mu: -0.115882702  nElectrons: 3.000000
SCF: Cycle: 25   F: -7.081952566580655   dF: -1.224e-08   |Residual|: 1.057e-05   |deigs|: 7.483e-06  t[s]:     19.49
	FillingsUpdate:  mu: -0.115885298  nElectrons: 3.000000
SCF: Cycle: 26   F: -7.081952570553828   dF: -3.973e-09   |Residual|: 4.687e-06   |deigs|: 5.247e-06  t[s]:     20.13
	FillingsUpdate:  mu: -0.115894623  nElectrons: 3.000000
SCF: Cycle: 27   F: -7.081952571830968   dF: -1.277e-09   |Residual|: 2.170e-06   |deigs|: 1.294e-05  t[s]:     20.75
SCF: Converged (|Delta E|<1.000000e-08 for 2 iters).


# Ionic positions in lattice coordinates:
ion Li   0.000000000000000   0.000000000000000   0.000000000000000 0

# Forces in Lattice coordinates:
force Li   0.000000000000000   0.000000000000000   0.000000000000000 0

# Energy components:
   Eewald =       -2.2787911742844269
       EH =        1.2832162383454657
     Eloc =       -5.6778114264488702
      Enl =       -3.5892810818716328
   Epulay =       -0.0000088871362497
      Exc =       -1.5470547590500843
       KE =        4.7352574508079579
-------------------------------------
     Etot =       -7.0744736396378398
       TS =        0.0074789321931276
-------------------------------------
        F =       -7.0819525718309677

IonicMinimize: Iter:   0  F: -7.081952571830968  |grad|_K:  0.000e+00  t[s]:     20.80
IonicMinimize: Converged (|grad|_K<1.000000e-04).

#--- Lowdin population analysis ---
# oxidation-state Li +2.177

End date and time: Sun Jan 16 15:07:48 2022  (Duration: 0-0:00:20.80)
Done!
