1.67
--------------------------------------------------------------------------
The library attempted to open the following supporting CUDA libraries,
but each of them failed.  CUDA-aware support is disabled.
libcuda.so.1: cannot open shared object file: No such file or directory
libcuda.dylib: cannot open shared object file: No such file or directory
/usr/lib64/libcuda.so.1: cannot open shared object file: No such file or directory
/usr/lib64/libcuda.dylib: cannot open shared object file: No such file or directory
If you are not interested in CUDA-aware support, then run with
--mca opal_warn_on_missing_libcuda 0 to suppress this message.  If you are interested
in CUDA-aware support, then try setting LD_LIBRARY_PATH to the location
of libcuda.so.1 to get passed this issue.
--------------------------------------------------------------------------
--------------------------------------------------------------------------
No OpenFabrics connection schemes reported that they were able to be
used on a specific port.  As such, the openib BTL (OpenFabrics
support) will be disabled for this port.

  Local host:           d-16-6-2
  Local device:         mlx5_1
  Local port:           1
  CPCs attempted:       rdmacm, udcm
--------------------------------------------------------------------------

*************** JDFTx 1.6.0 (git hash 42ebbcc2) ***************

Start date and time: Sun Jan 16 15:07:28 2022
Executable jdftx with command-line: -i Lithium.in
Running on hosts (process indices):  d-16-6-2 (0-18)
Divided in process groups (process indices):  0 (0)  1 (1)  2 (2)  3 (3)  4 (4)  5 (5)  6 (6)  7 (7)  8 (8)  9 (9)  10 (10)  11 (11)  12 (12)  13 (13)  14 (14)  15 (15)  16 (16)  17 (17)  18 (18)
Resource initialization completed at t[s]:      0.00
Run totals: 19 processes, 48 threads, 0 GPUs


Input parsed successfully to the following command list (including defaults):

basis kpoint-dependent
coords-type Lattice
core-overlap-check vector
coulomb-interaction Slab 001
davidson-band-ratio 1.1
dump End None
dump-name $INPUT.$VAR
elec-cutoff 20
elec-eigen-algo Davidson
elec-ex-corr gga-PBE
elec-smearing Fermi 0.01
electronic-minimize  \
	dirUpdateScheme      FletcherReeves \
	linminMethod         DirUpdateRecommended \
	nIterations          100 \
	history              15 \
	knormThreshold       0 \
	energyDiffThreshold  1e-08 \
	nEnergyDiff          2 \
	alphaTstart          1 \
	alphaTmin            1e-10 \
	updateTestStepSize   yes \
	alphaTreduceFactor   0.1 \
	alphaTincreaseFactor 3 \
	nAlphaAdjustMax      3 \
	wolfeEnergy          0.0001 \
	wolfeGradient        0.9 \
	fdTest               no
electronic-scf  \
	nIterations	10000 \
	energyDiffThreshold	1e-08 \
	residualThreshold	1e-07 \
	mixFraction	0.5 \
	qMetric	0.8 \
	history	10 \
	nEigSteps	2 \
	eigDiffThreshold	1e-08 \
	mixedVariable	Density \
	qKerker	0.8 \
	qKappa	-1 \
	verbose	no \
	mixFractionMag	1.5
exchange-regularization WignerSeitzTruncated
fluid None
fluid-ex-corr (null) lda-PZ
fluid-gummel-loop 10 1.000000e-05
fluid-minimize  \
	dirUpdateScheme      PolakRibiere \
	linminMethod         DirUpdateRecommended \
	nIterations          100 \
	history              15 \
	knormThreshold       0 \
	energyDiffThreshold  0 \
	nEnergyDiff          2 \
	alphaTstart          1 \
	alphaTmin            1e-10 \
	updateTestStepSize   yes \
	alphaTreduceFactor   0.1 \
	alphaTincreaseFactor 3 \
	nAlphaAdjustMax      3 \
	wolfeEnergy          0.0001 \
	wolfeGradient        0.9 \
	fdTest               no
fluid-solvent H2O 55.338 ScalarEOS \
	epsBulk 78.4 \
	pMol 0.92466 \
	epsInf 1.77 \
	Pvap 1.06736e-10 \
	sigmaBulk 4.62e-05 \
	Rvdw 2.61727 \
	Res 1.42 \
	tauNuc 343133 \
	poleEl 15 7 1
forces-output-coords Positions
ion Li   0.000000000000000   0.000000000000000   0.000000000000000 0
ion-species SG15/$ID_ONCV_PBE.upf
ion-width 0
ionic-minimize  \
	dirUpdateScheme      L-BFGS \
	linminMethod         DirUpdateRecommended \
	nIterations          0 \
	history              15 \
	knormThreshold       0.0001 \
	energyDiffThreshold  1e-06 \
	nEnergyDiff          2 \
	alphaTstart          1 \
	alphaTmin            1e-10 \
	updateTestStepSize   yes \
	alphaTreduceFactor   0.1 \
	alphaTincreaseFactor 3 \
	nAlphaAdjustMax      3 \
	wolfeEnergy          0.0001 \
	wolfeGradient        0.9 \
	fdTest               no
kpoint   0.000000000000   0.000000000000   0.000000000000  1.00000000000000
kpoint-folding 12 12 1 
latt-move-scale 1 1 1
latt-scale 1.67 1.67 1 
lattice  \
	   4.727486978767153   -2.363743489383575    0.000000000000000  \
	  -0.000000000000000    4.094123819672498    0.000000000000000  \
	   0.000000000000000    0.000000000000000   40.000000000000000 
lattice-minimize  \
	dirUpdateScheme      L-BFGS \
	linminMethod         DirUpdateRecommended \
	nIterations          0 \
	history              15 \
	knormThreshold       0 \
	energyDiffThreshold  1e-06 \
	nEnergyDiff          2 \
	alphaTstart          1 \
	alphaTmin            1e-10 \
	updateTestStepSize   yes \
	alphaTreduceFactor   0.1 \
	alphaTincreaseFactor 3 \
	nAlphaAdjustMax      3 \
	wolfeEnergy          0.0001 \
	wolfeGradient        0.9 \
	fdTest               no
lcao-params -1 1e-06 0.01
pcm-variant GLSSA13
spintype no-spin
subspace-rotation-factor 1 yes
symmetries automatic
symmetry-threshold 0.0001



---------- Setting up symmetries ----------

Found 24 point-group symmetries of the bravais lattice
Found 24 space-group symmetries with basis
Applied RMS atom displacement 0 bohrs to make symmetries exact.

---------- Initializing the Grid ----------
R = 
[       7.8949     -3.94745            0  ]
[            0      6.83719            0  ]
[            0            0           40  ]
unit cell volume = 2159.16
G =
[   0.795853   0.459486         -0  ]
[          0   0.918972         -0  ]
[         -0         -0    0.15708  ]
Minimum fftbox size, Smin = [  32  32  164  ]
Chosen fftbox size, S = [  32  32  168  ]

---------- Exchange Correlation functional ----------
Initalized PBE GGA exchange.
Initalized PBE GGA correlation.

---------- Setting up pseudopotentials ----------
Width of ionic core gaussian charges (only for fluid interactions / plotting) set to 0

Reading pseudopotential file '/home/gridsan/aligho/DFT/build-Nov24/pseudopotentials/SG15/Li_ONCV_PBE.upf':
  'Li' pseudopotential, 'PBE' functional
  Generated using ONCVPSP code by D. R. Hamann
  Author: Martin Schlipf and Francois Gygi  Date: 150915.
  3 valence electrons, 2 orbitals, 4 projectors, 1328 radial grid points, with lMax = 1
  Transforming local potential to a uniform radial grid of dG=0.02 with 1440 points.
  Transforming nonlocal projectors to a uniform radial grid of dG=0.02 with 432 points.
    1S    l: 0   occupation:  2.0   eigenvalue: -1.905623
    2S    l: 0   occupation:  1.0   eigenvalue: -0.105624
  Transforming atomic orbitals to a uniform radial grid of dG=0.02 with 432 points.
  WARNING: large normalization error in atomic orbital 1s (integral: 0.000000).
  Core radius for overlap checks: 1.63 bohrs.
  Reading pulay file /home/gridsan/aligho/DFT/build-Nov24/pseudopotentials/SG15/Li_ONCV_PBE.pulay ... using dE_dnG = -1.230239e-02 computed for Ecut = 20.

Initialized 1 species with 1 total atoms.

Folded 1 k-points by 12x12x1 to 144 k-points.

---------- Setting up k-points, bands, fillings ----------
Reduced to 19 k-points under symmetry. 
Computing the number of bands and number of electrons
Calculating initial fillings.
nElectrons:   3.000000   nBands: 3   nStates: 19

----- Setting up reduced wavefunction bases (one per k-point) -----
average nbasis = 9225.271 , ideal nbasis = 9224.084

---------- Setting up coulomb interaction ----------
Initialized slab truncation along lattice direction 001

---------- Setting up 2D ewald sum ----------
Optimum gaussian width for ewald sums = 4.382932 bohr.
Real space sums over 289 unit cells with max indices [  8  8  0  ]
Reciprocal space sums over 81 terms with max indices [  4  4  0  ]

---------- Allocating electronic variables ----------
Initializing wave functions:  linear combination of atomic orbitals
Note: number of bands (3) exceeds available atomic orbitals (2)
Li pseudo-atom occupations:   s ( 2 1 )
	FillingsUpdate:  mu: +0.275063809  nElectrons: 3.000000
LCAOMinimize: Iter:   0  F: -1.1127470326013074  |grad|_K:  4.983e-03  alpha:  1.000e+00
LCAOMinimize: 	Step increased F by 2.079446e-02, reducing alpha to 1.994842e-01.
	FillingsUpdate:  mu: +0.275014499  nElectrons: 3.000000
LCAOMinimize: Iter:   1  F: -1.1135393625774943  |grad|_K:  4.197e-03  alpha:  1.995e-01  linmin: -1.062e-02  cgtest:  9.513e-01  t[s]:      1.93
LCAOMinimize: Encountered beta<0, resetting CG.
LCAOMinimize: 	Predicted alpha/alphaT>3.000000, increasing alphaT to 5.984526e-01.
LCAOMinimize: 	Predicted alpha/alphaT>3.000000, increasing alphaT to 1.795358e+00.
	FillingsUpdate:  mu: +0.274892529  nElectrons: 3.000000
LCAOMinimize: Iter:   2  F: -1.1150692332434848  |grad|_K:  2.695e-03  alpha:  5.358e-01  linmin: -1.394e-02  cgtest:  7.246e-01  t[s]:      2.55
LCAOMinimize: Encountered beta<0, resetting CG.
LCAOMinimize: 	Predicted alpha/alphaT>3.000000, increasing alphaT to 1.607440e+00.
	FillingsUpdate:  mu: +0.274730850  nElectrons: 3.000000
LCAOMinimize: Iter:   3  F: -1.1159023813814015  |grad|_K:  5.543e-04  alpha:  8.569e-01  linmin: -1.658e-02  cgtest:  6.680e-01  t[s]:      3.04
LCAOMinimize: Encountered beta<0, resetting CG.
	FillingsUpdate:  mu: +0.274690389  nElectrons: 3.000000
LCAOMinimize: Iter:   4  F: -1.1159291599716195  |grad|_K:  3.094e-05  alpha:  1.035e+00  linmin:  1.709e-02  cgtest: -9.148e-01  t[s]:      3.41
LCAOMinimize: 	Bad step direction: g.d > 0.
LCAOMinimize: 	Undoing step.
LCAOMinimize: 	Step failed: resetting search direction.
	FillingsUpdate:  mu: +0.274690389  nElectrons: 3.000000
LCAOMinimize: Iter:   5  F: -1.1159291599716195  |grad|_K:  3.094e-05  alpha:  0.000e+00
	FillingsUpdate:  mu: +0.274692464  nElectrons: 3.000000
LCAOMinimize: Iter:   6  F: -1.1159292401390022  |grad|_K:  1.412e-07  alpha:  9.796e-01  linmin: -9.708e-03  cgtest:  3.788e-01  t[s]:      3.97
LCAOMinimize: Encountered beta<0, resetting CG.
LCAOMinimize: 	Predicted alpha/alphaT>3.000000, increasing alphaT to 2.938772e+00.
	FillingsUpdate:  mu: +0.274692466  nElectrons: 3.000000
LCAOMinimize: Iter:   7  F: -1.1159292401426559  |grad|_K:  1.109e-08  alpha:  1.110e+00  linmin:  5.856e-02  cgtest: -9.314e-01  t[s]:      4.48
LCAOMinimize: Converged (|Delta F|<1.000000e-06 for 2 iters).


---- Citations for features of the code used in this run ----

   Software package:
      R. Sundararaman, K. Letchworth-Weaver, K.A. Schwarz, D. Gunceler, Y. Ozhabes and T.A. Arias, 'JDFTx: software for joint density-functional theory', SoftwareX 6, 278 (2017)

   gga-PBE exchange-correlation functional:
      J.P. Perdew, K. Burke and M. Ernzerhof, Phys. Rev. Lett. 77, 3865 (1996)

   Pseudopotentials:
      M Schlipf and F Gygi, Comput. Phys. Commun. 196, 36 (2015)

   Truncated Coulomb potentials:
      R. Sundararaman and T.A. Arias, Phys. Rev. B 87, 165122 (2013)

This list may not be complete. Please suggest additional citations or
report any other bugs at https://github.com/shankar1729/jdftx/issues

Initialization completed successfully at t[s]:      4.51


-------- Electronic minimization -----------
Will mix electronic density at each iteration.
	FillingsUpdate:  mu: +0.274692466  nElectrons: 3.000000
[d-16-6-2:86484] 18 more processes have sent help message help-mpi-common-cuda.txt / dlopen failed
[d-16-6-2:86484] Set MCA parameter "orte_base_help_aggregate" to 0 to see all help / error messages
[d-16-6-2:86484] 18 more processes have sent help message help-mpi-btl-openib-cpc-base.txt / no cpcs for port
	FillingsUpdate:  mu: -1.218358972  nElectrons: 3.000000
SCF: Cycle:  0   F: -6.496800384148528   dF: -5.381e+00   |Residual|: 1.071e+00   |deigs|: 4.162e+00  t[s]:      5.08
	FillingsUpdate:  mu: -1.123947167  nElectrons: 3.000000
SCF: Cycle:  1   F: -6.965639073162307   dF: -4.688e-01   |Residual|: 7.941e-01   |deigs|: 3.134e-01  t[s]:      5.48
	FillingsUpdate:  mu: -0.806392894  nElectrons: 3.000000
SCF: Cycle:  2   F: -7.035743951681984   dF: -7.010e-02   |Residual|: 7.911e-01   |deigs|: 1.052e+00  t[s]:      5.89
	FillingsUpdate:  mu: -0.891690774  nElectrons: 3.000000
SCF: Cycle:  3   F: -7.066730813940701   dF: -3.099e-02   |Residual|: 3.020e-01   |deigs|: 2.996e-01  t[s]:      6.30
	FillingsUpdate:  mu: -0.874164365  nElectrons: 3.000000
SCF: Cycle:  4   F: -7.067555757967698   dF: -8.249e-04   |Residual|: 4.534e-02   |deigs|: 9.174e-02  t[s]:      6.72
	FillingsUpdate:  mu: -0.802125270  nElectrons: 3.000000
SCF: Cycle:  5   F: -7.033868908689260   dF: +3.369e-02   |Residual|: 8.201e-01   |deigs|: 2.957e-01  t[s]:      7.14
	FillingsUpdate:  mu: -0.844912222  nElectrons: 3.000000
SCF: Cycle:  6   F: -7.016258227420487   dF: +1.761e-02   |Residual|: 1.042e+00   |deigs|: 1.144e-01  t[s]:      7.57
	FillingsUpdate:  mu: -0.619086596  nElectrons: 3.000000
SCF: Cycle:  7   F: -7.053284898636712   dF: -3.703e-02   |Residual|: 4.761e-01   |deigs|: 3.897e-01  t[s]:      8.00
	FillingsUpdate:  mu: -0.580561612  nElectrons: 3.000000
SCF: Cycle:  8   F: -7.030268924106204   dF: +2.302e-02   |Residual|: 1.027e+00   |deigs|: 1.765e-01  t[s]:      8.44
	FillingsUpdate:  mu: -0.443143238  nElectrons: 3.000000
SCF: Cycle:  9   F: -7.065757024146778   dF: -3.549e-02   |Residual|: 5.453e-01   |deigs|: 2.832e-01  t[s]:      8.89
	FillingsUpdate:  mu: -0.355082266  nElectrons: 3.000000
SCF: Cycle: 10   F: -7.079153174102434   dF: -1.340e-02   |Residual|: 2.053e-01   |deigs|: 2.139e-01  t[s]:      9.33
	FillingsUpdate:  mu: -0.292698265  nElectrons: 3.000000
SCF: Cycle: 11   F: -7.084533326404900   dF: -5.380e-03   |Residual|: 3.822e-02   |deigs|: 1.646e-01  t[s]:      9.77
	FillingsUpdate:  mu: -0.199118228  nElectrons: 3.000000
SCF: Cycle: 12   F: -7.082908094510246   dF: +1.625e-03   |Residual|: 2.685e-01   |deigs|: 7.694e-02  t[s]:     10.23
	FillingsUpdate:  mu: -0.127675076  nElectrons: 3.000000
SCF: Cycle: 13   F: -7.083724878187397   dF: -8.168e-04   |Residual|: 1.918e-01   |deigs|: 9.735e-02  t[s]:     10.68
	FillingsUpdate:  mu: -0.125661505  nElectrons: 3.000000
SCF: Cycle: 14   F: -7.084981209221032   dF: -1.256e-03   |Residual|: 9.831e-02   |deigs|: 7.177e-02  t[s]:     11.13
	FillingsUpdate:  mu: -0.107374061  nElectrons: 3.000000
SCF: Cycle: 15   F: -7.084719249503208   dF: +2.620e-04   |Residual|: 1.561e-01   |deigs|: 2.330e-02  t[s]:     11.61
	FillingsUpdate:  mu: -0.117868409  nElectrons: 3.000000
SCF: Cycle: 16   F: -7.085567983947151   dF: -8.487e-04   |Residual|: 5.885e-03   |deigs|: 4.625e-02  t[s]:     12.05
	FillingsUpdate:  mu: -0.120249394  nElectrons: 3.000000
SCF: Cycle: 17   F: -7.085595697240315   dF: -2.771e-05   |Residual|: 3.491e-03   |deigs|: 2.266e-03  t[s]:     12.49
	FillingsUpdate:  mu: -0.116897029  nElectrons: 3.000000
SCF: Cycle: 18   F: -7.085614303701862   dF: -1.861e-05   |Residual|: 4.562e-03   |deigs|: 2.662e-03  t[s]:     12.98
	FillingsUpdate:  mu: -0.117140552  nElectrons: 3.000000
SCF: Cycle: 19   F: -7.085615854887449   dF: -1.551e-06   |Residual|: 5.746e-04   |deigs|: 1.464e-03  t[s]:     13.41
	FillingsUpdate:  mu: -0.116771292  nElectrons: 3.000000
SCF: Cycle: 20   F: -7.085617203871460   dF: -1.349e-06   |Residual|: 3.263e-04   |deigs|: 2.602e-04  t[s]:     13.86
	FillingsUpdate:  mu: -0.116788270  nElectrons: 3.000000
SCF: Cycle: 21   F: -7.085617257114071   dF: -5.324e-08   |Residual|: 1.219e-04   |deigs|: 2.156e-04  t[s]:     14.31
	FillingsUpdate:  mu: -0.117062438  nElectrons: 3.000000
SCF: Cycle: 22   F: -7.085617481300920   dF: -2.242e-07   |Residual|: 3.496e-04   |deigs|: 1.781e-03  t[s]:     14.77
	FillingsUpdate:  mu: -0.117006722  nElectrons: 3.000000
SCF: Cycle: 23   F: -7.085617682080769   dF: -2.008e-07   |Residual|: 4.165e-05   |deigs|: 4.483e-04  t[s]:     15.20
	FillingsUpdate:  mu: -0.117081766  nElectrons: 3.000000
SCF: Cycle: 24   F: -7.085617726167651   dF: -4.409e-08   |Residual|: 3.934e-05   |deigs|: 7.467e-05  t[s]:     15.63
	FillingsUpdate:  mu: -0.117391590  nElectrons: 3.000000
SCF: Cycle: 25   F: -7.085617765815462   dF: -3.965e-08   |Residual|: 2.506e-05   |deigs|: 3.103e-04  t[s]:     16.07
	FillingsUpdate:  mu: -0.117388662  nElectrons: 3.000000
SCF: Cycle: 26   F: -7.085617780588118   dF: -1.477e-08   |Residual|: 9.046e-06   |deigs|: 1.623e-04  t[s]:     16.51
	FillingsUpdate:  mu: -0.117405044  nElectrons: 3.000000
SCF: Cycle: 27   F: -7.085617808928756   dF: -2.834e-08   |Residual|: 6.138e-06   |deigs|: 3.357e-04  t[s]:     16.94
	FillingsUpdate:  mu: -0.117396525  nElectrons: 3.000000
SCF: Cycle: 28   F: -7.085617814799615   dF: -5.871e-09   |Residual|: 5.225e-06   |deigs|: 1.578e-05  t[s]:     17.38
	FillingsUpdate:  mu: -0.117403070  nElectrons: 3.000000
SCF: Cycle: 29   F: -7.085617816401325   dF: -1.602e-09   |Residual|: 3.011e-06   |deigs|: 1.106e-05  t[s]:     17.83
SCF: Converged (|Delta E|<1.000000e-08 for 2 iters).


# Ionic positions in lattice coordinates:
ion Li   0.000000000000000   0.000000000000000   0.000000000000000 0

# Forces in Lattice coordinates:
force Li   0.000000000000000  -0.000000000000000   0.000000000000000 0

# Energy components:
   Eewald =       -2.4016002794853839
       EH =        1.1749162264434099
     Eloc =       -5.4514391644257421
      Enl =       -3.5899817263520659
   Epulay =        0.0000067635287921
      Exc =       -1.5521297518806867
       KE =        4.7416374287523073
-------------------------------------
     Etot =       -7.0785905034193686
       TS =        0.0070273129819568
-------------------------------------
        F =       -7.0856178164013253

IonicMinimize: Iter:   0  F: -7.085617816401325  |grad|_K:  0.000e+00  t[s]:     17.86
IonicMinimize: Converged (|grad|_K<1.000000e-04).

#--- Lowdin population analysis ---
# oxidation-state Li +2.164

End date and time: Sun Jan 16 15:07:45 2022  (Duration: 0-0:00:17.87)
Done!
