2.12
--------------------------------------------------------------------------
The library attempted to open the following supporting CUDA libraries,
but each of them failed.  CUDA-aware support is disabled.
libcuda.so.1: cannot open shared object file: No such file or directory
libcuda.dylib: cannot open shared object file: No such file or directory
/usr/lib64/libcuda.so.1: cannot open shared object file: No such file or directory
/usr/lib64/libcuda.dylib: cannot open shared object file: No such file or directory
If you are not interested in CUDA-aware support, then run with
--mca opal_warn_on_missing_libcuda 0 to suppress this message.  If you are interested
in CUDA-aware support, then try setting LD_LIBRARY_PATH to the location
of libcuda.so.1 to get passed this issue.
--------------------------------------------------------------------------
--------------------------------------------------------------------------
No OpenFabrics connection schemes reported that they were able to be
used on a specific port.  As such, the openib BTL (OpenFabrics
support) will be disabled for this port.

  Local host:           d-4-4-1
  Local device:         mlx5_1
  Local port:           1
  CPCs attempted:       rdmacm, udcm
--------------------------------------------------------------------------

*************** JDFTx 1.6.0 (git hash 42ebbcc2) ***************

Start date and time: Sun Jan 16 15:08:05 2022
Executable jdftx with command-line: -i Lithium.in
Running on hosts (process indices):  d-4-4-1 (0-18)
Divided in process groups (process indices):  0 (0)  1 (1)  2 (2)  3 (3)  4 (4)  5 (5)  6 (6)  7 (7)  8 (8)  9 (9)  10 (10)  11 (11)  12 (12)  13 (13)  14 (14)  15 (15)  16 (16)  17 (17)  18 (18)
Resource initialization completed at t[s]:      0.00
Run totals: 19 processes, 48 threads, 0 GPUs


Input parsed successfully to the following command list (including defaults):

basis kpoint-dependent
coords-type Lattice
core-overlap-check vector
coulomb-interaction Slab 001
davidson-band-ratio 1.1
dump End None
dump-name $INPUT.$VAR
elec-cutoff 20
elec-eigen-algo Davidson
elec-ex-corr gga-PBE
elec-smearing Fermi 0.01
electronic-minimize  \
	dirUpdateScheme      FletcherReeves \
	linminMethod         DirUpdateRecommended \
	nIterations          100 \
	history              15 \
	knormThreshold       0 \
	energyDiffThreshold  1e-08 \
	nEnergyDiff          2 \
	alphaTstart          1 \
	alphaTmin            1e-10 \
	updateTestStepSize   yes \
	alphaTreduceFactor   0.1 \
	alphaTincreaseFactor 3 \
	nAlphaAdjustMax      3 \
	wolfeEnergy          0.0001 \
	wolfeGradient        0.9 \
	fdTest               no
electronic-scf  \
	nIterations	10000 \
	energyDiffThreshold	1e-08 \
	residualThreshold	1e-07 \
	mixFraction	0.5 \
	qMetric	0.8 \
	history	10 \
	nEigSteps	2 \
	eigDiffThreshold	1e-08 \
	mixedVariable	Density \
	qKerker	0.8 \
	qKappa	-1 \
	verbose	no \
	mixFractionMag	1.5
exchange-regularization WignerSeitzTruncated
fluid None
fluid-ex-corr (null) lda-PZ
fluid-gummel-loop 10 1.000000e-05
fluid-minimize  \
	dirUpdateScheme      PolakRibiere \
	linminMethod         DirUpdateRecommended \
	nIterations          100 \
	history              15 \
	knormThreshold       0 \
	energyDiffThreshold  0 \
	nEnergyDiff          2 \
	alphaTstart          1 \
	alphaTmin            1e-10 \
	updateTestStepSize   yes \
	alphaTreduceFactor   0.1 \
	alphaTincreaseFactor 3 \
	nAlphaAdjustMax      3 \
	wolfeEnergy          0.0001 \
	wolfeGradient        0.9 \
	fdTest               no
fluid-solvent H2O 55.338 ScalarEOS \
	epsBulk 78.4 \
	pMol 0.92466 \
	epsInf 1.77 \
	Pvap 1.06736e-10 \
	sigmaBulk 4.62e-05 \
	Rvdw 2.61727 \
	Res 1.42 \
	tauNuc 343133 \
	poleEl 15 7 1
forces-output-coords Positions
ion Li   0.000000000000000   0.000000000000000   0.000000000000000 0
ion-species SG15/$ID_ONCV_PBE.upf
ion-width 0
ionic-minimize  \
	dirUpdateScheme      L-BFGS \
	linminMethod         DirUpdateRecommended \
	nIterations          0 \
	history              15 \
	knormThreshold       0.0001 \
	energyDiffThreshold  1e-06 \
	nEnergyDiff          2 \
	alphaTstart          1 \
	alphaTmin            1e-10 \
	updateTestStepSize   yes \
	alphaTreduceFactor   0.1 \
	alphaTincreaseFactor 3 \
	nAlphaAdjustMax      3 \
	wolfeEnergy          0.0001 \
	wolfeGradient        0.9 \
	fdTest               no
kpoint   0.000000000000   0.000000000000   0.000000000000  1.00000000000000
kpoint-folding 12 12 1 
latt-move-scale 1 1 1
latt-scale 2.12 2.12 1 
lattice  \
	   4.727486978767153   -2.363743489383574    0.000000000000000  \
	  -0.000000000000000    4.094123819672498    0.000000000000000  \
	   0.000000000000000    0.000000000000000   40.000000000000000 
lattice-minimize  \
	dirUpdateScheme      L-BFGS \
	linminMethod         DirUpdateRecommended \
	nIterations          0 \
	history              15 \
	knormThreshold       0 \
	energyDiffThreshold  1e-06 \
	nEnergyDiff          2 \
	alphaTstart          1 \
	alphaTmin            1e-10 \
	updateTestStepSize   yes \
	alphaTreduceFactor   0.1 \
	alphaTincreaseFactor 3 \
	nAlphaAdjustMax      3 \
	wolfeEnergy          0.0001 \
	wolfeGradient        0.9 \
	fdTest               no
lcao-params -1 1e-06 0.01
pcm-variant GLSSA13
spintype no-spin
subspace-rotation-factor 1 yes
symmetries automatic
symmetry-threshold 0.0001



---------- Setting up symmetries ----------

Found 24 point-group symmetries of the bravais lattice
Found 24 space-group symmetries with basis
Applied RMS atom displacement 0 bohrs to make symmetries exact.

---------- Initializing the Grid ----------
R = 
[      10.0223     -5.01114            0  ]
[            0      8.67954            0  ]
[            0            0           40  ]
unit cell volume = 3479.55
G =
[   0.626922   0.361954         -0  ]
[          0   0.723907         -0  ]
[         -0         -0    0.15708  ]
Minimum fftbox size, Smin = [  44  44  164  ]
Chosen fftbox size, S = [  48  48  168  ]

---------- Exchange Correlation functional ----------
Initalized PBE GGA exchange.
Initalized PBE GGA correlation.

---------- Setting up pseudopotentials ----------
Width of ionic core gaussian charges (only for fluid interactions / plotting) set to 0

Reading pseudopotential file '/home/gridsan/aligho/DFT/build-Nov24/pseudopotentials/SG15/Li_ONCV_PBE.upf':
  'Li' pseudopotential, 'PBE' functional
  Generated using ONCVPSP code by D. R. Hamann
  Author: Martin Schlipf and Francois Gygi  Date: 150915.
  3 valence electrons, 2 orbitals, 4 projectors, 1328 radial grid points, with lMax = 1
  Transforming local potential to a uniform radial grid of dG=0.02 with 1648 points.
  Transforming nonlocal projectors to a uniform radial grid of dG=0.02 with 432 points.
    1S    l: 0   occupation:  2.0   eigenvalue: -1.905623
    2S    l: 0   occupation:  1.0   eigenvalue: -0.105624
  Transforming atomic orbitals to a uniform radial grid of dG=0.02 with 432 points.
  WARNING: large normalization error in atomic orbital 1s (integral: 0.000000).
  Core radius for overlap checks: 1.63 bohrs.
  Reading pulay file /home/gridsan/aligho/DFT/build-Nov24/pseudopotentials/SG15/Li_ONCV_PBE.pulay ... using dE_dnG = -1.230239e-02 computed for Ecut = 20.

Initialized 1 species with 1 total atoms.

Folded 1 k-points by 12x12x1 to 144 k-points.

---------- Setting up k-points, bands, fillings ----------
Reduced to 19 k-points under symmetry. 
Computing the number of bands and number of electrons
Calculating initial fillings.
nElectrons:   3.000000   nBands: 3   nStates: 19

----- Setting up reduced wavefunction bases (one per k-point) -----
average nbasis = 14866.396 , ideal nbasis = 14864.901

---------- Setting up coulomb interaction ----------
Initialized slab truncation along lattice direction 001

---------- Setting up 2D ewald sum ----------
Optimum gaussian width for ewald sums = 5.563961 bohr.
Real space sums over 289 unit cells with max indices [  8  8  0  ]
Reciprocal space sums over 81 terms with max indices [  4  4  0  ]

---------- Allocating electronic variables ----------
Initializing wave functions:  linear combination of atomic orbitals
Note: number of bands (3) exceeds available atomic orbitals (2)
Li pseudo-atom occupations:   s ( 2 1 )
	FillingsUpdate:  mu: +0.314358388  nElectrons: 3.000000
LCAOMinimize: Iter:   0  F: -1.2137937545168105  |grad|_K:  3.874e-03  alpha:  1.000e+00
	FillingsUpdate:  mu: +0.314235076  nElectrons: 3.000000
LCAOMinimize: Iter:   1  F: -1.2146779035702904  |grad|_K:  3.524e-03  alpha:  1.411e+00  linmin:  1.887e-02  cgtest: -4.468e-01  t[s]:      2.93
LCAOMinimize: 	Bad step direction: g.d > 0.
LCAOMinimize: 	Undoing step.
LCAOMinimize: 	Step failed: resetting search direction.
	FillingsUpdate:  mu: +0.314235076  nElectrons: 3.000000
LCAOMinimize: Iter:   2  F: -1.2146779035702904  |grad|_K:  3.524e-03  alpha:  0.000e+00
	FillingsUpdate:  mu: +0.314274456  nElectrons: 3.000000
LCAOMinimize: Iter:   3  F: -1.2154487723890377  |grad|_K:  1.709e-04  alpha:  9.225e-01  linmin: -1.515e-02  cgtest:  1.455e+00  t[s]:      4.05
LCAOMinimize: Encountered beta<0, resetting CG.
	FillingsUpdate:  mu: +0.314277563  nElectrons: 3.000000
LCAOMinimize: Iter:   4  F: -1.2154512388129333  |grad|_K:  3.741e-06  alpha:  9.864e-01  linmin: -1.756e-02  cgtest:  6.814e-01  t[s]:      4.73
LCAOMinimize: Encountered beta<0, resetting CG.
[d-4-4-1:62776] 18 more processes have sent help message help-mpi-common-cuda.txt / dlopen failed
[d-4-4-1:62776] Set MCA parameter "orte_base_help_aggregate" to 0 to see all help / error messages
[d-4-4-1:62776] 18 more processes have sent help message help-mpi-btl-openib-cpc-base.txt / no cpcs for port
	FillingsUpdate:  mu: +0.314277652  nElectrons: 3.000000
LCAOMinimize: Iter:   5  F: -1.2154512400623048  |grad|_K:  9.336e-08  alpha:  1.044e+00  linmin: -1.860e-03  cgtest:  3.582e-02  t[s]:      5.48
LCAOMinimize: Encountered beta<0, resetting CG.
LCAOMinimize: 	Wrong curvature in test step, increasing alphaT to 3.132688e+00.
	FillingsUpdate:  mu: +0.314277652  nElectrons: 3.000000
LCAOMinimize: Iter:   6  F: -1.2154512400640112  |grad|_K:  3.665e-09  alpha: -5.414e+00  linmin:  1.716e-02  cgtest: -7.263e-01  t[s]:      6.16
LCAOMinimize: Converged (|Delta F|<1.000000e-06 for 2 iters).


---- Citations for features of the code used in this run ----

   Software package:
      R. Sundararaman, K. Letchworth-Weaver, K.A. Schwarz, D. Gunceler, Y. Ozhabes and T.A. Arias, 'JDFTx: software for joint density-functional theory', SoftwareX 6, 278 (2017)

   gga-PBE exchange-correlation functional:
      J.P. Perdew, K. Burke and M. Ernzerhof, Phys. Rev. Lett. 77, 3865 (1996)

   Pseudopotentials:
      M Schlipf and F Gygi, Comput. Phys. Commun. 196, 36 (2015)

   Truncated Coulomb potentials:
      R. Sundararaman and T.A. Arias, Phys. Rev. B 87, 165122 (2013)

This list may not be complete. Please suggest additional citations or
report any other bugs at https://github.com/shankar1729/jdftx/issues

Initialization completed successfully at t[s]:      6.20


-------- Electronic minimization -----------
Will mix electronic density at each iteration.
	FillingsUpdate:  mu: +0.314277652  nElectrons: 3.000000
	FillingsUpdate:  mu: -0.927467388  nElectrons: 3.000000
SCF: Cycle:  0   F: -6.867685458028169   dF: -5.652e+00   |Residual|: 1.181e+00   |deigs|: 4.163e+00  t[s]:      7.35
	FillingsUpdate:  mu: -0.815381287  nElectrons: 3.000000
SCF: Cycle:  1   F: -6.935190130196323   dF: -6.750e-02   |Residual|: 7.703e-01   |deigs|: 2.479e-01  t[s]:      8.25
	FillingsUpdate:  mu: -0.557247939  nElectrons: 3.000000
SCF: Cycle:  2   F: -7.053687564591449   dF: -1.185e-01   |Residual|: 3.990e-01   |deigs|: 7.742e-01  t[s]:      9.16
	FillingsUpdate:  mu: -0.604076962  nElectrons: 3.000000
SCF: Cycle:  3   F: -7.060093982017637   dF: -6.406e-03   |Residual|: 1.990e-01   |deigs|: 1.261e-01  t[s]:     10.04
	FillingsUpdate:  mu: -0.560853692  nElectrons: 3.000000
SCF: Cycle:  4   F: -7.056517492619073   dF: +3.576e-03   |Residual|: 1.127e-01   |deigs|: 4.252e-02  t[s]:     10.97
	FillingsUpdate:  mu: -0.535943658  nElectrons: 3.000000
SCF: Cycle:  5   F: -7.057472806763391   dF: -9.553e-04   |Residual|: 7.842e-02   |deigs|: 3.354e-02  t[s]:     11.87
	FillingsUpdate:  mu: -0.380572175  nElectrons: 3.000000
SCF: Cycle:  6   F: -7.061743145645337   dF: -4.270e-03   |Residual|: 2.751e-01   |deigs|: 2.750e-01  t[s]:     12.81
	FillingsUpdate:  mu: -0.337158413  nElectrons: 3.000000
SCF: Cycle:  7   F: -7.061267308922945   dF: +4.758e-04   |Residual|: 4.308e-01   |deigs|: 2.202e-01  t[s]:     13.77
	FillingsUpdate:  mu: -0.299748676  nElectrons: 3.000000
SCF: Cycle:  8   F: -7.063470916121116   dF: -2.204e-03   |Residual|: 3.061e-01   |deigs|: 5.196e-02  t[s]:     14.78
	FillingsUpdate:  mu: -0.195225084  nElectrons: 3.000000
SCF: Cycle:  9   F: -7.056233556136633   dF: +7.237e-03   |Residual|: 4.775e-01   |deigs|: 3.114e-01  t[s]:     15.79
	FillingsUpdate:  mu: -0.194125287  nElectrons: 3.000000
SCF: Cycle: 10   F: -7.066762859243615   dF: -1.053e-02   |Residual|: 1.555e-01   |deigs|: 9.434e-02  t[s]:     16.88
	FillingsUpdate:  mu: -0.142905664  nElectrons: 3.000000
SCF: Cycle: 11   F: -7.068477164768797   dF: -1.714e-03   |Residual|: 2.873e-02   |deigs|: 4.307e-02  t[s]:     17.90
	FillingsUpdate:  mu: -0.131384088  nElectrons: 3.000000
SCF: Cycle: 12   F: -7.068686675253272   dF: -2.095e-04   |Residual|: 1.044e-01   |deigs|: 2.152e-02  t[s]:     18.94
	FillingsUpdate:  mu: -0.101115978  nElectrons: 3.000000
SCF: Cycle: 13   F: -7.068834995708853   dF: -1.483e-04   |Residual|: 1.418e-02   |deigs|: 2.454e-02  t[s]:     19.97
	FillingsUpdate:  mu: -0.108935864  nElectrons: 3.000000
SCF: Cycle: 14   F: -7.069120288260191   dF: -2.853e-04   |Residual|: 4.542e-03   |deigs|: 1.662e-02  t[s]:     20.98
	FillingsUpdate:  mu: -0.114222938  nElectrons: 3.000000
SCF: Cycle: 15   F: -7.069171938219803   dF: -5.165e-05   |Residual|: 9.775e-03   |deigs|: 1.081e-02  t[s]:     22.04
	FillingsUpdate:  mu: -0.111427447  nElectrons: 3.000000
SCF: Cycle: 16   F: -7.069184483142624   dF: -1.254e-05   |Residual|: 8.565e-04   |deigs|: 7.933e-03  t[s]:     23.07
	FillingsUpdate:  mu: -0.111746618  nElectrons: 3.000000
SCF: Cycle: 17   F: -7.069186286388032   dF: -1.803e-06   |Residual|: 4.167e-04   |deigs|: 8.289e-04  t[s]:     24.06
	FillingsUpdate:  mu: -0.111492868  nElectrons: 3.000000
SCF: Cycle: 18   F: -7.069187256105415   dF: -9.697e-07   |Residual|: 2.264e-04   |deigs|: 2.714e-04  t[s]:     25.12
	FillingsUpdate:  mu: -0.111464490  nElectrons: 3.000000
SCF: Cycle: 19   F: -7.069187447160102   dF: -1.911e-07   |Residual|: 7.195e-05   |deigs|: 1.107e-04  t[s]:     26.13
	FillingsUpdate:  mu: -0.111412862  nElectrons: 3.000000
SCF: Cycle: 20   F: -7.069187538316142   dF: -9.116e-08   |Residual|: 4.450e-05   |deigs|: 7.074e-05  t[s]:     27.12
	FillingsUpdate:  mu: -0.111562099  nElectrons: 3.000000
SCF: Cycle: 21   F: -7.069187586834516   dF: -4.852e-08   |Residual|: 3.833e-05   |deigs|: 1.542e-04  t[s]:     28.13
	FillingsUpdate:  mu: -0.111564666  nElectrons: 3.000000
SCF: Cycle: 22   F: -7.069187610035617   dF: -2.320e-08   |Residual|: 8.583e-06   |deigs|: 2.421e-05  t[s]:     29.17
	FillingsUpdate:  mu: -0.111572861  nElectrons: 3.000000
SCF: Cycle: 23   F: -7.069187621252564   dF: -1.122e-08   |Residual|: 7.449e-06   |deigs|: 1.205e-05  t[s]:     30.22
	FillingsUpdate:  mu: -0.111573458  nElectrons: 3.000000
SCF: Cycle: 24   F: -7.069187625996576   dF: -4.744e-09   |Residual|: 1.327e-06   |deigs|: 3.229e-06  t[s]:     31.23
	FillingsUpdate:  mu: -0.111576357  nElectrons: 3.000000
SCF: Cycle: 25   F: -7.069187629268786   dF: -3.272e-09   |Residual|: 6.006e-07   |deigs|: 4.215e-06  t[s]:     32.25
SCF: Converged (|Delta E|<1.000000e-08 for 2 iters).


# Ionic positions in lattice coordinates:
ion Li   0.000000000000000   0.000000000000000   0.000000000000000 0

# Forces in Lattice coordinates:
force Li   0.000000000000000  -0.000000000000000   0.000000000000000 0

# Energy components:
   Eewald =       -1.8918266352549957
       EH =        1.6345571182574403
     Eloc =       -6.4086787440152726
      Enl =       -3.5913986745291786
   Epulay =        0.0000052854673500
      Exc =       -1.5338161268333412
       KE =        4.7319210439733235
-------------------------------------
     Etot =       -7.0592367329346759
       TS =        0.0099508963341103
-------------------------------------
        F =       -7.0691876292687859

IonicMinimize: Iter:   0  F: -7.069187629268786  |grad|_K:  0.000e+00  t[s]:     32.32
IonicMinimize: Converged (|grad|_K<1.000000e-04).

#--- Lowdin population analysis ---
# oxidation-state Li +2.188

End date and time: Sun Jan 16 15:08:38 2022  (Duration: 0-0:00:32.32)
Done!
