2.9
--------------------------------------------------------------------------
The library attempted to open the following supporting CUDA libraries,
but each of them failed.  CUDA-aware support is disabled.
libcuda.so.1: cannot open shared object file: No such file or directory
libcuda.dylib: cannot open shared object file: No such file or directory
/usr/lib64/libcuda.so.1: cannot open shared object file: No such file or directory
/usr/lib64/libcuda.dylib: cannot open shared object file: No such file or directory
If you are not interested in CUDA-aware support, then run with
--mca opal_warn_on_missing_libcuda 0 to suppress this message.  If you are interested
in CUDA-aware support, then try setting LD_LIBRARY_PATH to the location
of libcuda.so.1 to get passed this issue.
--------------------------------------------------------------------------
--------------------------------------------------------------------------
No OpenFabrics connection schemes reported that they were able to be
used on a specific port.  As such, the openib BTL (OpenFabrics
support) will be disabled for this port.

  Local host:           d-4-4-1
  Local device:         mlx5_1
  Local port:           1
  CPCs attempted:       rdmacm, udcm
--------------------------------------------------------------------------

*************** JDFTx 1.6.0 (git hash 42ebbcc2) ***************

Start date and time: Sun Jan 16 15:09:16 2022
Executable jdftx with command-line: -i Lithium.in
Running on hosts (process indices):  d-4-4-1 (0-18)
Divided in process groups (process indices):  0 (0)  1 (1)  2 (2)  3 (3)  4 (4)  5 (5)  6 (6)  7 (7)  8 (8)  9 (9)  10 (10)  11 (11)  12 (12)  13 (13)  14 (14)  15 (15)  16 (16)  17 (17)  18 (18)
Resource initialization completed at t[s]:      0.00
Run totals: 19 processes, 48 threads, 0 GPUs


Input parsed successfully to the following command list (including defaults):

basis kpoint-dependent
coords-type Lattice
core-overlap-check vector
coulomb-interaction Slab 001
davidson-band-ratio 1.1
dump End None
dump-name $INPUT.$VAR
elec-cutoff 20
elec-eigen-algo Davidson
elec-ex-corr gga-PBE
elec-smearing Fermi 0.01
electronic-minimize  \
	dirUpdateScheme      FletcherReeves \
	linminMethod         DirUpdateRecommended \
	nIterations          100 \
	history              15 \
	knormThreshold       0 \
	energyDiffThreshold  1e-08 \
	nEnergyDiff          2 \
	alphaTstart          1 \
	alphaTmin            1e-10 \
	updateTestStepSize   yes \
	alphaTreduceFactor   0.1 \
	alphaTincreaseFactor 3 \
	nAlphaAdjustMax      3 \
	wolfeEnergy          0.0001 \
	wolfeGradient        0.9 \
	fdTest               no
electronic-scf  \
	nIterations	10000 \
	energyDiffThreshold	1e-08 \
	residualThreshold	1e-07 \
	mixFraction	0.5 \
	qMetric	0.8 \
	history	10 \
	nEigSteps	2 \
	eigDiffThreshold	1e-08 \
	mixedVariable	Density \
	qKerker	0.8 \
	qKappa	-1 \
	verbose	no \
	mixFractionMag	1.5
exchange-regularization WignerSeitzTruncated
fluid None
fluid-ex-corr (null) lda-PZ
fluid-gummel-loop 10 1.000000e-05
fluid-minimize  \
	dirUpdateScheme      PolakRibiere \
	linminMethod         DirUpdateRecommended \
	nIterations          100 \
	history              15 \
	knormThreshold       0 \
	energyDiffThreshold  0 \
	nEnergyDiff          2 \
	alphaTstart          1 \
	alphaTmin            1e-10 \
	updateTestStepSize   yes \
	alphaTreduceFactor   0.1 \
	alphaTincreaseFactor 3 \
	nAlphaAdjustMax      3 \
	wolfeEnergy          0.0001 \
	wolfeGradient        0.9 \
	fdTest               no
fluid-solvent H2O 55.338 ScalarEOS \
	epsBulk 78.4 \
	pMol 0.92466 \
	epsInf 1.77 \
	Pvap 1.06736e-10 \
	sigmaBulk 4.62e-05 \
	Rvdw 2.61727 \
	Res 1.42 \
	tauNuc 343133 \
	poleEl 15 7 1
forces-output-coords Positions
ion Li   0.000000000000000   0.000000000000000   0.000000000000000 0
ion-species SG15/$ID_ONCV_PBE.upf
ion-width 0
ionic-minimize  \
	dirUpdateScheme      L-BFGS \
	linminMethod         DirUpdateRecommended \
	nIterations          0 \
	history              15 \
	knormThreshold       0.0001 \
	energyDiffThreshold  1e-06 \
	nEnergyDiff          2 \
	alphaTstart          1 \
	alphaTmin            1e-10 \
	updateTestStepSize   yes \
	alphaTreduceFactor   0.1 \
	alphaTincreaseFactor 3 \
	nAlphaAdjustMax      3 \
	wolfeEnergy          0.0001 \
	wolfeGradient        0.9 \
	fdTest               no
kpoint   0.000000000000   0.000000000000   0.000000000000  1.00000000000000
kpoint-folding 12 12 1 
latt-move-scale 1 1 1
latt-scale 2.9 2.9 1 
lattice  \
	   4.727486978767153   -2.363743489383575    0.000000000000000  \
	  -0.000000000000000    4.094123819672498    0.000000000000000  \
	   0.000000000000000    0.000000000000000   40.000000000000000 
lattice-minimize  \
	dirUpdateScheme      L-BFGS \
	linminMethod         DirUpdateRecommended \
	nIterations          0 \
	history              15 \
	knormThreshold       0 \
	energyDiffThreshold  1e-06 \
	nEnergyDiff          2 \
	alphaTstart          1 \
	alphaTmin            1e-10 \
	updateTestStepSize   yes \
	alphaTreduceFactor   0.1 \
	alphaTincreaseFactor 3 \
	nAlphaAdjustMax      3 \
	wolfeEnergy          0.0001 \
	wolfeGradient        0.9 \
	fdTest               no
lcao-params -1 1e-06 0.01
pcm-variant GLSSA13
spintype no-spin
subspace-rotation-factor 1 yes
symmetries automatic
symmetry-threshold 0.0001



---------- Setting up symmetries ----------

Found 24 point-group symmetries of the bravais lattice
Found 24 space-group symmetries with basis
Applied RMS atom displacement 0 bohrs to make symmetries exact.

---------- Initializing the Grid ----------
R = 
[      13.7097     -6.85486            0  ]
[            0       11.873            0  ]
[            0            0           40  ]
unit cell volume = 6510.99
G =
[   0.458302   0.264601         -0  ]
[          0   0.529201         -0  ]
[         -0         -0    0.15708  ]
Minimum fftbox size, Smin = [  56  56  164  ]
Chosen fftbox size, S = [  56  56  168  ]

---------- Exchange Correlation functional ----------
Initalized PBE GGA exchange.
Initalized PBE GGA correlation.

---------- Setting up pseudopotentials ----------
Width of ionic core gaussian charges (only for fluid interactions / plotting) set to 0

Reading pseudopotential file '/home/gridsan/aligho/DFT/build-Nov24/pseudopotentials/SG15/Li_ONCV_PBE.upf':
  'Li' pseudopotential, 'PBE' functional
  Generated using ONCVPSP code by D. R. Hamann
  Author: Martin Schlipf and Francois Gygi  Date: 150915.
  3 valence electrons, 2 orbitals, 4 projectors, 1328 radial grid points, with lMax = 1
  Transforming local potential to a uniform radial grid of dG=0.02 with 1448 points.
  Transforming nonlocal projectors to a uniform radial grid of dG=0.02 with 432 points.
    1S    l: 0   occupation:  2.0   eigenvalue: -1.905623
    2S    l: 0   occupation:  1.0   eigenvalue: -0.105624
  Transforming atomic orbitals to a uniform radial grid of dG=0.02 with 432 points.
  WARNING: large normalization error in atomic orbital 1s (integral: 0.000000).
  Core radius for overlap checks: 1.63 bohrs.
  Reading pulay file /home/gridsan/aligho/DFT/build-Nov24/pseudopotentials/SG15/Li_ONCV_PBE.pulay ... using dE_dnG = -1.230239e-02 computed for Ecut = 20.

Initialized 1 species with 1 total atoms.

Folded 1 k-points by 12x12x1 to 144 k-points.

---------- Setting up k-points, bands, fillings ----------
Reduced to 19 k-points under symmetry. 
Computing the number of bands and number of electrons
Calculating initial fillings.
nElectrons:   3.000000   nBands: 3   nStates: 19

----- Setting up reduced wavefunction bases (one per k-point) -----
average nbasis = 27813.271 , ideal nbasis = 27815.463

---------- Setting up coulomb interaction ----------
Initialized slab truncation along lattice direction 001

---------- Setting up 2D ewald sum ----------
Optimum gaussian width for ewald sums = 7.611079 bohr.
Real space sums over 289 unit cells with max indices [  8  8  0  ]
Reciprocal space sums over 81 terms with max indices [  4  4  0  ]

---------- Allocating electronic variables ----------
Initializing wave functions:  linear combination of atomic orbitals
Note: number of bands (3) exceeds available atomic orbitals (2)
Li pseudo-atom occupations:   s ( 2 1 )
	FillingsUpdate:  mu: +0.355092713  nElectrons: 3.000000
LCAOMinimize: Iter:   0  F: -1.2833444435893813  |grad|_K:  2.835e-03  alpha:  1.000e+00
	FillingsUpdate:  mu: +0.355219409  nElectrons: 3.000000
LCAOMinimize: Iter:   1  F: -1.2833911714412098  |grad|_K:  3.681e-03  alpha:  1.491e+00  linmin:  2.706e-02  cgtest: -3.767e-01  t[s]:      3.92
LCAOMinimize: 	Bad step direction: g.d > 0.
LCAOMinimize: 	Undoing step.
LCAOMinimize: 	Step failed: resetting search direction.
	FillingsUpdate:  mu: +0.355219409  nElectrons: 3.000000
LCAOMinimize: Iter:   2  F: -1.2833911714412098  |grad|_K:  3.681e-03  alpha:  0.000e+00
[d-4-4-1:10256] 18 more processes have sent help message help-mpi-common-cuda.txt / dlopen failed
[d-4-4-1:10256] Set MCA parameter "orte_base_help_aggregate" to 0 to see all help / error messages
[d-4-4-1:10256] 18 more processes have sent help message help-mpi-btl-openib-cpc-base.txt / no cpcs for port
	FillingsUpdate:  mu: +0.355142251  nElectrons: 3.000000
LCAOMinimize: Iter:   3  F: -1.2842577436176996  |grad|_K:  6.868e-05  alpha:  9.618e-01  linmin: -2.094e-02  cgtest:  1.364e+00  t[s]:      5.41
LCAOMinimize: Encountered beta<0, resetting CG.
	FillingsUpdate:  mu: +0.355141258  nElectrons: 3.000000
LCAOMinimize: Iter:   4  F: -1.2842581493370231  |grad|_K:  2.027e-06  alpha:  1.006e+00  linmin: -1.160e-02  cgtest:  1.825e-01  t[s]:      6.36
LCAOMinimize: Encountered beta<0, resetting CG.
	FillingsUpdate:  mu: +0.355141290  nElectrons: 3.000000
LCAOMinimize: Iter:   5  F: -1.2842581497090029  |grad|_K:  4.823e-08  alpha:  1.046e+00  linmin: -7.135e-03  cgtest:  1.261e-01  t[s]:      7.30
LCAOMinimize: Encountered beta<0, resetting CG.
LCAOMinimize: Converged (|Delta F|<1.000000e-06 for 2 iters).


---- Citations for features of the code used in this run ----

   Software package:
      R. Sundararaman, K. Letchworth-Weaver, K.A. Schwarz, D. Gunceler, Y. Ozhabes and T.A. Arias, 'JDFTx: software for joint density-functional theory', SoftwareX 6, 278 (2017)

   gga-PBE exchange-correlation functional:
      J.P. Perdew, K. Burke and M. Ernzerhof, Phys. Rev. Lett. 77, 3865 (1996)

   Pseudopotentials:
      M Schlipf and F Gygi, Comput. Phys. Commun. 196, 36 (2015)

   Truncated Coulomb potentials:
      R. Sundararaman and T.A. Arias, Phys. Rev. B 87, 165122 (2013)

This list may not be complete. Please suggest additional citations or
report any other bugs at https://github.com/shankar1729/jdftx/issues

Initialization completed successfully at t[s]:      7.35


-------- Electronic minimization -----------
Will mix electronic density at each iteration.
	FillingsUpdate:  mu: +0.355141290  nElectrons: 3.000000
	FillingsUpdate:  mu: -0.709285783  nElectrons: 3.000000
SCF: Cycle:  0   F: -6.884466913093722   dF: -5.600e+00   |Residual|: 1.222e+00   |deigs|: 4.163e+00  t[s]:      8.92
	FillingsUpdate:  mu: -0.597957128  nElectrons: 3.000000
SCF: Cycle:  1   F: -6.926362033477919   dF: -4.190e-02   |Residual|: 7.619e-01   |deigs|: 2.667e-01  t[s]:     10.14
	FillingsUpdate:  mu: -0.336813392  nElectrons: 3.000000
SCF: Cycle:  2   F: -7.053584957437153   dF: -1.272e-01   |Residual|: 3.286e-01   |deigs|: 7.239e-01  t[s]:     11.42
	FillingsUpdate:  mu: -0.382646913  nElectrons: 3.000000
SCF: Cycle:  3   F: -7.052852082014659   dF: +7.329e-04   |Residual|: 1.772e-01   |deigs|: 9.445e-02  t[s]:     12.75
	FillingsUpdate:  mu: -0.337205838  nElectrons: 3.000000
SCF: Cycle:  4   F: -7.047908988095514   dF: +4.943e-03   |Residual|: 1.452e-01   |deigs|: 3.952e-02  t[s]:     14.06
	FillingsUpdate:  mu: -0.332767046  nElectrons: 3.000000
SCF: Cycle:  5   F: -7.049967496762815   dF: -2.059e-03   |Residual|: 3.653e-02   |deigs|: 3.690e-02  t[s]:     15.37
	FillingsUpdate:  mu: -0.228993353  nElectrons: 3.000000
SCF: Cycle:  6   F: -7.056298229015440   dF: -6.331e-03   |Residual|: 1.634e-01   |deigs|: 2.005e-01  t[s]:     16.75
	FillingsUpdate:  mu: -0.274236751  nElectrons: 3.000000
SCF: Cycle:  7   F: -7.056199118589631   dF: +9.911e-05   |Residual|: 7.649e-02   |deigs|: 1.493e-01  t[s]:     18.18
	FillingsUpdate:  mu: -0.225430990  nElectrons: 3.000000
SCF: Cycle:  8   F: -7.053211504662817   dF: +2.988e-03   |Residual|: 3.413e-01   |deigs|: 7.991e-02  t[s]:     19.62
	FillingsUpdate:  mu: -0.148385691  nElectrons: 3.000000
SCF: Cycle:  9   F: -7.042520434111248   dF: +1.069e-02   |Residual|: 4.536e-01   |deigs|: 2.813e-01  t[s]:     21.09
	FillingsUpdate:  mu: -0.154130988  nElectrons: 3.000000
SCF: Cycle: 10   F: -7.055550485910056   dF: -1.303e-02   |Residual|: 1.248e-01   |deigs|: 1.099e-01  t[s]:     22.57
	FillingsUpdate:  mu: -0.156830480  nElectrons: 3.000000
SCF: Cycle: 11   F: -7.058340295990117   dF: -2.790e-03   |Residual|: 4.158e-02   |deigs|: 2.990e-02  t[s]:     24.05
	FillingsUpdate:  mu: -0.133871173  nElectrons: 3.000000
SCF: Cycle: 12   F: -7.058547075988140   dF: -2.068e-04   |Residual|: 7.426e-02   |deigs|: 5.768e-02  t[s]:     25.55
	FillingsUpdate:  mu: -0.097471555  nElectrons: 3.000000
SCF: Cycle: 13   F: -7.058568120420121   dF: -2.104e-05   |Residual|: 2.517e-02   |deigs|: 4.063e-02  t[s]:     27.04
	FillingsUpdate:  mu: -0.110332210  nElectrons: 3.000000
SCF: Cycle: 14   F: -7.058912333932899   dF: -3.442e-04   |Residual|: 4.641e-03   |deigs|: 3.148e-02  t[s]:     28.51
	FillingsUpdate:  mu: -0.108320777  nElectrons: 3.000000
SCF: Cycle: 15   F: -7.058982453881253   dF: -7.012e-05   |Residual|: 4.070e-03   |deigs|: 2.544e-03  t[s]:     30.00
	FillingsUpdate:  mu: -0.105243512  nElectrons: 3.000000
SCF: Cycle: 16   F: -7.059015860785705   dF: -3.341e-05   |Residual|: 2.785e-03   |deigs|: 6.598e-03  t[s]:     31.48
	FillingsUpdate:  mu: -0.106769494  nElectrons: 3.000000
SCF: Cycle: 17   F: -7.059028028276744   dF: -1.217e-05   |Residual|: 5.173e-04   |deigs|: 3.208e-03  t[s]:     32.98
	FillingsUpdate:  mu: -0.107473751  nElectrons: 3.000000
SCF: Cycle: 18   F: -7.059031405344020   dF: -3.377e-06   |Residual|: 3.462e-04   |deigs|: 1.190e-03  t[s]:     34.48
	FillingsUpdate:  mu: -0.107251725  nElectrons: 3.000000
SCF: Cycle: 19   F: -7.059032198128532   dF: -7.928e-07   |Residual|: 1.767e-04   |deigs|: 5.451e-04  t[s]:     35.94
	FillingsUpdate:  mu: -0.107055858  nElectrons: 3.000000
SCF: Cycle: 20   F: -7.059032832719620   dF: -6.346e-07   |Residual|: 5.402e-05   |deigs|: 1.688e-04  t[s]:     37.38
	FillingsUpdate:  mu: -0.106991616  nElectrons: 3.000000
SCF: Cycle: 21   F: -7.059033071816508   dF: -2.391e-07   |Residual|: 2.374e-05   |deigs|: 8.488e-05  t[s]:     38.83
	FillingsUpdate:  mu: -0.106974035  nElectrons: 3.000000
SCF: Cycle: 22   F: -7.059033218569143   dF: -1.468e-07   |Residual|: 1.125e-05   |deigs|: 4.639e-05  t[s]:     40.31
	FillingsUpdate:  mu: -0.106969154  nElectrons: 3.000000
SCF: Cycle: 23   F: -7.059033318757685   dF: -1.002e-07   |Residual|: 6.280e-06   |deigs|: 3.264e-05  t[s]:     41.76
	FillingsUpdate:  mu: -0.106961446  nElectrons: 3.000000
SCF: Cycle: 24   F: -7.059033381707847   dF: -6.295e-08   |Residual|: 3.192e-06   |deigs|: 2.160e-05  t[s]:     43.22
	FillingsUpdate:  mu: -0.106960385  nElectrons: 3.000000
SCF: Cycle: 25   F: -7.059033433298227   dF: -5.159e-08   |Residual|: 1.916e-06   |deigs|: 1.832e-05  t[s]:     44.68
	FillingsUpdate:  mu: -0.106960686  nElectrons: 3.000000
SCF: Cycle: 26   F: -7.059033466474405   dF: -3.318e-08   |Residual|: 9.404e-07   |deigs|: 1.278e-05  t[s]:     46.07
	FillingsUpdate:  mu: -0.106961224  nElectrons: 3.000000
SCF: Cycle: 27   F: -7.059033490734140   dF: -2.426e-08   |Residual|: 7.421e-07   |deigs|: 9.614e-06  t[s]:     47.48
	FillingsUpdate:  mu: -0.106961788  nElectrons: 3.000000
SCF: Cycle: 28   F: -7.059033507680734   dF: -1.695e-08   |Residual|: 6.560e-07   |deigs|: 7.564e-06  t[s]:     48.78
	FillingsUpdate:  mu: -0.106962605  nElectrons: 3.000000
SCF: Cycle: 29   F: -7.059033519863673   dF: -1.218e-08   |Residual|: 4.829e-07   |deigs|: 6.149e-06  t[s]:     50.26
	FillingsUpdate:  mu: -0.106963520  nElectrons: 3.000000
SCF: Cycle: 30   F: -7.059033528844560   dF: -8.981e-09   |Residual|: 2.743e-07   |deigs|: 4.934e-06  t[s]:     51.68
	FillingsUpdate:  mu: -0.106963493  nElectrons: 3.000000
SCF: Cycle: 31   F: -7.059033535953542   dF: -7.109e-09   |Residual|: 1.769e-07   |deigs|: 3.912e-06  t[s]:     53.08
SCF: Converged (|Delta E|<1.000000e-08 for 2 iters).


# Ionic positions in lattice coordinates:
ion Li   0.000000000000000   0.000000000000000   0.000000000000000 0

# Forces in Lattice coordinates:
force Li   0.000000000000000   0.000000000000000   0.000000000000000 0

# Energy components:
   Eewald =       -1.3829905057726173
       EH =        2.1595222857209841
     Eloc =       -7.4546550199132389
      Enl =       -3.6017486288430240
   Epulay =       -0.0000041419712513
      Exc =       -1.5330463327804145
       KE =        4.7678581367228681
-------------------------------------
     Etot =       -7.0450642068366953
       TS =        0.0139693291168467
-------------------------------------
        F =       -7.0590335359535423

IonicMinimize: Iter:   0  F: -7.059033535953542  |grad|_K:  0.000e+00  t[s]:     53.18
IonicMinimize: Converged (|grad|_K<1.000000e-04).

#--- Lowdin population analysis ---
# oxidation-state Li +2.101

End date and time: Sun Jan 16 15:10:09 2022  (Duration: 0-0:00:53.19)
Done!
