0.56
--------------------------------------------------------------------------
The library attempted to open the following supporting CUDA libraries,
but each of them failed.  CUDA-aware support is disabled.
libcuda.so.1: cannot open shared object file: No such file or directory
libcuda.dylib: cannot open shared object file: No such file or directory
/usr/lib64/libcuda.so.1: cannot open shared object file: No such file or directory
/usr/lib64/libcuda.dylib: cannot open shared object file: No such file or directory
If you are not interested in CUDA-aware support, then run with
--mca opal_warn_on_missing_libcuda 0 to suppress this message.  If you are interested
in CUDA-aware support, then try setting LD_LIBRARY_PATH to the location
of libcuda.so.1 to get passed this issue.
--------------------------------------------------------------------------
--------------------------------------------------------------------------
No OpenFabrics connection schemes reported that they were able to be
used on a specific port.  As such, the openib BTL (OpenFabrics
support) will be disabled for this port.

  Local host:           d-3-3-4
  Local device:         mlx5_1
  Local port:           1
  CPCs attempted:       rdmacm, udcm
--------------------------------------------------------------------------

*************** JDFTx 1.6.0 (git hash 42ebbcc2) ***************

Start date and time: Sun Jan 16 15:06:50 2022
Executable jdftx with command-line: -i Lithium.in
Running on hosts (process indices):  d-3-3-4 (0-18)
Divided in process groups (process indices):  0 (0)  1 (1)  2 (2)  3 (3)  4 (4)  5 (5)  6 (6)  7 (7)  8 (8)  9 (9)  10 (10)  11 (11)  12 (12)  13 (13)  14 (14)  15 (15)  16 (16)  17 (17)  18 (18)
Resource initialization completed at t[s]:      0.00
Run totals: 19 processes, 48 threads, 0 GPUs


Input parsed successfully to the following command list (including defaults):

basis kpoint-dependent
coords-type Lattice
core-overlap-check vector
coulomb-interaction Slab 001
davidson-band-ratio 1.1
dump End None
dump-name $INPUT.$VAR
elec-cutoff 20
elec-eigen-algo Davidson
elec-ex-corr gga-PBE
elec-smearing Fermi 0.01
electronic-minimize  \
	dirUpdateScheme      FletcherReeves \
	linminMethod         DirUpdateRecommended \
	nIterations          100 \
	history              15 \
	knormThreshold       0 \
	energyDiffThreshold  1e-08 \
	nEnergyDiff          2 \
	alphaTstart          1 \
	alphaTmin            1e-10 \
	updateTestStepSize   yes \
	alphaTreduceFactor   0.1 \
	alphaTincreaseFactor 3 \
	nAlphaAdjustMax      3 \
	wolfeEnergy          0.0001 \
	wolfeGradient        0.9 \
	fdTest               no
electronic-scf  \
	nIterations	10000 \
	energyDiffThreshold	1e-08 \
	residualThreshold	1e-07 \
	mixFraction	0.5 \
	qMetric	0.8 \
	history	10 \
	nEigSteps	2 \
	eigDiffThreshold	1e-08 \
	mixedVariable	Density \
	qKerker	0.8 \
	qKappa	-1 \
	verbose	no \
	mixFractionMag	1.5
exchange-regularization WignerSeitzTruncated
fluid None
fluid-ex-corr (null) lda-PZ
fluid-gummel-loop 10 1.000000e-05
fluid-minimize  \
	dirUpdateScheme      PolakRibiere \
	linminMethod         DirUpdateRecommended \
	nIterations          100 \
	history              15 \
	knormThreshold       0 \
	energyDiffThreshold  0 \
	nEnergyDiff          2 \
	alphaTstart          1 \
	alphaTmin            1e-10 \
	updateTestStepSize   yes \
	alphaTreduceFactor   0.1 \
	alphaTincreaseFactor 3 \
	nAlphaAdjustMax      3 \
	wolfeEnergy          0.0001 \
	wolfeGradient        0.9 \
	fdTest               no
fluid-solvent H2O 55.338 ScalarEOS \
	epsBulk 78.4 \
	pMol 0.92466 \
	epsInf 1.77 \
	Pvap 1.06736e-10 \
	sigmaBulk 4.62e-05 \
	Rvdw 2.61727 \
	Res 1.42 \
	tauNuc 343133 \
	poleEl 15 7 1
forces-output-coords Positions
ion Li   0.000000000000000   0.000000000000000   0.000000000000000 0
ion-species SG15/$ID_ONCV_PBE.upf
ion-width 0
ionic-minimize  \
	dirUpdateScheme      L-BFGS \
	linminMethod         DirUpdateRecommended \
	nIterations          0 \
	history              15 \
	knormThreshold       0.0001 \
	energyDiffThreshold  1e-06 \
	nEnergyDiff          2 \
	alphaTstart          1 \
	alphaTmin            1e-10 \
	updateTestStepSize   yes \
	alphaTreduceFactor   0.1 \
	alphaTincreaseFactor 3 \
	nAlphaAdjustMax      3 \
	wolfeEnergy          0.0001 \
	wolfeGradient        0.9 \
	fdTest               no
kpoint   0.000000000000   0.000000000000   0.000000000000  1.00000000000000
kpoint-folding 12 12 1 
latt-move-scale 1 1 1
latt-scale 0.56 0.56 1 
lattice  \
	   4.727486978767153   -2.363743489383575    0.000000000000000  \
	  -0.000000000000000    4.094123819672498    0.000000000000000  \
	   0.000000000000000    0.000000000000000   40.000000000000000 
lattice-minimize  \
	dirUpdateScheme      L-BFGS \
	linminMethod         DirUpdateRecommended \
	nIterations          0 \
	history              15 \
	knormThreshold       0 \
	energyDiffThreshold  1e-06 \
	nEnergyDiff          2 \
	alphaTstart          1 \
	alphaTmin            1e-10 \
	updateTestStepSize   yes \
	alphaTreduceFactor   0.1 \
	alphaTincreaseFactor 3 \
	nAlphaAdjustMax      3 \
	wolfeEnergy          0.0001 \
	wolfeGradient        0.9 \
	fdTest               no
lcao-params -1 1e-06 0.01
pcm-variant GLSSA13
spintype no-spin
subspace-rotation-factor 1 yes
symmetries automatic
symmetry-threshold 0.0001



---------- Setting up symmetries ----------

Found 24 point-group symmetries of the bravais lattice
Found 24 space-group symmetries with basis
Applied RMS atom displacement 0 bohrs to make symmetries exact.

---------- Initializing the Grid ----------
R = 
[      2.64739      -1.3237            0  ]
[            0      2.29271            0  ]
[            0            0           40  ]
unit cell volume = 242.788
G =
[    2.37335    1.37025         -0  ]
[          0    2.74051         -0  ]
[         -0         -0    0.15708  ]
Minimum fftbox size, Smin = [  12  12  164  ]
Chosen fftbox size, S = [  12  12  168  ]

---------- Exchange Correlation functional ----------
Initalized PBE GGA exchange.
Initalized PBE GGA correlation.

---------- Setting up pseudopotentials ----------
Width of ionic core gaussian charges (only for fluid interactions / plotting) set to 0

Reading pseudopotential file '/home/gridsan/aligho/DFT/build-Nov24/pseudopotentials/SG15/Li_ONCV_PBE.upf':
  'Li' pseudopotential, 'PBE' functional
  Generated using ONCVPSP code by D. R. Hamann
  Author: Martin Schlipf and Francois Gygi  Date: 150915.
  3 valence electrons, 2 orbitals, 4 projectors, 1328 radial grid points, with lMax = 1
  Transforming local potential to a uniform radial grid of dG=0.02 with 1575 points.
  Transforming nonlocal projectors to a uniform radial grid of dG=0.02 with 432 points.
    1S    l: 0   occupation:  2.0   eigenvalue: -1.905623
    2S    l: 0   occupation:  1.0   eigenvalue: -0.105624
  Transforming atomic orbitals to a uniform radial grid of dG=0.02 with 432 points.
  WARNING: large normalization error in atomic orbital 1s (integral: 0.000000).
  Core radius for overlap checks: 1.63 bohrs.
  Reading pulay file /home/gridsan/aligho/DFT/build-Nov24/pseudopotentials/SG15/Li_ONCV_PBE.pulay ... using dE_dnG = -1.230239e-02 computed for Ecut = 20.

Initialized 1 species with 1 total atoms.

Folded 1 k-points by 12x12x1 to 144 k-points.

---------- Setting up k-points, bands, fillings ----------
Reduced to 19 k-points under symmetry. 
Computing the number of bands and number of electrons
Calculating initial fillings.
nElectrons:   3.000000   nBands: 3   nStates: 19

----- Setting up reduced wavefunction bases (one per k-point) -----
average nbasis = 1036.146 , ideal nbasis = 1037.209

---------- Setting up coulomb interaction ----------
Initialized slab truncation along lattice direction 001

---------- Setting up 2D ewald sum ----------
Optimum gaussian width for ewald sums = 1.469726 bohr.
Real space sums over 289 unit cells with max indices [  8  8  0  ]
Reciprocal space sums over 81 terms with max indices [  4  4  0  ]

---------- Allocating electronic variables ----------
Initializing wave functions:  linear combination of atomic orbitals
Note: number of bands (3) exceeds available atomic orbitals (2)
Li pseudo-atom occupations:   s ( 2 1 )
	FillingsUpdate:  mu: +0.475337572  nElectrons: 3.000000
LCAOMinimize: Iter:   0  F: +1.0387067388439852  |grad|_K:  5.923e-02  alpha:  1.000e+00
LCAOMinimize: 	Wrong curvature in test step, increasing alphaT to 3.000000e+00.
	FillingsUpdate:  mu: -1.823857269  nElectrons: 3.000000
LCAOMinimize: Iter:   1  F: -0.9348782768811318  |grad|_K:  1.240e-01  alpha: -2.183e-01  linmin:  7.572e-02  cgtest: -1.877e-01  t[s]:      0.68
LCAOMinimize: 	Bad step direction: g.d > 0.
LCAOMinimize: 	Undoing step.
LCAOMinimize: 	Step failed: resetting search direction.
	FillingsUpdate:  mu: -1.823857269  nElectrons: 3.000000
LCAOMinimize: Iter:   2  F: -0.9348782768811318  |grad|_K:  1.240e-01  alpha:  0.000e+00
	FillingsUpdate:  mu: -0.712643972  nElectrons: 3.000000
LCAOMinimize: Iter:   3  F: -1.7048376026659848  |grad|_K:  3.707e-02  alpha:  5.090e-01  linmin: -1.468e-01  cgtest:  1.020e+00  t[s]:      0.93
LCAOMinimize: Encountered beta<0, resetting CG.
LCAOMinimize: 	Predicted alpha/alphaT>3.000000, increasing alphaT to 1.527148e+00.
	FillingsUpdate:  mu: -0.446257244  nElectrons: 3.000000
LCAOMinimize: Iter:   4  F: -1.7659685022319997  |grad|_K:  2.775e-02  alpha:  2.672e-01  linmin: -1.947e-01  cgtest:  7.986e-01  t[s]:      1.15
LCAOMinimize: Encountered beta<0, resetting CG.
LCAOMinimize: 	Predicted alpha/alphaT>3.000000, increasing alphaT to 8.015138e-01.
	FillingsUpdate:  mu: -0.036093330  nElectrons: 3.000000
LCAOMinimize: Iter:   5  F: -1.8118955637982996  |grad|_K:  6.352e-04  alpha:  5.387e-01  linmin:  2.334e-01  cgtest: -7.881e-01  t[s]:      1.36
	FillingsUpdate:  mu: -0.036088048  nElectrons: 3.000000
LCAOMinimize: Iter:   6  F: -1.8118955638577268  |grad|_K:  6.354e-04  alpha:  3.159e-03  linmin: -2.496e-07  cgtest:  1.000e+00  t[s]:      1.51
LCAOMinimize: 	Predicted alpha/alphaT>3.000000, increasing alphaT to 9.476328e-03.
LCAOMinimize: 	Predicted alpha/alphaT>3.000000, increasing alphaT to 2.842899e-02.
LCAOMinimize: 	Predicted alpha/alphaT>3.000000, increasing alphaT to 8.528696e-02.
	FillingsUpdate:  mu: -0.041988538  nElectrons: 3.000000
LCAOMinimize: Iter:   7  F: -1.8119130043088061  |grad|_K:  1.178e-04  alpha:  5.037e-01  linmin: -1.027e-02  cgtest:  2.108e-02  t[s]:      1.78
	FillingsUpdate:  mu: -0.041615835  nElectrons: 3.000000
LCAOMinimize: Iter:   8  F: -1.8119141274217883  |grad|_K:  2.674e-06  alpha:  9.429e-01  linmin:  1.162e-02  cgtest: -2.056e-01  t[s]:      1.93
	FillingsUpdate:  mu: -0.041640139  nElectrons: 3.000000
LCAOMinimize: Iter:   9  F: -1.8119141277380080  |grad|_K:  5.604e-07  alpha:  5.257e-01  linmin: -1.873e-03  cgtest:  7.122e-02  t[s]:      2.08
	FillingsUpdate:  mu: -0.041638434  nElectrons: 3.000000
LCAOMinimize: Iter:  10  F: -1.8119141277637072  |grad|_K:  4.175e-08  alpha:  9.913e-01  linmin:  1.010e-01  cgtest: -5.060e-01  t[s]:      2.24
LCAOMinimize: Converged (|Delta F|<1.000000e-06 for 2 iters).


---- Citations for features of the code used in this run ----

   Software package:
      R. Sundararaman, K. Letchworth-Weaver, K.A. Schwarz, D. Gunceler, Y. Ozhabes and T.A. Arias, 'JDFTx: software for joint density-functional theory', SoftwareX 6, 278 (2017)

   gga-PBE exchange-correlation functional:
      J.P. Perdew, K. Burke and M. Ernzerhof, Phys. Rev. Lett. 77, 3865 (1996)

   Pseudopotentials:
      M Schlipf and F Gygi, Comput. Phys. Commun. 196, 36 (2015)

   Truncated Coulomb potentials:
      R. Sundararaman and T.A. Arias, Phys. Rev. B 87, 165122 (2013)

This list may not be complete. Please suggest additional citations or
report any other bugs at https://github.com/shankar1729/jdftx/issues

Initialization completed successfully at t[s]:      2.27


-------- Electronic minimization -----------
Will mix electronic density at each iteration.
	FillingsUpdate:  mu: -0.041638434  nElectrons: 3.000000
	FillingsUpdate:  mu: -5.589897923  nElectrons: 3.000000
SCF: Cycle:  0   F: -6.043209078046669   dF: -4.231e+00   |Residual|: 3.884e-01   |deigs|: 4.705e+00  t[s]:      2.52
	FillingsUpdate:  mu: -5.580928831  nElectrons: 3.000000
SCF: Cycle:  1   F: -6.219522676771311   dF: -1.763e-01   |Residual|: 3.008e-01   |deigs|: 3.605e-01  t[s]:      2.65
	FillingsUpdate:  mu: -4.417510419  nElectrons: 3.000000
SCF: Cycle:  2   F: -6.476870082300627   dF: -2.573e-01   |Residual|: 2.616e-01   |deigs|: 1.155e+00  t[s]:      2.78
	FillingsUpdate:  mu: -5.393628787  nElectrons: 3.000000
SCF: Cycle:  3   F: -6.401761618450180   dF: +7.511e-02   |Residual|: 4.373e-01   |deigs|: 1.056e+00  t[s]:      2.91
	FillingsUpdate:  mu: -4.629459893  nElectrons: 3.000000
SCF: Cycle:  4   F: -6.469648828200405   dF: -6.789e-02   |Residual|: 4.618e-01   |deigs|: 6.992e-01  t[s]:      3.04
	FillingsUpdate:  mu: -4.143213317  nElectrons: 3.000000
SCF: Cycle:  5   F: -6.612147802759284   dF: -1.425e-01   |Residual|: 3.080e-01   |deigs|: 4.924e-01  t[s]:      3.17
	FillingsUpdate:  mu: -3.124415574  nElectrons: 3.000000
SCF: Cycle:  6   F: -6.735198031912248   dF: -1.231e-01   |Residual|: 8.290e-02   |deigs|: 1.038e+00  t[s]:      3.31
	FillingsUpdate:  mu: -3.420126197  nElectrons: 3.000000
SCF: Cycle:  7   F: -6.625206446072470   dF: +1.100e-01   |Residual|: 4.078e-01   |deigs|: 3.818e-01  t[s]:      3.44
	FillingsUpdate:  mu: -2.034633940  nElectrons: 3.000000
SCF: Cycle:  8   F: -6.797824423754775   dF: -1.726e-01   |Residual|: 8.506e-02   |deigs|: 1.454e+00  t[s]:      3.58
	FillingsUpdate:  mu: -2.612743215  nElectrons: 3.000000
SCF: Cycle:  9   F: -6.603686499108004   dF: +1.941e-01   |Residual|: 4.462e-01   |deigs|: 7.019e-01  t[s]:      3.71
	FillingsUpdate:  mu: -0.825418207  nElectrons: 3.000000
SCF: Cycle: 10   F: -6.814328546762203   dF: -2.106e-01   |Residual|: 9.147e-02   |deigs|: 1.867e+00  t[s]:      3.84
	FillingsUpdate:  mu: -1.128403467  nElectrons: 3.000000
SCF: Cycle: 11   F: -6.726150789898705   dF: +8.818e-02   |Residual|: 2.155e-01   |deigs|: 3.440e-01  t[s]:      3.96
	FillingsUpdate:  mu: -0.149652531  nElectrons: 3.000000
SCF: Cycle: 12   F: -6.756200640124142   dF: -3.005e-02   |Residual|: 2.144e-01   |deigs|: 1.088e+00  t[s]:      4.08
	FillingsUpdate:  mu: -0.502986262  nElectrons: 3.000000
SCF: Cycle: 13   F: -6.815609741218937   dF: -5.941e-02   |Residual|: 7.989e-02   |deigs|: 4.369e-01  t[s]:      4.21
	FillingsUpdate:  mu: -0.435488720  nElectrons: 3.000000
SCF: Cycle: 14   F: -6.809759118500653   dF: +5.851e-03   |Residual|: 4.796e-02   |deigs|: 5.660e-02  t[s]:      4.33
	FillingsUpdate:  mu: -0.186820381  nElectrons: 3.000000
SCF: Cycle: 15   F: -6.820125744029447   dF: -1.037e-02   |Residual|: 2.329e-02   |deigs|: 2.629e-01  t[s]:      4.45
	FillingsUpdate:  mu: -0.176597800  nElectrons: 3.000000
SCF: Cycle: 16   F: -6.820318168250415   dF: -1.924e-04   |Residual|: 1.739e-02   |deigs|: 1.846e-02  t[s]:      4.57
	FillingsUpdate:  mu: -0.239629841  nElectrons: 3.000000
SCF: Cycle: 17   F: -6.820479834002630   dF: -1.617e-04   |Residual|: 7.081e-03   |deigs|: 6.768e-02  t[s]:      4.69
[d-3-3-4:56815] 18 more processes have sent help message help-mpi-common-cuda.txt / dlopen failed
[d-3-3-4:56815] Set MCA parameter "orte_base_help_aggregate" to 0 to see all help / error messages
[d-3-3-4:56815] 18 more processes have sent help message help-mpi-btl-openib-cpc-base.txt / no cpcs for port
	FillingsUpdate:  mu: -0.212083784  nElectrons: 3.000000
SCF: Cycle: 18   F: -6.820656517563525   dF: -1.767e-04   |Residual|: 2.380e-03   |deigs|: 2.842e-02  t[s]:      4.82
	FillingsUpdate:  mu: -0.213627315  nElectrons: 3.000000
SCF: Cycle: 19   F: -6.820659929235860   dF: -3.412e-06   |Residual|: 1.713e-03   |deigs|: 2.107e-03  t[s]:      4.94
	FillingsUpdate:  mu: -0.212785480  nElectrons: 3.000000
SCF: Cycle: 20   F: -6.820659694571258   dF: +2.347e-07   |Residual|: 1.031e-03   |deigs|: 1.129e-03  t[s]:      5.06
	FillingsUpdate:  mu: -0.214768111  nElectrons: 3.000000
SCF: Cycle: 21   F: -6.820661026928017   dF: -1.332e-06   |Residual|: 3.959e-04   |deigs|: 2.157e-03  t[s]:      5.18
	FillingsUpdate:  mu: -0.212809161  nElectrons: 3.000000
SCF: Cycle: 22   F: -6.820661219798224   dF: -1.929e-07   |Residual|: 2.076e-04   |deigs|: 1.963e-03  t[s]:      5.30
	FillingsUpdate:  mu: -0.210600944  nElectrons: 3.000000
SCF: Cycle: 23   F: -6.820661236087373   dF: -1.629e-08   |Residual|: 1.768e-04   |deigs|: 2.198e-03  t[s]:      5.43
	FillingsUpdate:  mu: -0.210548701  nElectrons: 3.000000
SCF: Cycle: 24   F: -6.820661325490731   dF: -8.940e-08   |Residual|: 2.465e-05   |deigs|: 9.952e-05  t[s]:      5.55
	FillingsUpdate:  mu: -0.210350055  nElectrons: 3.000000
SCF: Cycle: 25   F: -6.820661330370493   dF: -4.880e-09   |Residual|: 1.342e-05   |deigs|: 1.989e-04  t[s]:      5.68
	FillingsUpdate:  mu: -0.210334224  nElectrons: 3.000000
SCF: Cycle: 26   F: -6.820661331408691   dF: -1.038e-09   |Residual|: 7.072e-06   |deigs|: 1.670e-05  t[s]:      5.80
SCF: Converged (|Delta E|<1.000000e-08 for 2 iters).


# Ionic positions in lattice coordinates:
ion Li   0.000000000000000   0.000000000000000   0.000000000000000 0

# Forces in Lattice coordinates:
force Li  -0.000000000000000  -0.000000000000000   0.000000000000000 0

# Energy components:
   Eewald =       -7.1619151191796231
       EH =       -4.5934781323820708
     Eloc =        4.9863307562655956
      Enl =       -3.6195521696157624
   Epulay =       -0.0000538810426567
      Exc =       -1.7395107424047627
       KE =        5.3113032423400046
-------------------------------------
     Etot =       -6.8168760460192761
       TS =        0.0037852853894146
-------------------------------------
        F =       -6.8206613314086910

IonicMinimize: Iter:   0  F: -6.820661331408691  |grad|_K:  0.000e+00  t[s]:      5.81
IonicMinimize: Converged (|grad|_K<1.000000e-04).

#--- Lowdin population analysis ---
# oxidation-state Li +1.497

End date and time: Sun Jan 16 15:06:56 2022  (Duration: 0-0:00:05.82)
Done!
