1.73
--------------------------------------------------------------------------
The library attempted to open the following supporting CUDA libraries,
but each of them failed.  CUDA-aware support is disabled.
libcuda.so.1: cannot open shared object file: No such file or directory
libcuda.dylib: cannot open shared object file: No such file or directory
/usr/lib64/libcuda.so.1: cannot open shared object file: No such file or directory
/usr/lib64/libcuda.dylib: cannot open shared object file: No such file or directory
If you are not interested in CUDA-aware support, then run with
--mca opal_warn_on_missing_libcuda 0 to suppress this message.  If you are interested
in CUDA-aware support, then try setting LD_LIBRARY_PATH to the location
of libcuda.so.1 to get passed this issue.
--------------------------------------------------------------------------
--------------------------------------------------------------------------
No OpenFabrics connection schemes reported that they were able to be
used on a specific port.  As such, the openib BTL (OpenFabrics
support) will be disabled for this port.

  Local host:           d-16-8-1
  Local device:         mlx5_1
  Local port:           1
  CPCs attempted:       rdmacm, udcm
--------------------------------------------------------------------------

*************** JDFTx 1.6.0 (git hash 42ebbcc2) ***************

Start date and time: Sun Jan 16 15:07:28 2022
Executable jdftx with command-line: -i Lithium.in
Running on hosts (process indices):  d-16-8-1 (0-18)
Divided in process groups (process indices):  0 (0)  1 (1)  2 (2)  3 (3)  4 (4)  5 (5)  6 (6)  7 (7)  8 (8)  9 (9)  10 (10)  11 (11)  12 (12)  13 (13)  14 (14)  15 (15)  16 (16)  17 (17)  18 (18)
Resource initialization completed at t[s]:      0.00
Run totals: 19 processes, 48 threads, 0 GPUs


Input parsed successfully to the following command list (including defaults):

basis kpoint-dependent
coords-type Lattice
core-overlap-check vector
coulomb-interaction Slab 001
davidson-band-ratio 1.1
dump End None
dump-name $INPUT.$VAR
elec-cutoff 20
elec-eigen-algo Davidson
elec-ex-corr gga-PBE
elec-smearing Fermi 0.01
electronic-minimize  \
	dirUpdateScheme      FletcherReeves \
	linminMethod         DirUpdateRecommended \
	nIterations          100 \
	history              15 \
	knormThreshold       0 \
	energyDiffThreshold  1e-08 \
	nEnergyDiff          2 \
	alphaTstart          1 \
	alphaTmin            1e-10 \
	updateTestStepSize   yes \
	alphaTreduceFactor   0.1 \
	alphaTincreaseFactor 3 \
	nAlphaAdjustMax      3 \
	wolfeEnergy          0.0001 \
	wolfeGradient        0.9 \
	fdTest               no
electronic-scf  \
	nIterations	10000 \
	energyDiffThreshold	1e-08 \
	residualThreshold	1e-07 \
	mixFraction	0.5 \
	qMetric	0.8 \
	history	10 \
	nEigSteps	2 \
	eigDiffThreshold	1e-08 \
	mixedVariable	Density \
	qKerker	0.8 \
	qKappa	-1 \
	verbose	no \
	mixFractionMag	1.5
exchange-regularization WignerSeitzTruncated
fluid None
fluid-ex-corr (null) lda-PZ
fluid-gummel-loop 10 1.000000e-05
fluid-minimize  \
	dirUpdateScheme      PolakRibiere \
	linminMethod         DirUpdateRecommended \
	nIterations          100 \
	history              15 \
	knormThreshold       0 \
	energyDiffThreshold  0 \
	nEnergyDiff          2 \
	alphaTstart          1 \
	alphaTmin            1e-10 \
	updateTestStepSize   yes \
	alphaTreduceFactor   0.1 \
	alphaTincreaseFactor 3 \
	nAlphaAdjustMax      3 \
	wolfeEnergy          0.0001 \
	wolfeGradient        0.9 \
	fdTest               no
fluid-solvent H2O 55.338 ScalarEOS \
	epsBulk 78.4 \
	pMol 0.92466 \
	epsInf 1.77 \
	Pvap 1.06736e-10 \
	sigmaBulk 4.62e-05 \
	Rvdw 2.61727 \
	Res 1.42 \
	tauNuc 343133 \
	poleEl 15 7 1
forces-output-coords Positions
ion Li   0.000000000000000   0.000000000000000   0.000000000000000 0
ion-species SG15/$ID_ONCV_PBE.upf
ion-width 0
ionic-minimize  \
	dirUpdateScheme      L-BFGS \
	linminMethod         DirUpdateRecommended \
	nIterations          0 \
	history              15 \
	knormThreshold       0.0001 \
	energyDiffThreshold  1e-06 \
	nEnergyDiff          2 \
	alphaTstart          1 \
	alphaTmin            1e-10 \
	updateTestStepSize   yes \
	alphaTreduceFactor   0.1 \
	alphaTincreaseFactor 3 \
	nAlphaAdjustMax      3 \
	wolfeEnergy          0.0001 \
	wolfeGradient        0.9 \
	fdTest               no
kpoint   0.000000000000   0.000000000000   0.000000000000  1.00000000000000
kpoint-folding 12 12 1 
latt-move-scale 1 1 1
latt-scale 1.73 1.73 1 
lattice  \
	   4.727486978767153   -2.363743489383575    0.000000000000000  \
	  -0.000000000000000    4.094123819672498    0.000000000000000  \
	   0.000000000000000    0.000000000000000   40.000000000000000 
lattice-minimize  \
	dirUpdateScheme      L-BFGS \
	linminMethod         DirUpdateRecommended \
	nIterations          0 \
	history              15 \
	knormThreshold       0 \
	energyDiffThreshold  1e-06 \
	nEnergyDiff          2 \
	alphaTstart          1 \
	alphaTmin            1e-10 \
	updateTestStepSize   yes \
	alphaTreduceFactor   0.1 \
	alphaTincreaseFactor 3 \
	nAlphaAdjustMax      3 \
	wolfeEnergy          0.0001 \
	wolfeGradient        0.9 \
	fdTest               no
lcao-params -1 1e-06 0.01
pcm-variant GLSSA13
spintype no-spin
subspace-rotation-factor 1 yes
symmetries automatic
symmetry-threshold 0.0001



---------- Setting up symmetries ----------

Found 24 point-group symmetries of the bravais lattice
Found 24 space-group symmetries with basis
Applied RMS atom displacement 0 bohrs to make symmetries exact.

---------- Initializing the Grid ----------
R = 
[      8.17855     -4.08928            0  ]
[            0      7.08283            0  ]
[            0            0           40  ]
unit cell volume = 2317.09
G =
[   0.768252    0.44355         -0  ]
[          0     0.8871         -0  ]
[         -0         -0    0.15708  ]
Minimum fftbox size, Smin = [  36  36  164  ]
Chosen fftbox size, S = [  36  36  168  ]

---------- Exchange Correlation functional ----------
Initalized PBE GGA exchange.
Initalized PBE GGA correlation.

---------- Setting up pseudopotentials ----------
Width of ionic core gaussian charges (only for fluid interactions / plotting) set to 0

Reading pseudopotential file '/home/gridsan/aligho/DFT/build-Nov24/pseudopotentials/SG15/Li_ONCV_PBE.upf':
  'Li' pseudopotential, 'PBE' functional
  Generated using ONCVPSP code by D. R. Hamann
  Author: Martin Schlipf and Francois Gygi  Date: 150915.
  3 valence electrons, 2 orbitals, 4 projectors, 1328 radial grid points, with lMax = 1
  Transforming local potential to a uniform radial grid of dG=0.02 with 1538 points.
  Transforming nonlocal projectors to a uniform radial grid of dG=0.02 with 432 points.
    1S    l: 0   occupation:  2.0   eigenvalue: -1.905623
    2S    l: 0   occupation:  1.0   eigenvalue: -0.105624
  Transforming atomic orbitals to a uniform radial grid of dG=0.02 with 432 points.
  WARNING: large normalization error in atomic orbital 1s (integral: 0.000000).
  Core radius for overlap checks: 1.63 bohrs.
  Reading pulay file /home/gridsan/aligho/DFT/build-Nov24/pseudopotentials/SG15/Li_ONCV_PBE.pulay ... using dE_dnG = -1.230239e-02 computed for Ecut = 20.

Initialized 1 species with 1 total atoms.

Folded 1 k-points by 12x12x1 to 144 k-points.

---------- Setting up k-points, bands, fillings ----------
Reduced to 19 k-points under symmetry. 
Computing the number of bands and number of electrons
Calculating initial fillings.
nElectrons:   3.000000   nBands: 3   nStates: 19

----- Setting up reduced wavefunction bases (one per k-point) -----
average nbasis = 9898.396 , ideal nbasis = 9898.799

---------- Setting up coulomb interaction ----------
Initialized slab truncation along lattice direction 001

---------- Setting up 2D ewald sum ----------
Optimum gaussian width for ewald sums = 4.540402 bohr.
Real space sums over 289 unit cells with max indices [  8  8  0  ]
Reciprocal space sums over 81 terms with max indices [  4  4  0  ]

---------- Allocating electronic variables ----------
Initializing wave functions:  linear combination of atomic orbitals
Note: number of bands (3) exceeds available atomic orbitals (2)
Li pseudo-atom occupations:   s ( 2 1 )
	FillingsUpdate:  mu: +0.336402568  nElectrons: 3.000000
LCAOMinimize: Iter:   0  F: -1.0727339059675025  |grad|_K:  4.244e-03  alpha:  1.000e+00
LCAOMinimize: 	Step increased F by 4.973702e-02, reducing alpha to 2.347875e-01.
	FillingsUpdate:  mu: +0.336406388  nElectrons: 3.000000
LCAOMinimize: Iter:   1  F: -1.0734213101862822  |grad|_K:  3.552e-03  alpha:  2.348e-01  linmin: -1.603e-02  cgtest:  9.153e-01  t[s]:      2.29
LCAOMinimize: Encountered beta<0, resetting CG.
LCAOMinimize: 	Predicted alpha/alphaT>3.000000, increasing alphaT to 7.043625e-01.
LCAOMinimize: 	Predicted alpha/alphaT>3.000000, increasing alphaT to 2.113088e+00.
	FillingsUpdate:  mu: +0.336409694  nElectrons: 3.000000
LCAOMinimize: Iter:   2  F: -1.0738021257669894  |grad|_K:  3.186e-03  alpha:  1.786e-01  linmin: -1.481e-02  cgtest:  9.163e-01  t[s]:      3.10
LCAOMinimize: Encountered beta<0, resetting CG.
LCAOMinimize: 	Predicted alpha/alphaT>3.000000, increasing alphaT to 5.357689e-01.
LCAOMinimize: 	Predicted alpha/alphaT>3.000000, increasing alphaT to 1.607307e+00.
	FillingsUpdate:  mu: +0.336426136  nElectrons: 3.000000
LCAOMinimize: Iter:   3  F: -1.0745747579202309  |grad|_K:  2.264e-03  alpha:  4.559e-01  linmin: -1.414e-02  cgtest:  7.665e-01  t[s]:      3.94
LCAOMinimize: Encountered beta<0, resetting CG.
LCAOMinimize: 	Predicted alpha/alphaT>3.000000, increasing alphaT to 1.367600e+00.
	FillingsUpdate:  mu: +0.336506816  nElectrons: 3.000000
LCAOMinimize: Iter:   4  F: -1.0751588953900719  |grad|_K:  5.263e-05  alpha:  1.003e+00  linmin:  1.740e-02  cgtest: -3.540e-01  t[s]:      4.59
[d-16-8-1:74728] 18 more processes have sent help message help-mpi-common-cuda.txt / dlopen failed
[d-16-8-1:74728] Set MCA parameter "orte_base_help_aggregate" to 0 to see all help / error messages
[d-16-8-1:74728] 18 more processes have sent help message help-mpi-btl-openib-cpc-base.txt / no cpcs for port
	FillingsUpdate:  mu: +0.336504790  nElectrons: 3.000000
LCAOMinimize: Iter:   5  F: -1.0751590592625269  |grad|_K:  2.892e-05  alpha:  1.265e+00  linmin: -8.684e-05  cgtest:  5.777e-01  t[s]:      5.03
LCAOMinimize: Encountered beta<0, resetting CG.
	FillingsUpdate:  mu: +0.336503844  nElectrons: 3.000000
LCAOMinimize: Iter:   6  F: -1.0751591302120771  |grad|_K:  6.197e-07  alpha:  9.934e-01  linmin: -1.612e-03  cgtest:  4.017e-02  t[s]:      5.48
LCAOMinimize: Encountered beta<0, resetting CG.
LCAOMinimize: Converged (|Delta F|<1.000000e-06 for 2 iters).


---- Citations for features of the code used in this run ----

   Software package:
      R. Sundararaman, K. Letchworth-Weaver, K.A. Schwarz, D. Gunceler, Y. Ozhabes and T.A. Arias, 'JDFTx: software for joint density-functional theory', SoftwareX 6, 278 (2017)

   gga-PBE exchange-correlation functional:
      J.P. Perdew, K. Burke and M. Ernzerhof, Phys. Rev. Lett. 77, 3865 (1996)

   Pseudopotentials:
      M Schlipf and F Gygi, Comput. Phys. Commun. 196, 36 (2015)

   Truncated Coulomb potentials:
      R. Sundararaman and T.A. Arias, Phys. Rev. B 87, 165122 (2013)

This list may not be complete. Please suggest additional citations or
report any other bugs at https://github.com/shankar1729/jdftx/issues

Initialization completed successfully at t[s]:      5.51


-------- Electronic minimization -----------
Will mix electronic density at each iteration.
	FillingsUpdate:  mu: +0.336503844  nElectrons: 3.000000
	FillingsUpdate:  mu: -1.206752499  nElectrons: 3.000000
SCF: Cycle:  0   F: -6.550649044741772   dF: -5.475e+00   |Residual|: 1.107e+00   |deigs|: 4.154e+00  t[s]:      6.24
	FillingsUpdate:  mu: -1.106597626  nElectrons: 3.000000
SCF: Cycle:  1   F: -6.956324419290466   dF: -4.057e-01   |Residual|: 7.909e-01   |deigs|: 2.810e-01  t[s]:      6.77
	FillingsUpdate:  mu: -0.805810270  nElectrons: 3.000000
SCF: Cycle:  2   F: -7.048831207349886   dF: -9.251e-02   |Residual|: 6.581e-01   |deigs|: 9.654e-01  t[s]:      7.30
	FillingsUpdate:  mu: -0.874073121  nElectrons: 3.000000
SCF: Cycle:  3   F: -7.065638051639869   dF: -1.681e-02   |Residual|: 3.014e-01   |deigs|: 2.246e-01  t[s]:      7.85
	FillingsUpdate:  mu: -0.849742752  nElectrons: 3.000000
SCF: Cycle:  4   F: -7.065969238688858   dF: -3.312e-04   |Residual|: 5.104e-02   |deigs|: 6.928e-02  t[s]:      8.42
	FillingsUpdate:  mu: -0.785354041  nElectrons: 3.000000
SCF: Cycle:  5   F: -7.043427982896887   dF: +2.254e-02   |Residual|: 6.626e-01   |deigs|: 2.430e-01  t[s]:      9.03
	FillingsUpdate:  mu: -0.710126555  nElectrons: 3.000000
SCF: Cycle:  6   F: -7.068760455942202   dF: -2.533e-02   |Residual|: 2.089e-01   |deigs|: 2.655e-01  t[s]:      9.59
	FillingsUpdate:  mu: -0.487391144  nElectrons: 3.000000
SCF: Cycle:  7   F: -7.077093546327852   dF: -8.333e-03   |Residual|: 1.455e-01   |deigs|: 2.433e-01  t[s]:     10.17
	FillingsUpdate:  mu: -0.510362133  nElectrons: 3.000000
SCF: Cycle:  8   F: -7.067766068582300   dF: +9.327e-03   |Residual|: 3.855e-01   |deigs|: 1.367e-01  t[s]:     10.78
	FillingsUpdate:  mu: -0.349961290  nElectrons: 3.000000
SCF: Cycle:  9   F: -7.078245323233531   dF: -1.048e-02   |Residual|: 2.322e-01   |deigs|: 2.118e-01  t[s]:     11.37
	FillingsUpdate:  mu: -0.285356876  nElectrons: 3.000000
SCF: Cycle: 10   F: -7.080870755313066   dF: -2.625e-03   |Residual|: 5.334e-02   |deigs|: 1.335e-01  t[s]:     12.00
	FillingsUpdate:  mu: -0.162697270  nElectrons: 3.000000
SCF: Cycle: 11   F: -7.081683216817117   dF: -8.125e-04   |Residual|: 8.299e-02   |deigs|: 1.308e-01  t[s]:     12.59
	FillingsUpdate:  mu: -0.158763495  nElectrons: 3.000000
SCF: Cycle: 12   F: -7.082499098088979   dF: -8.159e-04   |Residual|: 6.391e-02   |deigs|: 3.624e-02  t[s]:     13.22
	FillingsUpdate:  mu: -0.127896714  nElectrons: 3.000000
SCF: Cycle: 13   F: -7.082786139585158   dF: -2.870e-04   |Residual|: 2.891e-02   |deigs|: 2.805e-02  t[s]:     13.82
	FillingsUpdate:  mu: -0.106044640  nElectrons: 3.000000
SCF: Cycle: 14   F: -7.082859742969717   dF: -7.360e-05   |Residual|: 7.165e-03   |deigs|: 2.978e-02  t[s]:     14.45
	FillingsUpdate:  mu: -0.110621643  nElectrons: 3.000000
SCF: Cycle: 15   F: -7.083127545138145   dF: -2.678e-04   |Residual|: 3.772e-03   |deigs|: 5.873e-03  t[s]:     15.08
	FillingsUpdate:  mu: -0.120286172  nElectrons: 3.000000
SCF: Cycle: 16   F: -7.083158919505115   dF: -3.137e-05   |Residual|: 2.254e-03   |deigs|: 1.200e-02  t[s]:     15.69
	FillingsUpdate:  mu: -0.116181387  nElectrons: 3.000000
SCF: Cycle: 17   F: -7.083165665667896   dF: -6.746e-06   |Residual|: 1.124e-03   |deigs|: 5.412e-03  t[s]:     16.36
	FillingsUpdate:  mu: -0.116808123  nElectrons: 3.000000
SCF: Cycle: 18   F: -7.083166714317501   dF: -1.049e-06   |Residual|: 3.123e-04   |deigs|: 1.325e-03  t[s]:     16.95
	FillingsUpdate:  mu: -0.115852331  nElectrons: 3.000000
SCF: Cycle: 19   F: -7.083167247643432   dF: -5.333e-07   |Residual|: 1.627e-04   |deigs|: 1.808e-03  t[s]:     17.55
	FillingsUpdate:  mu: -0.116351195  nElectrons: 3.000000
SCF: Cycle: 20   F: -7.083167432201068   dF: -1.846e-07   |Residual|: 6.263e-05   |deigs|: 1.500e-03  t[s]:     18.14
	FillingsUpdate:  mu: -0.116357949  nElectrons: 3.000000
SCF: Cycle: 21   F: -7.083167832103875   dF: -3.999e-07   |Residual|: 3.600e-05   |deigs|: 1.251e-03  t[s]:     18.74
	FillingsUpdate:  mu: -0.116368038  nElectrons: 3.000000
SCF: Cycle: 22   F: -7.083168159362866   dF: -3.273e-07   |Residual|: 1.526e-05   |deigs|: 4.341e-04  t[s]:     19.37
	FillingsUpdate:  mu: -0.116383969  nElectrons: 3.000000
SCF: Cycle: 23   F: -7.083168185636100   dF: -2.627e-08   |Residual|: 6.010e-06   |deigs|: 5.034e-05  t[s]:     19.95
	FillingsUpdate:  mu: -0.116386268  nElectrons: 3.000000
SCF: Cycle: 24   F: -7.083168192549763   dF: -6.914e-09   |Residual|: 1.926e-06   |deigs|: 2.389e-05  t[s]:     20.59
	FillingsUpdate:  mu: -0.116381815  nElectrons: 3.000000
SCF: Cycle: 25   F: -7.083168196130815   dF: -3.581e-09   |Residual|: 1.637e-06   |deigs|: 1.503e-05  t[s]:     21.17
SCF: Converged (|Delta E|<1.000000e-08 for 2 iters).


# Ionic positions in lattice coordinates:
ion Li   0.000000000000000   0.000000000000000   0.000000000000000 0

# Forces in Lattice coordinates:
force Li  -0.000000000000000   0.000000000000000   0.000000000000000 0

# Energy components:
   Eewald =       -2.3183077842431166
       EH =        1.2483305766281469
     Eloc =       -5.6048563415172925
      Enl =       -3.5894509149906115
   Epulay =       -0.0000021402547924
      Exc =       -1.5486656302405293
       KE =        4.7371071790934494
-------------------------------------
     Etot =       -7.0758450555247467
       TS =        0.0073231406060689
-------------------------------------
        F =       -7.0831681961308153

IonicMinimize: Iter:   0  F: -7.083168196130815  |grad|_K:  0.000e+00  t[s]:     21.21
IonicMinimize: Converged (|grad|_K<1.000000e-04).

#--- Lowdin population analysis ---
# oxidation-state Li +2.173

End date and time: Sun Jan 16 15:07:49 2022  (Duration: 0-0:00:21.22)
Done!
