0.92
--------------------------------------------------------------------------
The library attempted to open the following supporting CUDA libraries,
but each of them failed.  CUDA-aware support is disabled.
libcuda.so.1: cannot open shared object file: No such file or directory
libcuda.dylib: cannot open shared object file: No such file or directory
/usr/lib64/libcuda.so.1: cannot open shared object file: No such file or directory
/usr/lib64/libcuda.dylib: cannot open shared object file: No such file or directory
If you are not interested in CUDA-aware support, then run with
--mca opal_warn_on_missing_libcuda 0 to suppress this message.  If you are interested
in CUDA-aware support, then try setting LD_LIBRARY_PATH to the location
of libcuda.so.1 to get passed this issue.
--------------------------------------------------------------------------
--------------------------------------------------------------------------
No OpenFabrics connection schemes reported that they were able to be
used on a specific port.  As such, the openib BTL (OpenFabrics
support) will be disabled for this port.

  Local host:           d-5-14-2
  Local device:         mlx5_1
  Local port:           1
  CPCs attempted:       rdmacm, udcm
--------------------------------------------------------------------------

*************** JDFTx 1.6.0 (git hash 42ebbcc2) ***************

Start date and time: Sun Jan 16 15:06:50 2022
Executable jdftx with command-line: -i Lithium.in
Running on hosts (process indices):  d-5-14-2 (0-18)
Divided in process groups (process indices):  0 (0)  1 (1)  2 (2)  3 (3)  4 (4)  5 (5)  6 (6)  7 (7)  8 (8)  9 (9)  10 (10)  11 (11)  12 (12)  13 (13)  14 (14)  15 (15)  16 (16)  17 (17)  18 (18)
Resource initialization completed at t[s]:      0.00
Run totals: 19 processes, 48 threads, 0 GPUs


Input parsed successfully to the following command list (including defaults):

basis kpoint-dependent
coords-type Lattice
core-overlap-check vector
coulomb-interaction Slab 001
davidson-band-ratio 1.1
dump End None
dump-name $INPUT.$VAR
elec-cutoff 20
elec-eigen-algo Davidson
elec-ex-corr gga-PBE
elec-smearing Fermi 0.01
electronic-minimize  \
	dirUpdateScheme      FletcherReeves \
	linminMethod         DirUpdateRecommended \
	nIterations          100 \
	history              15 \
	knormThreshold       0 \
	energyDiffThreshold  1e-08 \
	nEnergyDiff          2 \
	alphaTstart          1 \
	alphaTmin            1e-10 \
	updateTestStepSize   yes \
	alphaTreduceFactor   0.1 \
	alphaTincreaseFactor 3 \
	nAlphaAdjustMax      3 \
	wolfeEnergy          0.0001 \
	wolfeGradient        0.9 \
	fdTest               no
electronic-scf  \
	nIterations	10000 \
	energyDiffThreshold	1e-08 \
	residualThreshold	1e-07 \
	mixFraction	0.5 \
	qMetric	0.8 \
	history	10 \
	nEigSteps	2 \
	eigDiffThreshold	1e-08 \
	mixedVariable	Density \
	qKerker	0.8 \
	qKappa	-1 \
	verbose	no \
	mixFractionMag	1.5
exchange-regularization WignerSeitzTruncated
fluid None
fluid-ex-corr (null) lda-PZ
fluid-gummel-loop 10 1.000000e-05
fluid-minimize  \
	dirUpdateScheme      PolakRibiere \
	linminMethod         DirUpdateRecommended \
	nIterations          100 \
	history              15 \
	knormThreshold       0 \
	energyDiffThreshold  0 \
	nEnergyDiff          2 \
	alphaTstart          1 \
	alphaTmin            1e-10 \
	updateTestStepSize   yes \
	alphaTreduceFactor   0.1 \
	alphaTincreaseFactor 3 \
	nAlphaAdjustMax      3 \
	wolfeEnergy          0.0001 \
	wolfeGradient        0.9 \
	fdTest               no
fluid-solvent H2O 55.338 ScalarEOS \
	epsBulk 78.4 \
	pMol 0.92466 \
	epsInf 1.77 \
	Pvap 1.06736e-10 \
	sigmaBulk 4.62e-05 \
	Rvdw 2.61727 \
	Res 1.42 \
	tauNuc 343133 \
	poleEl 15 7 1
forces-output-coords Positions
ion Li   0.000000000000000   0.000000000000000   0.000000000000000 0
ion-species SG15/$ID_ONCV_PBE.upf
ion-width 0
ionic-minimize  \
	dirUpdateScheme      L-BFGS \
	linminMethod         DirUpdateRecommended \
	nIterations          0 \
	history              15 \
	knormThreshold       0.0001 \
	energyDiffThreshold  1e-06 \
	nEnergyDiff          2 \
	alphaTstart          1 \
	alphaTmin            1e-10 \
	updateTestStepSize   yes \
	alphaTreduceFactor   0.1 \
	alphaTincreaseFactor 3 \
	nAlphaAdjustMax      3 \
	wolfeEnergy          0.0001 \
	wolfeGradient        0.9 \
	fdTest               no
kpoint   0.000000000000   0.000000000000   0.000000000000  1.00000000000000
kpoint-folding 12 12 1 
latt-move-scale 1 1 1
latt-scale 0.92 0.92 1 
lattice  \
	   4.727486978767153   -2.363743489383575    0.000000000000000  \
	  -0.000000000000000    4.094123819672498    0.000000000000000  \
	   0.000000000000000    0.000000000000000   40.000000000000000 
lattice-minimize  \
	dirUpdateScheme      L-BFGS \
	linminMethod         DirUpdateRecommended \
	nIterations          0 \
	history              15 \
	knormThreshold       0 \
	energyDiffThreshold  1e-06 \
	nEnergyDiff          2 \
	alphaTstart          1 \
	alphaTmin            1e-10 \
	updateTestStepSize   yes \
	alphaTreduceFactor   0.1 \
	alphaTincreaseFactor 3 \
	nAlphaAdjustMax      3 \
	wolfeEnergy          0.0001 \
	wolfeGradient        0.9 \
	fdTest               no
lcao-params -1 1e-06 0.01
pcm-variant GLSSA13
spintype no-spin
subspace-rotation-factor 1 yes
symmetries automatic
symmetry-threshold 0.0001



---------- Setting up symmetries ----------

Found 24 point-group symmetries of the bravais lattice
Found 24 space-group symmetries with basis
Applied RMS atom displacement 0 bohrs to make symmetries exact.

---------- Initializing the Grid ----------
R = 
[      4.34929     -2.17464            0  ]
[            0      3.76659            0  ]
[            0            0           40  ]
unit cell volume = 655.28
G =
[    1.44465   0.834067         -0  ]
[          0    1.66813         -0  ]
[         -0         -0    0.15708  ]
Minimum fftbox size, Smin = [  20  20  164  ]
Chosen fftbox size, S = [  20  20  168  ]

---------- Exchange Correlation functional ----------
Initalized PBE GGA exchange.
Initalized PBE GGA correlation.

---------- Setting up pseudopotentials ----------
Width of ionic core gaussian charges (only for fluid interactions / plotting) set to 0

Reading pseudopotential file '/home/gridsan/aligho/DFT/build-Nov24/pseudopotentials/SG15/Li_ONCV_PBE.upf':
  'Li' pseudopotential, 'PBE' functional
  Generated using ONCVPSP code by D. R. Hamann
  Author: Martin Schlipf and Francois Gygi  Date: 150915.
  3 valence electrons, 2 orbitals, 4 projectors, 1328 radial grid points, with lMax = 1
  Transforming local potential to a uniform radial grid of dG=0.02 with 1594 points.
  Transforming nonlocal projectors to a uniform radial grid of dG=0.02 with 432 points.
    1S    l: 0   occupation:  2.0   eigenvalue: -1.905623
    2S    l: 0   occupation:  1.0   eigenvalue: -0.105624
  Transforming atomic orbitals to a uniform radial grid of dG=0.02 with 432 points.
  WARNING: large normalization error in atomic orbital 1s (integral: 0.000000).
  Core radius for overlap checks: 1.63 bohrs.
  Reading pulay file /home/gridsan/aligho/DFT/build-Nov24/pseudopotentials/SG15/Li_ONCV_PBE.pulay ... using dE_dnG = -1.230239e-02 computed for Ecut = 20.

Initialized 1 species with 1 total atoms.

Folded 1 k-points by 12x12x1 to 144 k-points.

---------- Setting up k-points, bands, fillings ----------
Reduced to 19 k-points under symmetry. 
Computing the number of bands and number of electrons
Calculating initial fillings.
nElectrons:   3.000000   nBands: 3   nStates: 19

----- Setting up reduced wavefunction bases (one per k-point) -----
average nbasis = 2799.021 , ideal nbasis = 2799.406

---------- Setting up coulomb interaction ----------
Initialized slab truncation along lattice direction 001

---------- Setting up 2D ewald sum ----------
Optimum gaussian width for ewald sums = 2.414549 bohr.
Real space sums over 289 unit cells with max indices [  8  8  0  ]
Reciprocal space sums over 81 terms with max indices [  4  4  0  ]

---------- Allocating electronic variables ----------
Initializing wave functions:  linear combination of atomic orbitals
Note: number of bands (3) exceeds available atomic orbitals (2)
Li pseudo-atom occupations:   s ( 2 1 )
	FillingsUpdate:  mu: +0.214084146  nElectrons: 3.000000
LCAOMinimize: Iter:   0  F: -0.2874857258019105  |grad|_K:  1.434e-01  alpha:  1.000e+00
	FillingsUpdate:  mu: +0.230683611  nElectrons: 3.000000
LCAOMinimize: Iter:   1  F: -1.2127466317475981  |grad|_K:  6.091e-03  alpha:  6.783e-01  linmin: -1.546e-01  cgtest:  3.180e+00  t[s]:      1.06
LCAOMinimize: Encountered beta<0, resetting CG.
	FillingsUpdate:  mu: +0.231020227  nElectrons: 3.000000
LCAOMinimize: Iter:   2  F: -1.2153942978240306  |grad|_K:  8.211e-04  alpha:  8.110e-01  linmin: -7.530e-02  cgtest:  1.157e+00  t[s]:      1.28
LCAOMinimize: Encountered beta<0, resetting CG.
	FillingsUpdate:  mu: +0.231071460  nElectrons: 3.000000
LCAOMinimize: Iter:   3  F: -1.2154492195898148  |grad|_K:  2.004e-05  alpha:  9.483e-01  linmin: -7.627e-02  cgtest:  8.725e-01  t[s]:      1.49
LCAOMinimize: Encountered beta<0, resetting CG.
	FillingsUpdate:  mu: +0.231072270  nElectrons: 3.000000
LCAOMinimize: Iter:   4  F: -1.2154492536736370  |grad|_K:  5.338e-07  alpha:  9.927e-01  linmin: -1.051e-03  cgtest:  7.353e-03  t[s]:      1.70
	FillingsUpdate:  mu: +0.231072238  nElectrons: 3.000000
LCAOMinimize: Iter:   5  F: -1.2154492536974097  |grad|_K:  5.153e-09  alpha:  9.868e-01  linmin: -6.139e-02  cgtest:  6.194e-01  t[s]:      1.91
LCAOMinimize: Encountered beta<0, resetting CG.
LCAOMinimize: Converged (|Delta F|<1.000000e-06 for 2 iters).


---- Citations for features of the code used in this run ----

   Software package:
      R. Sundararaman, K. Letchworth-Weaver, K.A. Schwarz, D. Gunceler, Y. Ozhabes and T.A. Arias, 'JDFTx: software for joint density-functional theory', SoftwareX 6, 278 (2017)

   gga-PBE exchange-correlation functional:
      J.P. Perdew, K. Burke and M. Ernzerhof, Phys. Rev. Lett. 77, 3865 (1996)

   Pseudopotentials:
      M Schlipf and F Gygi, Comput. Phys. Commun. 196, 36 (2015)

   Truncated Coulomb potentials:
      R. Sundararaman and T.A. Arias, Phys. Rev. B 87, 165122 (2013)

This list may not be complete. Please suggest additional citations or
report any other bugs at https://github.com/shankar1729/jdftx/issues

Initialization completed successfully at t[s]:      1.94


-------- Electronic minimization -----------
Will mix electronic density at each iteration.
	FillingsUpdate:  mu: +0.231072238  nElectrons: 3.000000
	FillingsUpdate:  mu: -3.150343939  nElectrons: 3.000000
SCF: Cycle:  0   F: -5.927190182890212   dF: -4.712e+00   |Residual|: 6.546e-01   |deigs|: 4.335e+00  t[s]:      2.28
	FillingsUpdate:  mu: -3.137005535  nElectrons: 3.000000
SCF: Cycle:  1   F: -6.838330167860607   dF: -9.111e-01   |Residual|: 5.949e-01   |deigs|: 4.884e-01  t[s]:      2.49
	FillingsUpdate:  mu: -2.094144130  nElectrons: 3.000000
SCF: Cycle:  2   F: -6.687720670951548   dF: +1.506e-01   |Residual|: 1.518e+00   |deigs|: 1.724e+00  t[s]:      2.70
	FillingsUpdate:  mu: -2.739839685  nElectrons: 3.000000
SCF: Cycle:  3   F: -7.000711659792561   dF: -3.130e-01   |Residual|: 1.063e-01   |deigs|: 1.162e+00  t[s]:      2.91
	FillingsUpdate:  mu: -2.647653651  nElectrons: 3.000000
SCF: Cycle:  4   F: -6.999455490999151   dF: +1.256e-03   |Residual|: 7.579e-01   |deigs|: 2.309e-01  t[s]:      3.12
	FillingsUpdate:  mu: -2.489393341  nElectrons: 3.000000
SCF: Cycle:  5   F: -6.973119695029427   dF: +2.634e-02   |Residual|: 1.005e+00   |deigs|: 1.161e-01  t[s]:      3.33
	FillingsUpdate:  mu: -2.064512004  nElectrons: 3.000000
SCF: Cycle:  6   F: -7.014099778048053   dF: -4.098e-02   |Residual|: 5.496e-01   |deigs|: 5.630e-01  t[s]:      3.55
	FillingsUpdate:  mu: -1.340185395  nElectrons: 3.000000
SCF: Cycle:  7   F: -7.059128553061535   dF: -4.503e-02   |Residual|: 3.402e-01   |deigs|: 1.004e+00  t[s]:      3.77
	FillingsUpdate:  mu: -1.071466908  nElectrons: 3.000000
SCF: Cycle:  8   F: -7.066084780752472   dF: -6.956e-03   |Residual|: 1.868e-01   |deigs|: 2.382e-01  t[s]:      3.99
	FillingsUpdate:  mu: -2.256414146  nElectrons: 3.000000
SCF: Cycle:  9   F: -6.901419563789828   dF: +1.647e-01   |Residual|: 1.740e+00   |deigs|: 1.662e+00  t[s]:      4.21
	FillingsUpdate:  mu: -1.303664663  nElectrons: 3.000000
SCF: Cycle: 10   F: -6.940639063919084   dF: -3.922e-02   |Residual|: 1.173e+00   |deigs|: 1.015e+00  t[s]:      4.44
	FillingsUpdate:  mu: -0.775468927  nElectrons: 3.000000
SCF: Cycle: 11   F: -7.046446583176685   dF: -1.058e-01   |Residual|: 2.031e-01   |deigs|: 7.914e-01  t[s]:      4.66
[d-5-14-2:10896] 18 more processes have sent help message help-mpi-common-cuda.txt / dlopen failed
[d-5-14-2:10896] Set MCA parameter "orte_base_help_aggregate" to 0 to see all help / error messages
[d-5-14-2:10896] 18 more processes have sent help message help-mpi-btl-openib-cpc-base.txt / no cpcs for port
	FillingsUpdate:  mu: -0.223674294  nElectrons: 3.000000
SCF: Cycle: 12   F: -7.069398340002126   dF: -2.295e-02   |Residual|: 1.668e-01   |deigs|: 6.331e-01  t[s]:      4.88
	FillingsUpdate:  mu: -0.179186285  nElectrons: 3.000000
SCF: Cycle: 13   F: -7.069793245469072   dF: -3.949e-04   |Residual|: 1.346e-01   |deigs|: 5.662e-02  t[s]:      5.09
	FillingsUpdate:  mu: -0.121790052  nElectrons: 3.000000
SCF: Cycle: 14   F: -7.070807513352579   dF: -1.014e-03   |Residual|: 4.622e-02   |deigs|: 4.698e-02  t[s]:      5.31
	FillingsUpdate:  mu: -0.168396222  nElectrons: 3.000000
SCF: Cycle: 15   F: -7.070872412700493   dF: -6.490e-05   |Residual|: 3.582e-02   |deigs|: 4.200e-02  t[s]:      5.52
	FillingsUpdate:  mu: -0.151543842  nElectrons: 3.000000
SCF: Cycle: 16   F: -7.071055983596933   dF: -1.836e-04   |Residual|: 3.179e-02   |deigs|: 1.691e-02  t[s]:      5.73
	FillingsUpdate:  mu: -0.163122579  nElectrons: 3.000000
SCF: Cycle: 17   F: -7.071051797343505   dF: +4.186e-06   |Residual|: 9.463e-03   |deigs|: 9.733e-03  t[s]:      5.95
	FillingsUpdate:  mu: -0.160820383  nElectrons: 3.000000
SCF: Cycle: 18   F: -7.071118033647739   dF: -6.624e-05   |Residual|: 1.771e-03   |deigs|: 5.214e-03  t[s]:      6.16
	FillingsUpdate:  mu: -0.160835225  nElectrons: 3.000000
SCF: Cycle: 19   F: -7.071120833209091   dF: -2.800e-06   |Residual|: 6.969e-04   |deigs|: 2.528e-03  t[s]:      6.37
	FillingsUpdate:  mu: -0.158005387  nElectrons: 3.000000
SCF: Cycle: 20   F: -7.071123541076212   dF: -2.708e-06   |Residual|: 3.884e-04   |deigs|: 3.045e-03  t[s]:      6.57
	FillingsUpdate:  mu: -0.158419408  nElectrons: 3.000000
SCF: Cycle: 21   F: -7.071123818590727   dF: -2.775e-07   |Residual|: 1.636e-04   |deigs|: 5.997e-04  t[s]:      6.78
	FillingsUpdate:  mu: -0.159465460  nElectrons: 3.000000
SCF: Cycle: 22   F: -7.071124433446355   dF: -6.149e-07   |Residual|: 1.028e-04   |deigs|: 1.058e-03  t[s]:      6.99
	FillingsUpdate:  mu: -0.159776018  nElectrons: 3.000000
SCF: Cycle: 23   F: -7.071124457112512   dF: -2.367e-08   |Residual|: 2.975e-05   |deigs|: 3.547e-04  t[s]:      7.20
	FillingsUpdate:  mu: -0.159836014  nElectrons: 3.000000
SCF: Cycle: 24   F: -7.071124456877535   dF: +2.350e-10   |Residual|: 5.506e-05   |deigs|: 9.936e-05  t[s]:      7.41
	FillingsUpdate:  mu: -0.159645813  nElectrons: 3.000000
SCF: Cycle: 25   F: -7.071124466213925   dF: -9.336e-09   |Residual|: 1.740e-05   |deigs|: 2.139e-04  t[s]:      7.62
	FillingsUpdate:  mu: -0.159713929  nElectrons: 3.000000
SCF: Cycle: 26   F: -7.071124465871814   dF: +3.421e-10   |Residual|: 2.504e-05   |deigs|: 8.702e-05  t[s]:      7.82
	FillingsUpdate:  mu: -0.159646393  nElectrons: 3.000000
SCF: Cycle: 27   F: -7.071124467750624   dF: -1.879e-09   |Residual|: 2.492e-06   |deigs|: 7.670e-05  t[s]:      8.03
	FillingsUpdate:  mu: -0.159651986  nElectrons: 3.000000
SCF: Cycle: 28   F: -7.071124467876343   dF: -1.257e-10   |Residual|: 1.027e-06   |deigs|: 1.010e-05  t[s]:      8.23
SCF: Converged (|Delta E|<1.000000e-08 for 2 iters).


# Ionic positions in lattice coordinates:
ion Li   0.000000000000000   0.000000000000000   0.000000000000000 0

# Forces in Lattice coordinates:
force Li   0.000000000000000   0.000000000000000   0.000000000000000 0

# Energy components:
   Eewald =       -4.3594265942832564
       EH =       -0.7870048358130060
     Eloc =       -1.6268859923159749
      Enl =       -3.6426874300318151
   Epulay =       -0.0000072387732182
      Exc =       -1.6371565473841565
       KE =        4.9872854062687093
-------------------------------------
     Etot =       -7.0658832323327179
       TS =        0.0052412355436253
-------------------------------------
        F =       -7.0711244678763432

IonicMinimize: Iter:   0  F: -7.071124467876343  |grad|_K:  0.000e+00  t[s]:      8.25
IonicMinimize: Converged (|grad|_K<1.000000e-04).

#--- Lowdin population analysis ---
# oxidation-state Li +1.852

End date and time: Sun Jan 16 15:06:58 2022  (Duration: 0-0:00:08.25)
Done!
