2.09
--------------------------------------------------------------------------
The library attempted to open the following supporting CUDA libraries,
but each of them failed.  CUDA-aware support is disabled.
libcuda.so.1: cannot open shared object file: No such file or directory
libcuda.dylib: cannot open shared object file: No such file or directory
/usr/lib64/libcuda.so.1: cannot open shared object file: No such file or directory
/usr/lib64/libcuda.dylib: cannot open shared object file: No such file or directory
If you are not interested in CUDA-aware support, then run with
--mca opal_warn_on_missing_libcuda 0 to suppress this message.  If you are interested
in CUDA-aware support, then try setting LD_LIBRARY_PATH to the location
of libcuda.so.1 to get passed this issue.
--------------------------------------------------------------------------
--------------------------------------------------------------------------
No OpenFabrics connection schemes reported that they were able to be
used on a specific port.  As such, the openib BTL (OpenFabrics
support) will be disabled for this port.

  Local host:           d-4-3-2
  Local device:         mlx5_1
  Local port:           1
  CPCs attempted:       rdmacm, udcm
--------------------------------------------------------------------------

*************** JDFTx 1.6.0 (git hash 42ebbcc2) ***************

Start date and time: Sun Jan 16 15:08:05 2022
Executable jdftx with command-line: -i Lithium.in
Running on hosts (process indices):  d-4-3-2 (0-18)
Divided in process groups (process indices):  0 (0)  1 (1)  2 (2)  3 (3)  4 (4)  5 (5)  6 (6)  7 (7)  8 (8)  9 (9)  10 (10)  11 (11)  12 (12)  13 (13)  14 (14)  15 (15)  16 (16)  17 (17)  18 (18)
Resource initialization completed at t[s]:      0.00
Run totals: 19 processes, 48 threads, 0 GPUs


Input parsed successfully to the following command list (including defaults):

basis kpoint-dependent
coords-type Lattice
core-overlap-check vector
coulomb-interaction Slab 001
davidson-band-ratio 1.1
dump End None
dump-name $INPUT.$VAR
elec-cutoff 20
elec-eigen-algo Davidson
elec-ex-corr gga-PBE
elec-smearing Fermi 0.01
electronic-minimize  \
	dirUpdateScheme      FletcherReeves \
	linminMethod         DirUpdateRecommended \
	nIterations          100 \
	history              15 \
	knormThreshold       0 \
	energyDiffThreshold  1e-08 \
	nEnergyDiff          2 \
	alphaTstart          1 \
	alphaTmin            1e-10 \
	updateTestStepSize   yes \
	alphaTreduceFactor   0.1 \
	alphaTincreaseFactor 3 \
	nAlphaAdjustMax      3 \
	wolfeEnergy          0.0001 \
	wolfeGradient        0.9 \
	fdTest               no
electronic-scf  \
	nIterations	10000 \
	energyDiffThreshold	1e-08 \
	residualThreshold	1e-07 \
	mixFraction	0.5 \
	qMetric	0.8 \
	history	10 \
	nEigSteps	2 \
	eigDiffThreshold	1e-08 \
	mixedVariable	Density \
	qKerker	0.8 \
	qKappa	-1 \
	verbose	no \
	mixFractionMag	1.5
exchange-regularization WignerSeitzTruncated
fluid None
fluid-ex-corr (null) lda-PZ
fluid-gummel-loop 10 1.000000e-05
fluid-minimize  \
	dirUpdateScheme      PolakRibiere \
	linminMethod         DirUpdateRecommended \
	nIterations          100 \
	history              15 \
	knormThreshold       0 \
	energyDiffThreshold  0 \
	nEnergyDiff          2 \
	alphaTstart          1 \
	alphaTmin            1e-10 \
	updateTestStepSize   yes \
	alphaTreduceFactor   0.1 \
	alphaTincreaseFactor 3 \
	nAlphaAdjustMax      3 \
	wolfeEnergy          0.0001 \
	wolfeGradient        0.9 \
	fdTest               no
fluid-solvent H2O 55.338 ScalarEOS \
	epsBulk 78.4 \
	pMol 0.92466 \
	epsInf 1.77 \
	Pvap 1.06736e-10 \
	sigmaBulk 4.62e-05 \
	Rvdw 2.61727 \
	Res 1.42 \
	tauNuc 343133 \
	poleEl 15 7 1
forces-output-coords Positions
ion Li   0.000000000000000   0.000000000000000   0.000000000000000 0
ion-species SG15/$ID_ONCV_PBE.upf
ion-width 0
ionic-minimize  \
	dirUpdateScheme      L-BFGS \
	linminMethod         DirUpdateRecommended \
	nIterations          0 \
	history              15 \
	knormThreshold       0.0001 \
	energyDiffThreshold  1e-06 \
	nEnergyDiff          2 \
	alphaTstart          1 \
	alphaTmin            1e-10 \
	updateTestStepSize   yes \
	alphaTreduceFactor   0.1 \
	alphaTincreaseFactor 3 \
	nAlphaAdjustMax      3 \
	wolfeEnergy          0.0001 \
	wolfeGradient        0.9 \
	fdTest               no
kpoint   0.000000000000   0.000000000000   0.000000000000  1.00000000000000
kpoint-folding 12 12 1 
latt-move-scale 1 1 1
latt-scale 2.09 2.09 1 
lattice  \
	   4.727486978767153   -2.363743489383575    0.000000000000000  \
	  -0.000000000000000    4.094123819672498    0.000000000000000  \
	   0.000000000000000    0.000000000000000   40.000000000000000 
lattice-minimize  \
	dirUpdateScheme      L-BFGS \
	linminMethod         DirUpdateRecommended \
	nIterations          0 \
	history              15 \
	knormThreshold       0 \
	energyDiffThreshold  1e-06 \
	nEnergyDiff          2 \
	alphaTstart          1 \
	alphaTmin            1e-10 \
	updateTestStepSize   yes \
	alphaTreduceFactor   0.1 \
	alphaTincreaseFactor 3 \
	nAlphaAdjustMax      3 \
	wolfeEnergy          0.0001 \
	wolfeGradient        0.9 \
	fdTest               no
lcao-params -1 1e-06 0.01
pcm-variant GLSSA13
spintype no-spin
subspace-rotation-factor 1 yes
symmetries automatic
symmetry-threshold 0.0001



---------- Setting up symmetries ----------

Found 24 point-group symmetries of the bravais lattice
Found 24 space-group symmetries with basis
Applied RMS atom displacement 0 bohrs to make symmetries exact.

---------- Initializing the Grid ----------
R = 
[      9.88045     -4.94022            0  ]
[            0      8.55672            0  ]
[            0            0           40  ]
unit cell volume = 3381.77
G =
[   0.635921   0.367149         -0  ]
[          0   0.734298         -0  ]
[         -0         -0    0.15708  ]
Minimum fftbox size, Smin = [  40  40  164  ]
Chosen fftbox size, S = [  40  40  168  ]

---------- Exchange Correlation functional ----------
Initalized PBE GGA exchange.
Initalized PBE GGA correlation.

---------- Setting up pseudopotentials ----------
Width of ionic core gaussian charges (only for fluid interactions / plotting) set to 0

Reading pseudopotential file '/home/gridsan/aligho/DFT/build-Nov24/pseudopotentials/SG15/Li_ONCV_PBE.upf':
  'Li' pseudopotential, 'PBE' functional
  Generated using ONCVPSP code by D. R. Hamann
  Author: Martin Schlipf and Francois Gygi  Date: 150915.
  3 valence electrons, 2 orbitals, 4 projectors, 1328 radial grid points, with lMax = 1
  Transforming local potential to a uniform radial grid of dG=0.02 with 1438 points.
  Transforming nonlocal projectors to a uniform radial grid of dG=0.02 with 432 points.
    1S    l: 0   occupation:  2.0   eigenvalue: -1.905623
    2S    l: 0   occupation:  1.0   eigenvalue: -0.105624
  Transforming atomic orbitals to a uniform radial grid of dG=0.02 with 432 points.
  WARNING: large normalization error in atomic orbital 1s (integral: 0.000000).
  Core radius for overlap checks: 1.63 bohrs.
  Reading pulay file /home/gridsan/aligho/DFT/build-Nov24/pseudopotentials/SG15/Li_ONCV_PBE.pulay ... using dE_dnG = -1.230239e-02 computed for Ecut = 20.

Initialized 1 species with 1 total atoms.

Folded 1 k-points by 12x12x1 to 144 k-points.

---------- Setting up k-points, bands, fillings ----------
Reduced to 19 k-points under symmetry. 
Computing the number of bands and number of electrons
Calculating initial fillings.
nElectrons:   3.000000   nBands: 3   nStates: 19

----- Setting up reduced wavefunction bases (one per k-point) -----
average nbasis = 14445.396 , ideal nbasis = 14447.173

---------- Setting up coulomb interaction ----------
Initialized slab truncation along lattice direction 001

---------- Setting up 2D ewald sum ----------
Optimum gaussian width for ewald sums = 5.485226 bohr.
Real space sums over 289 unit cells with max indices [  8  8  0  ]
Reciprocal space sums over 81 terms with max indices [  4  4  0  ]

---------- Allocating electronic variables ----------
Initializing wave functions:  linear combination of atomic orbitals
Note: number of bands (3) exceeds available atomic orbitals (2)
Li pseudo-atom occupations:   s ( 2 1 )
	FillingsUpdate:  mu: +0.332504442  nElectrons: 3.000000
LCAOMinimize: Iter:   0  F: -1.2019905231374810  |grad|_K:  2.965e-03  alpha:  1.000e+00
LCAOMinimize: 	Predicted alpha/alphaT>3.000000, increasing alphaT to 3.000000e+00.
	FillingsUpdate:  mu: +0.332504281  nElectrons: 3.000000
LCAOMinimize: Iter:   1  F: -1.2019969752360611  |grad|_K:  2.959e-03  alpha:  4.292e-03  linmin: -1.030e-02  cgtest:  9.979e-01  t[s]:      2.59
LCAOMinimize: Encountered beta<0, resetting CG.
LCAOMinimize: 	Predicted alpha/alphaT>3.000000, increasing alphaT to 1.287695e-02.
LCAOMinimize: 	Predicted alpha/alphaT>3.000000, increasing alphaT to 3.863086e-02.
LCAOMinimize: 	Wrong curvature in test step, increasing alphaT to 1.158926e-01.
	FillingsUpdate:  mu: +0.332502808  nElectrons: 3.000000
LCAOMinimize: Iter:   2  F: -1.2020547980025931  |grad|_K:  2.902e-03  alpha: -5.214e+02  linmin: -1.042e-02  cgtest:  9.805e-01  t[s]:      3.58
LCAOMinimize: 	Predicted alpha/alphaT>3.000000, increasing alphaT to 3.000000e+00.
	FillingsUpdate:  mu: +0.332502643  nElectrons: 3.000000
LCAOMinimize: Iter:   3  F: -1.2020611722112744  |grad|_K:  2.895e-03  alpha:  4.426e-03  linmin: -1.044e-02  cgtest:  9.978e-01  t[s]:      4.41
LCAOMinimize: 	Wrong curvature in test step, increasing alphaT to 1.327788e-02.
[d-4-3-2:89986] 18 more processes have sent help message help-mpi-common-cuda.txt / dlopen failed
[d-4-3-2:89986] Set MCA parameter "orte_base_help_aggregate" to 0 to see all help / error messages
[d-4-3-2:89986] 18 more processes have sent help message help-mpi-btl-openib-cpc-base.txt / no cpcs for port
	FillingsUpdate:  mu: +0.332502478  nElectrons: 3.000000
LCAOMinimize: Iter:   4  F: -1.2020675181040814  |grad|_K:  2.889e-03  alpha: -4.132e+01  linmin: -1.045e-02  cgtest:  9.977e-01  t[s]:      4.94
LCAOMinimize: 	Predicted alpha/alphaT>3.000000, increasing alphaT to 3.000000e+00.
	FillingsUpdate:  mu: +0.332502303  nElectrons: 3.000000
LCAOMinimize: Iter:   5  F: -1.2020742136190019  |grad|_K:  2.883e-03  alpha:  4.690e-03  linmin: -1.047e-02  cgtest:  9.976e-01  t[s]:      5.71
LCAOMinimize: 	Wrong curvature in test step, increasing alphaT to 1.406934e-02.
	FillingsUpdate:  mu: +0.332502129  nElectrons: 3.000000
LCAOMinimize: Iter:   6  F: -1.2020808790330304  |grad|_K:  2.876e-03  alpha: -3.286e+01  linmin: -1.048e-02  cgtest:  9.976e-01  t[s]:      6.25
LCAOMinimize: 	Predicted alpha/alphaT>3.000000, increasing alphaT to 3.000000e+00.
	FillingsUpdate:  mu: +0.332501937  nElectrons: 3.000000
LCAOMinimize: Iter:   7  F: -1.2020881948228066  |grad|_K:  2.869e-03  alpha:  5.171e-03  linmin: -1.050e-02  cgtest:  9.973e-01  t[s]:      7.01
LCAOMinimize: 	Wrong curvature in test step, increasing alphaT to 1.551162e-02.
	FillingsUpdate:  mu: +0.332501745  nElectrons: 3.000000
LCAOMinimize: Iter:   8  F: -1.2020954746621426  |grad|_K:  2.862e-03  alpha: -2.687e+01  linmin: -1.052e-02  cgtest:  9.973e-01  t[s]:      7.55
LCAOMinimize: 	Predicted alpha/alphaT>3.000000, increasing alphaT to 3.000000e+00.
	FillingsUpdate:  mu: +0.332501520  nElectrons: 3.000000
LCAOMinimize: Iter:   9  F: -1.2021039851749100  |grad|_K:  2.854e-03  alpha:  6.074e-03  linmin: -1.054e-02  cgtest:  9.969e-01  t[s]:      8.32
LCAOMinimize: 	Wrong curvature in test step, increasing alphaT to 1.822305e-02.
	FillingsUpdate:  mu: +0.332501296  nElectrons: 3.000000
LCAOMinimize: Iter:  10  F: -1.2021124470938795  |grad|_K:  2.845e-03  alpha: -2.228e+01  linmin: -1.057e-02  cgtest:  9.968e-01  t[s]:      8.86
LCAOMinimize: 	Predicted alpha/alphaT>3.000000, increasing alphaT to 3.000000e+00.
	FillingsUpdate:  mu: +0.332501002  nElectrons: 3.000000
LCAOMinimize: Iter:  11  F: -1.2021234324256209  |grad|_K:  2.835e-03  alpha:  7.931e-03  linmin: -1.060e-02  cgtest:  9.959e-01  t[s]:      9.62
LCAOMinimize: 	Wrong curvature in test step, increasing alphaT to 2.379226e-02.
	FillingsUpdate:  mu: +0.332500710  nElectrons: 3.000000
LCAOMinimize: Iter:  12  F: -1.2021343371475914  |grad|_K:  2.824e-03  alpha: -1.835e+01  linmin: -1.063e-02  cgtest:  9.958e-01  t[s]:     10.22
LCAOMinimize: 	Predicted alpha/alphaT>3.000000, increasing alphaT to 3.000000e+00.
	FillingsUpdate:  mu: +0.332500227  nElectrons: 3.000000
LCAOMinimize: Iter:  13  F: -1.2021521862807569  |grad|_K:  2.807e-03  alpha:  1.308e-02  linmin: -1.068e-02  cgtest:  9.931e-01  t[s]:     11.01
LCAOMinimize: 	Wrong curvature in test step, increasing alphaT to 3.922698e-02.
	FillingsUpdate:  mu: +0.332499746  nElectrons: 3.000000
LCAOMinimize: Iter:  14  F: -1.2021698255329849  |grad|_K:  2.790e-03  alpha: -1.447e+01  linmin: -1.074e-02  cgtest:  9.930e-01  t[s]:     11.57
LCAOMinimize: 	Predicted alpha/alphaT>3.000000, increasing alphaT to 3.000000e+00.
	FillingsUpdate:  mu: +0.332498312  nElectrons: 3.000000
LCAOMinimize: Iter:  15  F: -1.2022214947766392  |grad|_K:  2.740e-03  alpha:  3.872e-02  linmin: -1.092e-02  cgtest:  9.789e-01  t[s]:     12.34
LCAOMinimize: 	Wrong curvature in test step, increasing alphaT to 1.161621e-01.
	FillingsUpdate:  mu: +0.332496888  nElectrons: 3.000000
LCAOMinimize: Iter:  16  F: -1.2022714901717870  |grad|_K:  2.693e-03  alpha: -9.368e+00  linmin: -1.111e-02  cgtest:  9.784e-01  t[s]:     12.90
LCAOMinimize: 	Predicted alpha/alphaT>3.000000, increasing alphaT to 3.000000e+00.
	FillingsUpdate:  mu: +0.332493914  nElectrons: 3.000000
LCAOMinimize: Iter:  17  F: -1.2023719822865833  |grad|_K:  2.598e-03  alpha:  8.026e-02  linmin: -1.158e-02  cgtest:  9.535e-01  t[s]:     13.67
LCAOMinimize: 	Wrong curvature in test step, increasing alphaT to 2.407705e-01.
	FillingsUpdate:  mu: +0.332490983  nElectrons: 3.000000
LCAOMinimize: Iter:  18  F: -1.2024663560383244  |grad|_K:  2.509e-03  alpha: -5.661e+00  linmin: -1.213e-02  cgtest:  9.517e-01  t[s]:     14.23
LCAOMinimize: 	Predicted alpha/alphaT>3.000000, increasing alphaT to 3.000000e+00.
	FillingsUpdate:  mu: +0.332487986  nElectrons: 3.000000
LCAOMinimize: Iter:  19  F: -1.2025586426673247  |grad|_K:  2.421e-03  alpha:  8.375e-02  linmin: -1.277e-02  cgtest:  9.484e-01  t[s]:     15.00
LCAOMinimize: 	Wrong curvature in test step, increasing alphaT to 2.512595e-01.
	FillingsUpdate:  mu: +0.332485068  nElectrons: 3.000000
LCAOMinimize: Iter:  20  F: -1.2026448985994846  |grad|_K:  2.338e-03  alpha: -4.600e+00  linmin: -1.347e-02  cgtest:  9.478e-01  t[s]:     15.56
LCAOMinimize: 	Predicted alpha/alphaT>3.000000, increasing alphaT to 3.000000e+00.
	FillingsUpdate:  mu: +0.332482191  nElectrons: 3.000000
LCAOMinimize: Iter:  21  F: -1.2027268035340846  |grad|_K:  2.254e-03  alpha:  8.525e-02  linmin: -1.420e-02  cgtest:  9.470e-01  t[s]:     16.33
LCAOMinimize: 	Wrong curvature in test step, increasing alphaT to 2.557440e-01.
	FillingsUpdate:  mu: +0.332479426  nElectrons: 3.000000
LCAOMinimize: Iter:  22  F: -1.2028029062079975  |grad|_K:  2.172e-03  alpha: -5.150e+00  linmin: -1.494e-02  cgtest:  9.479e-01  t[s]:     16.87
LCAOMinimize: 	Step increased F by 9.506530e-03, reducing alpha to 2.408197e-01.
	FillingsUpdate:  mu: +0.332471661  nElectrons: 3.000000
LCAOMinimize: Iter:  23  F: -1.2030035933558310  |grad|_K:  1.911e-03  alpha:  2.408e-01  linmin: -1.700e-02  cgtest:  8.581e-01  t[s]:     17.72
LCAOMinimize: 	Predicted alpha/alphaT>3.000000, increasing alphaT to 7.224591e-01.
LCAOMinimize: 	Predicted alpha/alphaT>3.000000, increasing alphaT to 2.167377e+00.
	FillingsUpdate:  mu: +0.332458772  nElectrons: 3.000000
LCAOMinimize: Iter:  24  F: -1.2032840547342118  |grad|_K:  1.293e-03  alpha:  4.559e-01  linmin: -1.937e-02  cgtest:  7.839e-01  t[s]:     18.71
LCAOMinimize: Encountered beta<0, resetting CG.
LCAOMinimize: 	Predicted alpha/alphaT>3.000000, increasing alphaT to 1.367704e+00.
	FillingsUpdate:  mu: +0.332441160  nElectrons: 3.000000
LCAOMinimize: Iter:  25  F: -1.2034534608399667  |grad|_K:  7.304e-05  alpha:  1.029e+00  linmin:  2.009e-02  cgtest: -7.322e-01  t[s]:     19.51
LCAOMinimize: 	Bad step direction: g.d > 0.
LCAOMinimize: 	Undoing step.
LCAOMinimize: 	Step failed: resetting search direction.
	FillingsUpdate:  mu: +0.332441160  nElectrons: 3.000000
LCAOMinimize: Iter:  26  F: -1.2034534608399667  |grad|_K:  7.304e-05  alpha:  0.000e+00
	FillingsUpdate:  mu: +0.332441694  nElectrons: 3.000000
LCAOMinimize: Iter:  27  F: -1.2034539059768767  |grad|_K:  6.151e-07  alpha:  9.767e-01  linmin: -1.991e-02  cgtest:  7.015e-01  t[s]:     20.38
LCAOMinimize: Encountered beta<0, resetting CG.
	FillingsUpdate:  mu: +0.332441695  nElectrons: 3.000000
LCAOMinimize: Iter:  28  F: -1.2034539060135621  |grad|_K:  5.740e-08  alpha:  1.110e+00  linmin:  2.599e-02  cgtest: -9.107e-01  t[s]:     20.91
LCAOMinimize: Converged (|Delta F|<1.000000e-06 for 2 iters).


---- Citations for features of the code used in this run ----

   Software package:
      R. Sundararaman, K. Letchworth-Weaver, K.A. Schwarz, D. Gunceler, Y. Ozhabes and T.A. Arias, 'JDFTx: software for joint density-functional theory', SoftwareX 6, 278 (2017)

   gga-PBE exchange-correlation functional:
      J.P. Perdew, K. Burke and M. Ernzerhof, Phys. Rev. Lett. 77, 3865 (1996)

   Pseudopotentials:
      M Schlipf and F Gygi, Comput. Phys. Commun. 196, 36 (2015)

   Truncated Coulomb potentials:
      R. Sundararaman and T.A. Arias, Phys. Rev. B 87, 165122 (2013)

This list may not be complete. Please suggest additional citations or
report any other bugs at https://github.com/shankar1729/jdftx/issues

Initialization completed successfully at t[s]:     20.95


-------- Electronic minimization -----------
Will mix electronic density at each iteration.
	FillingsUpdate:  mu: +0.332441695  nElectrons: 3.000000
	FillingsUpdate:  mu: -0.928630986  nElectrons: 3.000000
SCF: Cycle:  0   F: -6.864675178171953   dF: -5.661e+00   |Residual|: 1.181e+00   |deigs|: 4.164e+00  t[s]:     21.88
	FillingsUpdate:  mu: -0.821330707  nElectrons: 3.000000
SCF: Cycle:  1   F: -6.936780339357844   dF: -7.211e-02   |Residual|: 7.714e-01   |deigs|: 2.406e-01  t[s]:     22.58
	FillingsUpdate:  mu: -0.563646795  nElectrons: 3.000000
SCF: Cycle:  2   F: -7.053200795925801   dF: -1.164e-01   |Residual|: 4.027e-01   |deigs|: 7.751e-01  t[s]:     23.28
	FillingsUpdate:  mu: -0.610095080  nElectrons: 3.000000
SCF: Cycle:  3   F: -7.060523565299158   dF: -7.323e-03   |Residual|: 1.987e-01   |deigs|: 1.272e-01  t[s]:     23.98
	FillingsUpdate:  mu: -0.569692473  nElectrons: 3.000000
SCF: Cycle:  4   F: -7.058002964620753   dF: +2.521e-03   |Residual|: 9.553e-02   |deigs|: 3.958e-02  t[s]:     24.70
	FillingsUpdate:  mu: -0.532497432  nElectrons: 3.000000
SCF: Cycle:  5   F: -7.058440380653846   dF: -4.374e-04   |Residual|: 1.052e-01   |deigs|: 3.664e-02  t[s]:     25.43
	FillingsUpdate:  mu: -0.391478980  nElectrons: 3.000000
SCF: Cycle:  6   F: -7.061650420028752   dF: -3.210e-03   |Residual|: 2.948e-01   |deigs|: 2.746e-01  t[s]:     26.17
	FillingsUpdate:  mu: -0.340269967  nElectrons: 3.000000
SCF: Cycle:  7   F: -7.062404249039000   dF: -7.538e-04   |Residual|: 4.090e-01   |deigs|: 2.103e-01  t[s]:     26.96
	FillingsUpdate:  mu: -0.303647230  nElectrons: 3.000000
SCF: Cycle:  8   F: -7.065980778944714   dF: -3.577e-03   |Residual|: 2.395e-01   |deigs|: 5.380e-02  t[s]:     27.75
	FillingsUpdate:  mu: -0.208161511  nElectrons: 3.000000
SCF: Cycle:  9   F: -7.058012414396037   dF: +7.968e-03   |Residual|: 4.929e-01   |deigs|: 3.026e-01  t[s]:     28.52
	FillingsUpdate:  mu: -0.209085124  nElectrons: 3.000000
SCF: Cycle: 10   F: -7.067082939406625   dF: -9.071e-03   |Residual|: 2.004e-01   |deigs|: 1.013e-01  t[s]:     29.32
	FillingsUpdate:  mu: -0.105063902  nElectrons: 3.000000
SCF: Cycle: 11   F: -7.067867588605098   dF: -7.846e-04   |Residual|: 8.985e-02   |deigs|: 1.085e-01  t[s]:     30.14
	FillingsUpdate:  mu: -0.121048623  nElectrons: 3.000000
SCF: Cycle: 12   F: -7.069401970116528   dF: -1.534e-03   |Residual|: 1.597e-02   |deigs|: 5.188e-02  t[s]:     30.91
	FillingsUpdate:  mu: -0.109192672  nElectrons: 3.000000
SCF: Cycle: 13   F: -7.069702665684188   dF: -3.007e-04   |Residual|: 4.038e-02   |deigs|: 2.247e-02  t[s]:     31.68
	FillingsUpdate:  mu: -0.111874632  nElectrons: 3.000000
SCF: Cycle: 14   F: -7.070008517031343   dF: -3.059e-04   |Residual|: 3.454e-03   |deigs|: 1.665e-02  t[s]:     32.45
	FillingsUpdate:  mu: -0.112754794  nElectrons: 3.000000
SCF: Cycle: 15   F: -7.070046029661615   dF: -3.751e-05   |Residual|: 6.686e-03   |deigs|: 4.724e-03  t[s]:     33.23
	FillingsUpdate:  mu: -0.112435577  nElectrons: 3.000000
SCF: Cycle: 16   F: -7.070055290015949   dF: -9.260e-06   |Residual|: 2.267e-03   |deigs|: 3.384e-03  t[s]:     34.02
	FillingsUpdate:  mu: -0.112002754  nElectrons: 3.000000
SCF: Cycle: 17   F: -7.070057884296775   dF: -2.594e-06   |Residual|: 4.366e-04   |deigs|: 8.028e-04  t[s]:     34.80
	FillingsUpdate:  mu: -0.111915219  nElectrons: 3.000000
SCF: Cycle: 18   F: -7.070059035626471   dF: -1.151e-06   |Residual|: 3.886e-04   |deigs|: 7.025e-04  t[s]:     35.57
	FillingsUpdate:  mu: -0.111875996  nElectrons: 3.000000
SCF: Cycle: 19   F: -7.070059545899948   dF: -5.103e-07   |Residual|: 8.120e-05   |deigs|: 4.505e-04  t[s]:     36.33
	FillingsUpdate:  mu: -0.111821953  nElectrons: 3.000000
SCF: Cycle: 20   F: -7.070059829894457   dF: -2.840e-07   |Residual|: 3.714e-05   |deigs|: 1.928e-04  t[s]:     37.10
	FillingsUpdate:  mu: -0.111820104  nElectrons: 3.000000
SCF: Cycle: 21   F: -7.070059951155354   dF: -1.213e-07   |Residual|: 1.497e-05   |deigs|: 8.720e-05  t[s]:     37.86
	FillingsUpdate:  mu: -0.111838538  nElectrons: 3.000000
SCF: Cycle: 22   F: -7.070060045359628   dF: -9.420e-08   |Residual|: 1.037e-05   |deigs|: 7.097e-05  t[s]:     38.61
	FillingsUpdate:  mu: -0.111852556  nElectrons: 3.000000
SCF: Cycle: 23   F: -7.070060092324513   dF: -4.696e-08   |Residual|: 5.386e-06   |deigs|: 3.740e-05  t[s]:     39.37
	FillingsUpdate:  mu: -0.111837748  nElectrons: 3.000000
SCF: Cycle: 24   F: -7.070060106237332   dF: -1.391e-08   |Residual|: 3.501e-06   |deigs|: 1.691e-05  t[s]:     40.12
	FillingsUpdate:  mu: -0.111839103  nElectrons: 3.000000
SCF: Cycle: 25   F: -7.070060134463608   dF: -2.823e-08   |Residual|: 4.278e-06   |deigs|: 3.231e-05  t[s]:     40.86
	FillingsUpdate:  mu: -0.111838669  nElectrons: 3.000000
SCF: Cycle: 26   F: -7.070060200350285   dF: -6.589e-08   |Residual|: 4.743e-06   |deigs|: 9.999e-05  t[s]:     41.61
	FillingsUpdate:  mu: -0.111844273  nElectrons: 3.000000
SCF: Cycle: 27   F: -7.070060217631563   dF: -1.728e-08   |Residual|: 2.490e-06   |deigs|: 2.514e-05  t[s]:     42.33
	FillingsUpdate:  mu: -0.111843131  nElectrons: 3.000000
SCF: Cycle: 28   F: -7.070060224007459   dF: -6.376e-09   |Residual|: 1.669e-06   |deigs|: 8.000e-06  t[s]:     43.07
	FillingsUpdate:  mu: -0.111841619  nElectrons: 3.000000
SCF: Cycle: 29   F: -7.070060226781221   dF: -2.774e-09   |Residual|: 1.497e-06   |deigs|: 3.639e-06  t[s]:     43.82
SCF: Converged (|Delta E|<1.000000e-08 for 2 iters).


# Ionic positions in lattice coordinates:
ion Li   0.000000000000000   0.000000000000000   0.000000000000000 0

# Forces in Lattice coordinates:
force Li  -0.000000000000000   0.000000000000000   0.000000000000000 0

# Energy components:
   Eewald =       -1.9189820415026748
       EH =        1.6087549481574901
     Eloc =       -6.3556672813228694
      Enl =       -3.5909538763977631
   Epulay =       -0.0000064645627956
      Exc =       -1.5344855925638132
       KE =        4.7309849593682536
-------------------------------------
     Etot =       -7.0603553488241744
       TS =        0.0097048779570469
-------------------------------------
        F =       -7.0700602267812211

IonicMinimize: Iter:   0  F: -7.070060226781221  |grad|_K:  0.000e+00  t[s]:     43.87
IonicMinimize: Converged (|grad|_K<1.000000e-04).

#--- Lowdin population analysis ---
# oxidation-state Li +2.190

End date and time: Sun Jan 16 15:08:49 2022  (Duration: 0-0:00:43.88)
Done!
