2.57
--------------------------------------------------------------------------
The library attempted to open the following supporting CUDA libraries,
but each of them failed.  CUDA-aware support is disabled.
libcuda.so.1: cannot open shared object file: No such file or directory
libcuda.dylib: cannot open shared object file: No such file or directory
/usr/lib64/libcuda.so.1: cannot open shared object file: No such file or directory
/usr/lib64/libcuda.dylib: cannot open shared object file: No such file or directory
If you are not interested in CUDA-aware support, then run with
--mca opal_warn_on_missing_libcuda 0 to suppress this message.  If you are interested
in CUDA-aware support, then try setting LD_LIBRARY_PATH to the location
of libcuda.so.1 to get passed this issue.
--------------------------------------------------------------------------
--------------------------------------------------------------------------
No OpenFabrics connection schemes reported that they were able to be
used on a specific port.  As such, the openib BTL (OpenFabrics
support) will be disabled for this port.

  Local host:           d-18-1-3
  Local device:         mlx5_1
  Local port:           1
  CPCs attempted:       rdmacm, udcm
--------------------------------------------------------------------------

*************** JDFTx 1.6.0 (git hash 42ebbcc2) ***************

Start date and time: Sun Jan 16 15:08:06 2022
Executable jdftx with command-line: -i Lithium.in
Running on hosts (process indices):  d-18-1-3 (0-18)
Divided in process groups (process indices):  0 (0)  1 (1)  2 (2)  3 (3)  4 (4)  5 (5)  6 (6)  7 (7)  8 (8)  9 (9)  10 (10)  11 (11)  12 (12)  13 (13)  14 (14)  15 (15)  16 (16)  17 (17)  18 (18)
Resource initialization completed at t[s]:      0.00
Run totals: 19 processes, 48 threads, 0 GPUs


Input parsed successfully to the following command list (including defaults):

basis kpoint-dependent
coords-type Lattice
core-overlap-check vector
coulomb-interaction Slab 001
davidson-band-ratio 1.1
dump End None
dump-name $INPUT.$VAR
elec-cutoff 20
elec-eigen-algo Davidson
elec-ex-corr gga-PBE
elec-smearing Fermi 0.01
electronic-minimize  \
	dirUpdateScheme      FletcherReeves \
	linminMethod         DirUpdateRecommended \
	nIterations          100 \
	history              15 \
	knormThreshold       0 \
	energyDiffThreshold  1e-08 \
	nEnergyDiff          2 \
	alphaTstart          1 \
	alphaTmin            1e-10 \
	updateTestStepSize   yes \
	alphaTreduceFactor   0.1 \
	alphaTincreaseFactor 3 \
	nAlphaAdjustMax      3 \
	wolfeEnergy          0.0001 \
	wolfeGradient        0.9 \
	fdTest               no
electronic-scf  \
	nIterations	10000 \
	energyDiffThreshold	1e-08 \
	residualThreshold	1e-07 \
	mixFraction	0.5 \
	qMetric	0.8 \
	history	10 \
	nEigSteps	2 \
	eigDiffThreshold	1e-08 \
	mixedVariable	Density \
	qKerker	0.8 \
	qKappa	-1 \
	verbose	no \
	mixFractionMag	1.5
exchange-regularization WignerSeitzTruncated
fluid None
fluid-ex-corr (null) lda-PZ
fluid-gummel-loop 10 1.000000e-05
fluid-minimize  \
	dirUpdateScheme      PolakRibiere \
	linminMethod         DirUpdateRecommended \
	nIterations          100 \
	history              15 \
	knormThreshold       0 \
	energyDiffThreshold  0 \
	nEnergyDiff          2 \
	alphaTstart          1 \
	alphaTmin            1e-10 \
	updateTestStepSize   yes \
	alphaTreduceFactor   0.1 \
	alphaTincreaseFactor 3 \
	nAlphaAdjustMax      3 \
	wolfeEnergy          0.0001 \
	wolfeGradient        0.9 \
	fdTest               no
fluid-solvent H2O 55.338 ScalarEOS \
	epsBulk 78.4 \
	pMol 0.92466 \
	epsInf 1.77 \
	Pvap 1.06736e-10 \
	sigmaBulk 4.62e-05 \
	Rvdw 2.61727 \
	Res 1.42 \
	tauNuc 343133 \
	poleEl 15 7 1
forces-output-coords Positions
ion Li   0.000000000000000   0.000000000000000   0.000000000000000 0
ion-species SG15/$ID_ONCV_PBE.upf
ion-width 0
ionic-minimize  \
	dirUpdateScheme      L-BFGS \
	linminMethod         DirUpdateRecommended \
	nIterations          0 \
	history              15 \
	knormThreshold       0.0001 \
	energyDiffThreshold  1e-06 \
	nEnergyDiff          2 \
	alphaTstart          1 \
	alphaTmin            1e-10 \
	updateTestStepSize   yes \
	alphaTreduceFactor   0.1 \
	alphaTincreaseFactor 3 \
	nAlphaAdjustMax      3 \
	wolfeEnergy          0.0001 \
	wolfeGradient        0.9 \
	fdTest               no
kpoint   0.000000000000   0.000000000000   0.000000000000  1.00000000000000
kpoint-folding 12 12 1 
latt-move-scale 1 1 1
latt-scale 2.57 2.57 1 
lattice  \
	   4.727486978767153   -2.363743489383574    0.000000000000000  \
	  -0.000000000000000    4.094123819672498    0.000000000000000  \
	   0.000000000000000    0.000000000000000   40.000000000000000 
lattice-minimize  \
	dirUpdateScheme      L-BFGS \
	linminMethod         DirUpdateRecommended \
	nIterations          0 \
	history              15 \
	knormThreshold       0 \
	energyDiffThreshold  1e-06 \
	nEnergyDiff          2 \
	alphaTstart          1 \
	alphaTmin            1e-10 \
	updateTestStepSize   yes \
	alphaTreduceFactor   0.1 \
	alphaTincreaseFactor 3 \
	nAlphaAdjustMax      3 \
	wolfeEnergy          0.0001 \
	wolfeGradient        0.9 \
	fdTest               no
lcao-params -1 1e-06 0.01
pcm-variant GLSSA13
spintype no-spin
subspace-rotation-factor 1 yes
symmetries automatic
symmetry-threshold 0.0001



---------- Setting up symmetries ----------

Found 24 point-group symmetries of the bravais lattice
Found 24 space-group symmetries with basis
Applied RMS atom displacement 0 bohrs to make symmetries exact.

---------- Initializing the Grid ----------
R = 
[      12.1496     -6.07482            0  ]
[            0      10.5219            0  ]
[            0            0           40  ]
unit cell volume = 5113.49
G =
[    0.51715   0.298577         -0  ]
[          0   0.597153         -0  ]
[         -0         -0    0.15708  ]
Minimum fftbox size, Smin = [  52  52  164  ]
Chosen fftbox size, S = [  54  54  168  ]

---------- Exchange Correlation functional ----------
Initalized PBE GGA exchange.
Initalized PBE GGA correlation.

---------- Setting up pseudopotentials ----------
Width of ionic core gaussian charges (only for fluid interactions / plotting) set to 0

Reading pseudopotential file '/home/gridsan/aligho/DFT/build-Nov24/pseudopotentials/SG15/Li_ONCV_PBE.upf':
  'Li' pseudopotential, 'PBE' functional
  Generated using ONCVPSP code by D. R. Hamann
  Author: Martin Schlipf and Francois Gygi  Date: 150915.
  3 valence electrons, 2 orbitals, 4 projectors, 1328 radial grid points, with lMax = 1
  Transforming local potential to a uniform radial grid of dG=0.02 with 1550 points.
  Transforming nonlocal projectors to a uniform radial grid of dG=0.02 with 432 points.
    1S    l: 0   occupation:  2.0   eigenvalue: -1.905623
    2S    l: 0   occupation:  1.0   eigenvalue: -0.105624
  Transforming atomic orbitals to a uniform radial grid of dG=0.02 with 432 points.
  WARNING: large normalization error in atomic orbital 1s (integral: 0.000000).
  Core radius for overlap checks: 1.63 bohrs.
  Reading pulay file /home/gridsan/aligho/DFT/build-Nov24/pseudopotentials/SG15/Li_ONCV_PBE.pulay ... using dE_dnG = -1.230239e-02 computed for Ecut = 20.

Initialized 1 species with 1 total atoms.

Folded 1 k-points by 12x12x1 to 144 k-points.

---------- Setting up k-points, bands, fillings ----------
Reduced to 19 k-points under symmetry. 
Computing the number of bands and number of electrons
Calculating initial fillings.
nElectrons:   3.000000   nBands: 3   nStates: 19

----- Setting up reduced wavefunction bases (one per k-point) -----
average nbasis = 21847.396 , ideal nbasis = 21845.226

---------- Setting up coulomb interaction ----------
Initialized slab truncation along lattice direction 001

---------- Setting up 2D ewald sum ----------
Optimum gaussian width for ewald sums = 6.744991 bohr.
Real space sums over 289 unit cells with max indices [  8  8  0  ]
Reciprocal space sums over 81 terms with max indices [  4  4  0  ]

---------- Allocating electronic variables ----------
Initializing wave functions:  linear combination of atomic orbitals
Note: number of bands (3) exceeds available atomic orbitals (2)
Li pseudo-atom occupations:   s ( 2 1 )
	FillingsUpdate:  mu: +0.345800969  nElectrons: 3.000000
LCAOMinimize: Iter:   0  F: -1.2609387115640212  |grad|_K:  3.725e-03  alpha:  1.000e+00
LCAOMinimize: 	Step increased F by 4.327457e-03, reducing alpha to 2.167142e-01.
	FillingsUpdate:  mu: +0.345796294  nElectrons: 3.000000
LCAOMinimize: Iter:   1  F: -1.2614578542431489  |grad|_K:  3.317e-03  alpha:  2.167e-01  linmin: -1.530e-02  cgtest:  8.801e-01  t[s]:      4.32
LCAOMinimize: 	Predicted alpha/alphaT>3.000000, increasing alphaT to 6.501425e-01.
[d-18-1-3:65779] 18 more processes have sent help message help-mpi-common-cuda.txt / dlopen failed
[d-18-1-3:65779] Set MCA parameter "orte_base_help_aggregate" to 0 to see all help / error messages
[d-18-1-3:65779] 18 more processes have sent help message help-mpi-btl-openib-cpc-base.txt / no cpcs for port
LCAOMinimize: 	Predicted alpha/alphaT>3.000000, increasing alphaT to 1.950428e+00.
	FillingsUpdate:  mu: +0.345792551  nElectrons: 3.000000
LCAOMinimize: Iter:   2  F: -1.2626220233069128  |grad|_K:  1.252e-03  alpha:  7.172e-01  linmin: -1.898e-02  cgtest:  7.230e-01  t[s]:      5.99
LCAOMinimize: Encountered beta<0, resetting CG.
	FillingsUpdate:  mu: +0.345795784  nElectrons: 3.000000
LCAOMinimize: Iter:   3  F: -1.2627618438533301  |grad|_K:  1.716e-04  alpha:  1.113e+00  linmin:  2.028e-02  cgtest: -8.896e-01  t[s]:      6.91
LCAOMinimize: 	Bad step direction: g.d > 0.
LCAOMinimize: 	Undoing step.
LCAOMinimize: 	Step failed: resetting search direction.
	FillingsUpdate:  mu: +0.345795784  nElectrons: 3.000000
LCAOMinimize: Iter:   4  F: -1.2627618438533301  |grad|_K:  1.716e-04  alpha:  0.000e+00
	FillingsUpdate:  mu: +0.345795188  nElectrons: 3.000000
LCAOMinimize: Iter:   5  F: -1.2627643164724847  |grad|_K:  1.334e-06  alpha:  9.834e-01  linmin: -1.509e-02  cgtest:  6.810e-01  t[s]:      8.37
LCAOMinimize: Encountered beta<0, resetting CG.
	FillingsUpdate:  mu: +0.345795189  nElectrons: 3.000000
LCAOMinimize: Iter:   6  F: -1.2627643166321356  |grad|_K:  6.238e-08  alpha:  1.059e+00  linmin:  2.748e-02  cgtest: -7.405e-01  t[s]:      9.29
LCAOMinimize: 	Wrong curvature in test step, increasing alphaT to 3.175542e+00.
	FillingsUpdate:  mu: +0.345795189  nElectrons: 3.000000
LCAOMinimize: Iter:   7  F: -1.2627643166330202  |grad|_K:  4.792e-08  alpha: -2.631e-01  linmin:  3.584e-03  cgtest:  7.219e-01  t[s]:     10.19
LCAOMinimize: Converged (|Delta F|<1.000000e-06 for 2 iters).


---- Citations for features of the code used in this run ----

   Software package:
      R. Sundararaman, K. Letchworth-Weaver, K.A. Schwarz, D. Gunceler, Y. Ozhabes and T.A. Arias, 'JDFTx: software for joint density-functional theory', SoftwareX 6, 278 (2017)

   gga-PBE exchange-correlation functional:
      J.P. Perdew, K. Burke and M. Ernzerhof, Phys. Rev. Lett. 77, 3865 (1996)

   Pseudopotentials:
      M Schlipf and F Gygi, Comput. Phys. Commun. 196, 36 (2015)

   Truncated Coulomb potentials:
      R. Sundararaman and T.A. Arias, Phys. Rev. B 87, 165122 (2013)

This list may not be complete. Please suggest additional citations or
report any other bugs at https://github.com/shankar1729/jdftx/issues

Initialization completed successfully at t[s]:     10.24


-------- Electronic minimization -----------
Will mix electronic density at each iteration.
	FillingsUpdate:  mu: +0.345795189  nElectrons: 3.000000
	FillingsUpdate:  mu: -0.772281974  nElectrons: 3.000000
SCF: Cycle:  0   F: -6.880073102452144   dF: -5.617e+00   |Residual|: 1.212e+00   |deigs|: 4.171e+00  t[s]:     11.74
	FillingsUpdate:  mu: -0.663110827  nElectrons: 3.000000
SCF: Cycle:  1   F: -6.929331706335477   dF: -4.926e-02   |Residual|: 7.635e-01   |deigs|: 2.608e-01  t[s]:     12.89
	FillingsUpdate:  mu: -0.406177110  nElectrons: 3.000000
SCF: Cycle:  2   F: -7.052343274484435   dF: -1.230e-01   |Residual|: 3.449e-01   |deigs|: 7.331e-01  t[s]:     14.08
	FillingsUpdate:  mu: -0.449269255  nElectrons: 3.000000
SCF: Cycle:  3   F: -7.054339801909503   dF: -1.997e-03   |Residual|: 1.822e-01   |deigs|: 1.002e-01  t[s]:     15.32
	FillingsUpdate:  mu: -0.404245078  nElectrons: 3.000000
SCF: Cycle:  4   F: -7.049061327379780   dF: +5.278e-03   |Residual|: 1.365e-01   |deigs|: 3.971e-02  t[s]:     16.58
	FillingsUpdate:  mu: -0.396449141  nElectrons: 3.000000
SCF: Cycle:  5   F: -7.050601305470455   dF: -1.540e-03   |Residual|: 5.442e-02   |deigs|: 3.175e-02  t[s]:     17.83
	FillingsUpdate:  mu: -0.264631809  nElectrons: 3.000000
SCF: Cycle:  6   F: -7.057152166436246   dF: -6.551e-03   |Residual|: 2.167e-01   |deigs|: 2.467e-01  t[s]:     19.09
	FillingsUpdate:  mu: -0.294468152  nElectrons: 3.000000
SCF: Cycle:  7   F: -7.056722553998914   dF: +4.296e-04   |Residual|: 2.463e-01   |deigs|: 2.291e-01  t[s]:     20.42
	FillingsUpdate:  mu: -0.254720374  nElectrons: 3.000000
SCF: Cycle:  8   F: -7.054876391605247   dF: +1.846e-03   |Residual|: 3.248e-01   |deigs|: 3.293e-02  t[s]:     21.76
	FillingsUpdate:  mu: -0.167702180  nElectrons: 3.000000
SCF: Cycle:  9   F: -7.050456623800724   dF: +4.420e-03   |Residual|: 3.322e-01   |deigs|: 2.463e-01  t[s]:     23.14
	FillingsUpdate:  mu: -0.153848277  nElectrons: 3.000000
SCF: Cycle: 10   F: -7.057506239073439   dF: -7.050e-03   |Residual|: 8.335e-02   |deigs|: 7.174e-02  t[s]:     24.56
	FillingsUpdate:  mu: -0.152707467  nElectrons: 3.000000
SCF: Cycle: 11   F: -7.059915776934922   dF: -2.410e-03   |Residual|: 1.900e-02   |deigs|: 2.913e-03  t[s]:     25.99
	FillingsUpdate:  mu: -0.149783453  nElectrons: 3.000000
SCF: Cycle: 12   F: -7.060483995150064   dF: -5.682e-04   |Residual|: 2.660e-02   |deigs|: 7.369e-03  t[s]:     27.37
	FillingsUpdate:  mu: -0.099799442  nElectrons: 3.000000
SCF: Cycle: 13   F: -7.060457785519960   dF: +2.621e-05   |Residual|: 2.452e-02   |deigs|: 8.049e-02  t[s]:     28.75
	FillingsUpdate:  mu: -0.118160905  nElectrons: 3.000000
SCF: Cycle: 14   F: -7.060872176206352   dF: -4.144e-04   |Residual|: 7.725e-03   |deigs|: 4.082e-02  t[s]:     30.11
	FillingsUpdate:  mu: -0.109161132  nElectrons: 3.000000
SCF: Cycle: 15   F: -7.060916500201174   dF: -4.432e-05   |Residual|: 1.742e-03   |deigs|: 1.542e-02  t[s]:     31.50
	FillingsUpdate:  mu: -0.107341051  nElectrons: 3.000000
SCF: Cycle: 16   F: -7.060924311127894   dF: -7.811e-06   |Residual|: 2.125e-03   |deigs|: 3.567e-03  t[s]:     32.91
	FillingsUpdate:  mu: -0.108973933  nElectrons: 3.000000
SCF: Cycle: 17   F: -7.060940193384387   dF: -1.588e-05   |Residual|: 6.787e-04   |deigs|: 3.973e-03  t[s]:     34.36
	FillingsUpdate:  mu: -0.108646304  nElectrons: 3.000000
SCF: Cycle: 18   F: -7.060941190542964   dF: -9.972e-07   |Residual|: 2.978e-04   |deigs|: 7.925e-04  t[s]:     35.79
	FillingsUpdate:  mu: -0.108371301  nElectrons: 3.000000
SCF: Cycle: 19   F: -7.060941772545526   dF: -5.820e-07   |Residual|: 1.482e-04   |deigs|: 3.046e-04  t[s]:     37.24
	FillingsUpdate:  mu: -0.108486247  nElectrons: 3.000000
SCF: Cycle: 20   F: -7.060942155286198   dF: -3.827e-07   |Residual|: 1.144e-04   |deigs|: 2.580e-04  t[s]:     38.66
	FillingsUpdate:  mu: -0.108443563  nElectrons: 3.000000
SCF: Cycle: 21   F: -7.060942390462627   dF: -2.352e-07   |Residual|: 4.153e-05   |deigs|: 1.152e-04  t[s]:     40.00
	FillingsUpdate:  mu: -0.108517121  nElectrons: 3.000000
SCF: Cycle: 22   F: -7.060942707884233   dF: -3.174e-07   |Residual|: 2.283e-05   |deigs|: 1.923e-04  t[s]:     41.39
	FillingsUpdate:  mu: -0.108563116  nElectrons: 3.000000
SCF: Cycle: 23   F: -7.060942987765879   dF: -2.799e-07   |Residual|: 1.705e-05   |deigs|: 2.416e-04  t[s]:     42.71
	FillingsUpdate:  mu: -0.108625465  nElectrons: 3.000000
SCF: Cycle: 24   F: -7.060943045630607   dF: -5.786e-08   |Residual|: 9.166e-06   |deigs|: 7.872e-05  t[s]:     44.09
	FillingsUpdate:  mu: -0.108644231  nElectrons: 3.000000
SCF: Cycle: 25   F: -7.060943075806412   dF: -3.018e-08   |Residual|: 7.005e-06   |deigs|: 2.899e-05  t[s]:     45.43
	FillingsUpdate:  mu: -0.108646146  nElectrons: 3.000000
SCF: Cycle: 26   F: -7.060943112181709   dF: -3.638e-08   |Residual|: 3.078e-06   |deigs|: 2.271e-05  t[s]:     46.78
	FillingsUpdate:  mu: -0.108658893  nElectrons: 3.000000
SCF: Cycle: 27   F: -7.060943137718424   dF: -2.554e-08   |Residual|: 1.882e-06   |deigs|: 2.307e-05  t[s]:     48.12
	FillingsUpdate:  mu: -0.108658424  nElectrons: 3.000000
SCF: Cycle: 28   F: -7.060943151959859   dF: -1.424e-08   |Residual|: 1.043e-06   |deigs|: 1.049e-05  t[s]:     49.48
	FillingsUpdate:  mu: -0.108659832  nElectrons: 3.000000
SCF: Cycle: 29   F: -7.060943162547199   dF: -1.059e-08   |Residual|: 8.040e-07   |deigs|: 8.323e-06  t[s]:     50.81
	FillingsUpdate:  mu: -0.108660913  nElectrons: 3.000000
SCF: Cycle: 30   F: -7.060943173762962   dF: -1.122e-08   |Residual|: 2.855e-07   |deigs|: 8.752e-06  t[s]:     52.17
	FillingsUpdate:  mu: -0.108661144  nElectrons: 3.000000
SCF: Cycle: 31   F: -7.060943181346602   dF: -7.584e-09   |Residual|: 2.101e-07   |deigs|: 5.880e-06  t[s]:     53.48
	FillingsUpdate:  mu: -0.108661242  nElectrons: 3.000000
SCF: Cycle: 32   F: -7.060943187878244   dF: -6.532e-09   |Residual|: 1.330e-07   |deigs|: 5.063e-06  t[s]:     54.74
SCF: Converged (|Delta E|<1.000000e-08 for 2 iters).


# Ionic positions in lattice coordinates:
ion Li   0.000000000000000   0.000000000000000   0.000000000000000 0

# Forces in Lattice coordinates:
force Li  -0.000000000000000   0.000000000000000   0.000000000000000 0

# Energy components:
   Eewald =       -1.5605729442570395
       EH =        1.9708077377727302
     Eloc =       -7.0836361901886340
      Enl =       -3.5987183861967278
   Epulay =        0.0000052201569584
      Exc =       -1.5311784389099459
       KE =        4.7554482853229558
-------------------------------------
     Etot =       -7.0478447162997018
       TS =        0.0130984715785422
-------------------------------------
        F =       -7.0609431878782436

IonicMinimize: Iter:   0  F: -7.060943187878244  |grad|_K:  0.000e+00  t[s]:     54.83
IonicMinimize: Converged (|grad|_K<1.000000e-04).

#--- Lowdin population analysis ---
# oxidation-state Li +2.132

End date and time: Sun Jan 16 15:09:00 2022  (Duration: 0-0:00:54.83)
Done!
