3.23
--------------------------------------------------------------------------
The library attempted to open the following supporting CUDA libraries,
but each of them failed.  CUDA-aware support is disabled.
libcuda.so.1: cannot open shared object file: No such file or directory
libcuda.dylib: cannot open shared object file: No such file or directory
/usr/lib64/libcuda.so.1: cannot open shared object file: No such file or directory
/usr/lib64/libcuda.dylib: cannot open shared object file: No such file or directory
If you are not interested in CUDA-aware support, then run with
--mca opal_warn_on_missing_libcuda 0 to suppress this message.  If you are interested
in CUDA-aware support, then try setting LD_LIBRARY_PATH to the location
of libcuda.so.1 to get passed this issue.
--------------------------------------------------------------------------
--------------------------------------------------------------------------
No OpenFabrics connection schemes reported that they were able to be
used on a specific port.  As such, the openib BTL (OpenFabrics
support) will be disabled for this port.

  Local host:           d-16-8-1
  Local device:         mlx5_1
  Local port:           1
  CPCs attempted:       rdmacm, udcm
--------------------------------------------------------------------------

*************** JDFTx 1.6.0 (git hash 42ebbcc2) ***************

Start date and time: Sun Jan 16 15:09:16 2022
Executable jdftx with command-line: -i Lithium.in
Running on hosts (process indices):  d-16-8-1 (0-18)
Divided in process groups (process indices):  0 (0)  1 (1)  2 (2)  3 (3)  4 (4)  5 (5)  6 (6)  7 (7)  8 (8)  9 (9)  10 (10)  11 (11)  12 (12)  13 (13)  14 (14)  15 (15)  16 (16)  17 (17)  18 (18)
Resource initialization completed at t[s]:      0.00
Run totals: 19 processes, 48 threads, 0 GPUs


Input parsed successfully to the following command list (including defaults):

basis kpoint-dependent
coords-type Lattice
core-overlap-check vector
coulomb-interaction Slab 001
davidson-band-ratio 1.1
dump End None
dump-name $INPUT.$VAR
elec-cutoff 20
elec-eigen-algo Davidson
elec-ex-corr gga-PBE
elec-smearing Fermi 0.01
electronic-minimize  \
	dirUpdateScheme      FletcherReeves \
	linminMethod         DirUpdateRecommended \
	nIterations          100 \
	history              15 \
	knormThreshold       0 \
	energyDiffThreshold  1e-08 \
	nEnergyDiff          2 \
	alphaTstart          1 \
	alphaTmin            1e-10 \
	updateTestStepSize   yes \
	alphaTreduceFactor   0.1 \
	alphaTincreaseFactor 3 \
	nAlphaAdjustMax      3 \
	wolfeEnergy          0.0001 \
	wolfeGradient        0.9 \
	fdTest               no
electronic-scf  \
	nIterations	10000 \
	energyDiffThreshold	1e-08 \
	residualThreshold	1e-07 \
	mixFraction	0.5 \
	qMetric	0.8 \
	history	10 \
	nEigSteps	2 \
	eigDiffThreshold	1e-08 \
	mixedVariable	Density \
	qKerker	0.8 \
	qKappa	-1 \
	verbose	no \
	mixFractionMag	1.5
exchange-regularization WignerSeitzTruncated
fluid None
fluid-ex-corr (null) lda-PZ
fluid-gummel-loop 10 1.000000e-05
fluid-minimize  \
	dirUpdateScheme      PolakRibiere \
	linminMethod         DirUpdateRecommended \
	nIterations          100 \
	history              15 \
	knormThreshold       0 \
	energyDiffThreshold  0 \
	nEnergyDiff          2 \
	alphaTstart          1 \
	alphaTmin            1e-10 \
	updateTestStepSize   yes \
	alphaTreduceFactor   0.1 \
	alphaTincreaseFactor 3 \
	nAlphaAdjustMax      3 \
	wolfeEnergy          0.0001 \
	wolfeGradient        0.9 \
	fdTest               no
fluid-solvent H2O 55.338 ScalarEOS \
	epsBulk 78.4 \
	pMol 0.92466 \
	epsInf 1.77 \
	Pvap 1.06736e-10 \
	sigmaBulk 4.62e-05 \
	Rvdw 2.61727 \
	Res 1.42 \
	tauNuc 343133 \
	poleEl 15 7 1
forces-output-coords Positions
ion Li   0.000000000000000   0.000000000000000   0.000000000000000 0
ion-species SG15/$ID_ONCV_PBE.upf
ion-width 0
ionic-minimize  \
	dirUpdateScheme      L-BFGS \
	linminMethod         DirUpdateRecommended \
	nIterations          0 \
	history              15 \
	knormThreshold       0.0001 \
	energyDiffThreshold  1e-06 \
	nEnergyDiff          2 \
	alphaTstart          1 \
	alphaTmin            1e-10 \
	updateTestStepSize   yes \
	alphaTreduceFactor   0.1 \
	alphaTincreaseFactor 3 \
	nAlphaAdjustMax      3 \
	wolfeEnergy          0.0001 \
	wolfeGradient        0.9 \
	fdTest               no
kpoint   0.000000000000   0.000000000000   0.000000000000  1.00000000000000
kpoint-folding 12 12 1 
latt-move-scale 1 1 1
latt-scale 3.23 3.23 1 
lattice  \
	   4.727486978767153   -2.363743489383575    0.000000000000000  \
	  -0.000000000000000    4.094123819672498    0.000000000000000  \
	   0.000000000000000    0.000000000000000   40.000000000000000 
lattice-minimize  \
	dirUpdateScheme      L-BFGS \
	linminMethod         DirUpdateRecommended \
	nIterations          0 \
	history              15 \
	knormThreshold       0 \
	energyDiffThreshold  1e-06 \
	nEnergyDiff          2 \
	alphaTstart          1 \
	alphaTmin            1e-10 \
	updateTestStepSize   yes \
	alphaTreduceFactor   0.1 \
	alphaTincreaseFactor 3 \
	nAlphaAdjustMax      3 \
	wolfeEnergy          0.0001 \
	wolfeGradient        0.9 \
	fdTest               no
lcao-params -1 1e-06 0.01
pcm-variant GLSSA13
spintype no-spin
subspace-rotation-factor 1 yes
symmetries automatic
symmetry-threshold 0.0001



---------- Setting up symmetries ----------

Found 24 point-group symmetries of the bravais lattice
Found 24 space-group symmetries with basis
Applied RMS atom displacement 0 bohrs to make symmetries exact.

---------- Initializing the Grid ----------
R = 
[      15.2698     -7.63489            0  ]
[            0       13.224            0  ]
[            0            0           40  ]
unit cell volume = 8077.12
G =
[   0.411478   0.237567         -0  ]
[          0   0.475134         -0  ]
[         -0         -0    0.15708  ]
Minimum fftbox size, Smin = [  64  64  164  ]
Chosen fftbox size, S = [  64  64  168  ]

---------- Exchange Correlation functional ----------
Initalized PBE GGA exchange.
Initalized PBE GGA correlation.

---------- Setting up pseudopotentials ----------
Width of ionic core gaussian charges (only for fluid interactions / plotting) set to 0

Reading pseudopotential file '/home/gridsan/aligho/DFT/build-Nov24/pseudopotentials/SG15/Li_ONCV_PBE.upf':
  'Li' pseudopotential, 'PBE' functional
  Generated using ONCVPSP code by D. R. Hamann
  Author: Martin Schlipf and Francois Gygi  Date: 150915.
  3 valence electrons, 2 orbitals, 4 projectors, 1328 radial grid points, with lMax = 1
  Transforming local potential to a uniform radial grid of dG=0.02 with 1478 points.
  Transforming nonlocal projectors to a uniform radial grid of dG=0.02 with 432 points.
    1S    l: 0   occupation:  2.0   eigenvalue: -1.905623
    2S    l: 0   occupation:  1.0   eigenvalue: -0.105624
  Transforming atomic orbitals to a uniform radial grid of dG=0.02 with 432 points.
  WARNING: large normalization error in atomic orbital 1s (integral: 0.000000).
  Core radius for overlap checks: 1.63 bohrs.
  Reading pulay file /home/gridsan/aligho/DFT/build-Nov24/pseudopotentials/SG15/Li_ONCV_PBE.pulay ... using dE_dnG = -1.230239e-02 computed for Ecut = 20.

Initialized 1 species with 1 total atoms.

Folded 1 k-points by 12x12x1 to 144 k-points.

---------- Setting up k-points, bands, fillings ----------
Reduced to 19 k-points under symmetry. 
Computing the number of bands and number of electrons
Calculating initial fillings.
nElectrons:   3.000000   nBands: 3   nStates: 19

----- Setting up reduced wavefunction bases (one per k-point) -----
average nbasis = 34505.104 , ideal nbasis = 34506.057

---------- Setting up coulomb interaction ----------
Initialized slab truncation along lattice direction 001

---------- Setting up 2D ewald sum ----------
Optimum gaussian width for ewald sums = 8.477167 bohr.
Real space sums over 289 unit cells with max indices [  8  8  0  ]
Reciprocal space sums over 81 terms with max indices [  4  4  0  ]

---------- Allocating electronic variables ----------
Initializing wave functions:  linear combination of atomic orbitals
Note: number of bands (3) exceeds available atomic orbitals (2)
Li pseudo-atom occupations:   s ( 2 1 )
	FillingsUpdate:  mu: +0.361456023  nElectrons: 3.000000
LCAOMinimize: Iter:   0  F: -1.2934371436810399  |grad|_K:  2.664e-03  alpha:  1.000e+00
[d-16-8-1:02409] 18 more processes have sent help message help-mpi-common-cuda.txt / dlopen failed
[d-16-8-1:02409] Set MCA parameter "orte_base_help_aggregate" to 0 to see all help / error messages
[d-16-8-1:02409] 18 more processes have sent help message help-mpi-btl-openib-cpc-base.txt / no cpcs for port
	FillingsUpdate:  mu: +0.361455368  nElectrons: 3.000000
LCAOMinimize: Iter:   1  F: -1.2936412422286738  |grad|_K:  2.825e-03  alpha:  1.543e+00  linmin:  1.730e-02  cgtest: -5.072e-01  t[s]:      5.80
LCAOMinimize: 	Bad step direction: g.d > 0.
LCAOMinimize: 	Undoing step.
LCAOMinimize: 	Step failed: resetting search direction.
	FillingsUpdate:  mu: +0.361455368  nElectrons: 3.000000
LCAOMinimize: Iter:   2  F: -1.2936412422286738  |grad|_K:  2.825e-03  alpha:  0.000e+00
	FillingsUpdate:  mu: +0.361451967  nElectrons: 3.000000
LCAOMinimize: Iter:   3  F: -1.2942575701995600  |grad|_K:  5.410e-05  alpha:  1.014e+00  linmin:  1.432e-02  cgtest: -1.096e+00  t[s]:      7.58
	FillingsUpdate:  mu: +0.361452133  nElectrons: 3.000000
LCAOMinimize: Iter:   4  F: -1.2942576171660745  |grad|_K:  4.893e-05  alpha:  8.583e-01  linmin:  1.836e-06  cgtest:  9.064e-01  t[s]:      8.72
LCAOMinimize: Encountered beta<0, resetting CG.
	FillingsUpdate:  mu: +0.361452199  nElectrons: 3.000000
LCAOMinimize: Iter:   5  F: -1.2942578215279301  |grad|_K:  3.830e-07  alpha:  9.994e-01  linmin:  1.377e-02  cgtest: -6.697e-01  t[s]:      9.84
LCAOMinimize: Converged (|Delta F|<1.000000e-06 for 2 iters).


---- Citations for features of the code used in this run ----

   Software package:
      R. Sundararaman, K. Letchworth-Weaver, K.A. Schwarz, D. Gunceler, Y. Ozhabes and T.A. Arias, 'JDFTx: software for joint density-functional theory', SoftwareX 6, 278 (2017)

   gga-PBE exchange-correlation functional:
      J.P. Perdew, K. Burke and M. Ernzerhof, Phys. Rev. Lett. 77, 3865 (1996)

   Pseudopotentials:
      M Schlipf and F Gygi, Comput. Phys. Commun. 196, 36 (2015)

   Truncated Coulomb potentials:
      R. Sundararaman and T.A. Arias, Phys. Rev. B 87, 165122 (2013)

This list may not be complete. Please suggest additional citations or
report any other bugs at https://github.com/shankar1729/jdftx/issues

Initialization completed successfully at t[s]:      9.89


-------- Electronic minimization -----------
Will mix electronic density at each iteration.
	FillingsUpdate:  mu: +0.361452199  nElectrons: 3.000000
	FillingsUpdate:  mu: -0.667075079  nElectrons: 3.000000
SCF: Cycle:  0   F: -6.884886841974170   dF: -5.591e+00   |Residual|: 1.228e+00   |deigs|: 4.154e+00  t[s]:     11.72
	FillingsUpdate:  mu: -0.557432688  nElectrons: 3.000000
SCF: Cycle:  1   F: -6.929071163953328   dF: -4.418e-02   |Residual|: 7.592e-01   |deigs|: 2.667e-01  t[s]:     13.16
	FillingsUpdate:  mu: -0.297545453  nElectrons: 3.000000
SCF: Cycle:  2   F: -7.054332854949918   dF: -1.253e-01   |Residual|: 3.136e-01   |deigs|: 7.117e-01  t[s]:     14.61
	FillingsUpdate:  mu: -0.341581400  nElectrons: 3.000000
SCF: Cycle:  3   F: -7.052146440155271   dF: +2.186e-03   |Residual|: 1.709e-01   |deigs|: 8.820e-02  t[s]:     16.13
	FillingsUpdate:  mu: -0.295243733  nElectrons: 3.000000
SCF: Cycle:  4   F: -7.047990926369655   dF: +4.156e-03   |Residual|: 1.404e-01   |deigs|: 3.855e-02  t[s]:     17.67
	FillingsUpdate:  mu: -0.290719775  nElectrons: 3.000000
SCF: Cycle:  5   F: -7.049875634034799   dF: -1.885e-03   |Residual|: 3.423e-02   |deigs|: 3.524e-02  t[s]:     19.22
	FillingsUpdate:  mu: -0.200664540  nElectrons: 3.000000
SCF: Cycle:  6   F: -7.055997888590546   dF: -6.122e-03   |Residual|: 1.526e-01   |deigs|: 1.824e-01  t[s]:     20.86
	FillingsUpdate:  mu: -0.262703462  nElectrons: 3.000000
SCF: Cycle:  7   F: -7.054907359587338   dF: +1.091e-03   |Residual|: 1.812e-01   |deigs|: 2.179e-01  t[s]:     22.49
	FillingsUpdate:  mu: -0.216247730  nElectrons: 3.000000
SCF: Cycle:  8   F: -7.052584118712750   dF: +2.323e-03   |Residual|: 3.329e-01   |deigs|: 3.950e-02  t[s]:     24.15
	FillingsUpdate:  mu: -0.184818354  nElectrons: 3.000000
SCF: Cycle:  9   F: -7.057633224509542   dF: -5.049e-03   |Residual|: 7.579e-02   |deigs|: 1.439e-01  t[s]:     25.89
	FillingsUpdate:  mu: -0.138631943  nElectrons: 3.000000
SCF: Cycle: 10   F: -7.054416406291787   dF: +3.217e-03   |Residual|: 2.310e-01   |deigs|: 9.468e-02  t[s]:     27.68
	FillingsUpdate:  mu: -0.133721415  nElectrons: 3.000000
SCF: Cycle: 11   F: -7.057195298344580   dF: -2.779e-03   |Residual|: 6.791e-02   |deigs|: 7.915e-02  t[s]:     29.42
	FillingsUpdate:  mu: -0.103516929  nElectrons: 3.000000
SCF: Cycle: 12   F: -7.057827843029117   dF: -6.325e-04   |Residual|: 5.847e-02   |deigs|: 7.741e-02  t[s]:     31.21
	FillingsUpdate:  mu: -0.111401054  nElectrons: 3.000000
SCF: Cycle: 13   F: -7.057979854269347   dF: -1.520e-04   |Residual|: 8.075e-03   |deigs|: 3.674e-02  t[s]:     32.95
	FillingsUpdate:  mu: -0.113393817  nElectrons: 3.000000
SCF: Cycle: 14   F: -7.058305031553782   dF: -3.252e-04   |Residual|: 8.661e-03   |deigs|: 1.222e-02  t[s]:     34.73
	FillingsUpdate:  mu: -0.107680273  nElectrons: 3.000000
SCF: Cycle: 15   F: -7.058336733402895   dF: -3.170e-05   |Residual|: 2.481e-03   |deigs|: 1.259e-02  t[s]:     36.45
	FillingsUpdate:  mu: -0.103133218  nElectrons: 3.000000
SCF: Cycle: 16   F: -7.058371862779282   dF: -3.513e-05   |Residual|: 6.853e-03   |deigs|: 9.630e-03  t[s]:     38.16
	FillingsUpdate:  mu: -0.104607140  nElectrons: 3.000000
SCF: Cycle: 17   F: -7.058407269712858   dF: -3.541e-05   |Residual|: 1.768e-03   |deigs|: 4.052e-03  t[s]:     39.91
	FillingsUpdate:  mu: -0.105558092  nElectrons: 3.000000
SCF: Cycle: 18   F: -7.058413436798365   dF: -6.167e-06   |Residual|: 4.653e-04   |deigs|: 2.196e-03  t[s]:     41.67
	FillingsUpdate:  mu: -0.105858565  nElectrons: 3.000000
SCF: Cycle: 19   F: -7.058417463113753   dF: -4.026e-06   |Residual|: 2.124e-04   |deigs|: 3.283e-04  t[s]:     43.39
	FillingsUpdate:  mu: -0.106249756  nElectrons: 3.000000
SCF: Cycle: 20   F: -7.058418077571735   dF: -6.145e-07   |Residual|: 1.265e-04   |deigs|: 5.770e-04  t[s]:     45.13
	FillingsUpdate:  mu: -0.106247204  nElectrons: 3.000000
SCF: Cycle: 21   F: -7.058418390088804   dF: -3.125e-07   |Residual|: 7.863e-05   |deigs|: 1.116e-04  t[s]:     46.82
	FillingsUpdate:  mu: -0.106259519  nElectrons: 3.000000
SCF: Cycle: 22   F: -7.058418610663784   dF: -2.206e-07   |Residual|: 6.208e-05   |deigs|: 9.857e-05  t[s]:     48.54
	FillingsUpdate:  mu: -0.106173112  nElectrons: 3.000000
SCF: Cycle: 23   F: -7.058418743339970   dF: -1.327e-07   |Residual|: 3.816e-05   |deigs|: 1.030e-04  t[s]:     50.29
	FillingsUpdate:  mu: -0.106151426  nElectrons: 3.000000
SCF: Cycle: 24   F: -7.058418856515444   dF: -1.132e-07   |Residual|: 2.305e-05   |deigs|: 5.577e-05  t[s]:     52.02
	FillingsUpdate:  mu: -0.106131974  nElectrons: 3.000000
SCF: Cycle: 25   F: -7.058418935191888   dF: -7.868e-08   |Residual|: 2.464e-05   |deigs|: 3.723e-05  t[s]:     53.73
	FillingsUpdate:  mu: -0.106109074  nElectrons: 3.000000
SCF: Cycle: 26   F: -7.058419085012288   dF: -1.498e-07   |Residual|: 1.099e-05   |deigs|: 7.793e-05  t[s]:     55.40
	FillingsUpdate:  mu: -0.106102490  nElectrons: 3.000000
SCF: Cycle: 27   F: -7.058419180140825   dF: -9.513e-08   |Residual|: 5.052e-06   |deigs|: 4.702e-05  t[s]:     57.08
	FillingsUpdate:  mu: -0.106100109  nElectrons: 3.000000
SCF: Cycle: 28   F: -7.058419222188885   dF: -4.205e-08   |Residual|: 2.246e-06   |deigs|: 1.974e-05  t[s]:     58.73
	FillingsUpdate:  mu: -0.106102622  nElectrons: 3.000000
SCF: Cycle: 29   F: -7.058419250586226   dF: -2.840e-08   |Residual|: 1.439e-06   |deigs|: 1.422e-05  t[s]:     60.42
	FillingsUpdate:  mu: -0.106102029  nElectrons: 3.000000
SCF: Cycle: 30   F: -7.058419267762842   dF: -1.718e-08   |Residual|: 6.593e-07   |deigs|: 7.455e-06  t[s]:     62.10
	FillingsUpdate:  mu: -0.106102235  nElectrons: 3.000000
SCF: Cycle: 31   F: -7.058419280438410   dF: -1.268e-08   |Residual|: 3.727e-07   |deigs|: 5.721e-06  t[s]:     63.78
	FillingsUpdate:  mu: -0.106102438  nElectrons: 3.000000
SCF: Cycle: 32   F: -7.058419288467534   dF: -8.029e-09   |Residual|: 2.506e-07   |deigs|: 3.635e-06  t[s]:     65.38
	FillingsUpdate:  mu: -0.106102374  nElectrons: 3.000000
SCF: Cycle: 33   F: -7.058419294640987   dF: -6.173e-09   |Residual|: 1.738e-07   |deigs|: 2.651e-06  t[s]:     67.01
SCF: Converged (|Delta E|<1.000000e-08 for 2 iters).


# Ionic positions in lattice coordinates:
ion Li   0.000000000000000   0.000000000000000   0.000000000000000 0

# Forces in Lattice coordinates:
force Li   0.000000000000000  -0.000000000000000   0.000000000000000 0

# Energy components:
   Eewald =       -1.2416942621487910
       EH =        2.3059386813877003
     Eloc =       -7.7441012645657992
      Enl =       -3.6027997684138793
   Epulay =       -0.0000014520198434
      Exc =       -1.5340568328933668
       KE =        4.7724669846598555
-------------------------------------
     Etot =       -7.0442479139941234
       TS =        0.0141713806468637
-------------------------------------
        F =       -7.0584192946409869

IonicMinimize: Iter:   0  F: -7.058419294640987  |grad|_K:  0.000e+00  t[s]:     67.12
IonicMinimize: Converged (|grad|_K<1.000000e-04).

#--- Lowdin population analysis ---
# oxidation-state Li +2.089

End date and time: Sun Jan 16 15:10:23 2022  (Duration: 0-0:01:07.13)
Done!
