2.42
--------------------------------------------------------------------------
The library attempted to open the following supporting CUDA libraries,
but each of them failed.  CUDA-aware support is disabled.
libcuda.so.1: cannot open shared object file: No such file or directory
libcuda.dylib: cannot open shared object file: No such file or directory
/usr/lib64/libcuda.so.1: cannot open shared object file: No such file or directory
/usr/lib64/libcuda.dylib: cannot open shared object file: No such file or directory
If you are not interested in CUDA-aware support, then run with
--mca opal_warn_on_missing_libcuda 0 to suppress this message.  If you are interested
in CUDA-aware support, then try setting LD_LIBRARY_PATH to the location
of libcuda.so.1 to get passed this issue.
--------------------------------------------------------------------------
--------------------------------------------------------------------------
No OpenFabrics connection schemes reported that they were able to be
used on a specific port.  As such, the openib BTL (OpenFabrics
support) will be disabled for this port.

  Local host:           d-16-7-2
  Local device:         mlx5_1
  Local port:           1
  CPCs attempted:       rdmacm, udcm
--------------------------------------------------------------------------

*************** JDFTx 1.6.0 (git hash 42ebbcc2) ***************

Start date and time: Sun Jan 16 15:08:05 2022
Executable jdftx with command-line: -i Lithium.in
Running on hosts (process indices):  d-16-7-2 (0-18)
Divided in process groups (process indices):  0 (0)  1 (1)  2 (2)  3 (3)  4 (4)  5 (5)  6 (6)  7 (7)  8 (8)  9 (9)  10 (10)  11 (11)  12 (12)  13 (13)  14 (14)  15 (15)  16 (16)  17 (17)  18 (18)
Resource initialization completed at t[s]:      0.00
Run totals: 19 processes, 48 threads, 0 GPUs


Input parsed successfully to the following command list (including defaults):

basis kpoint-dependent
coords-type Lattice
core-overlap-check vector
coulomb-interaction Slab 001
davidson-band-ratio 1.1
dump End None
dump-name $INPUT.$VAR
elec-cutoff 20
elec-eigen-algo Davidson
elec-ex-corr gga-PBE
elec-smearing Fermi 0.01
electronic-minimize  \
	dirUpdateScheme      FletcherReeves \
	linminMethod         DirUpdateRecommended \
	nIterations          100 \
	history              15 \
	knormThreshold       0 \
	energyDiffThreshold  1e-08 \
	nEnergyDiff          2 \
	alphaTstart          1 \
	alphaTmin            1e-10 \
	updateTestStepSize   yes \
	alphaTreduceFactor   0.1 \
	alphaTincreaseFactor 3 \
	nAlphaAdjustMax      3 \
	wolfeEnergy          0.0001 \
	wolfeGradient        0.9 \
	fdTest               no
electronic-scf  \
	nIterations	10000 \
	energyDiffThreshold	1e-08 \
	residualThreshold	1e-07 \
	mixFraction	0.5 \
	qMetric	0.8 \
	history	10 \
	nEigSteps	2 \
	eigDiffThreshold	1e-08 \
	mixedVariable	Density \
	qKerker	0.8 \
	qKappa	-1 \
	verbose	no \
	mixFractionMag	1.5
exchange-regularization WignerSeitzTruncated
fluid None
fluid-ex-corr (null) lda-PZ
fluid-gummel-loop 10 1.000000e-05
fluid-minimize  \
	dirUpdateScheme      PolakRibiere \
	linminMethod         DirUpdateRecommended \
	nIterations          100 \
	history              15 \
	knormThreshold       0 \
	energyDiffThreshold  0 \
	nEnergyDiff          2 \
	alphaTstart          1 \
	alphaTmin            1e-10 \
	updateTestStepSize   yes \
	alphaTreduceFactor   0.1 \
	alphaTincreaseFactor 3 \
	nAlphaAdjustMax      3 \
	wolfeEnergy          0.0001 \
	wolfeGradient        0.9 \
	fdTest               no
fluid-solvent H2O 55.338 ScalarEOS \
	epsBulk 78.4 \
	pMol 0.92466 \
	epsInf 1.77 \
	Pvap 1.06736e-10 \
	sigmaBulk 4.62e-05 \
	Rvdw 2.61727 \
	Res 1.42 \
	tauNuc 343133 \
	poleEl 15 7 1
forces-output-coords Positions
ion Li   0.000000000000000   0.000000000000000   0.000000000000000 0
ion-species SG15/$ID_ONCV_PBE.upf
ion-width 0
ionic-minimize  \
	dirUpdateScheme      L-BFGS \
	linminMethod         DirUpdateRecommended \
	nIterations          0 \
	history              15 \
	knormThreshold       0.0001 \
	energyDiffThreshold  1e-06 \
	nEnergyDiff          2 \
	alphaTstart          1 \
	alphaTmin            1e-10 \
	updateTestStepSize   yes \
	alphaTreduceFactor   0.1 \
	alphaTincreaseFactor 3 \
	nAlphaAdjustMax      3 \
	wolfeEnergy          0.0001 \
	wolfeGradient        0.9 \
	fdTest               no
kpoint   0.000000000000   0.000000000000   0.000000000000  1.00000000000000
kpoint-folding 12 12 1 
latt-move-scale 1 1 1
latt-scale 2.42 2.42 1 
lattice  \
	   4.727486978767153   -2.363743489383575    0.000000000000000  \
	  -0.000000000000000    4.094123819672498    0.000000000000000  \
	   0.000000000000000    0.000000000000000   40.000000000000000 
lattice-minimize  \
	dirUpdateScheme      L-BFGS \
	linminMethod         DirUpdateRecommended \
	nIterations          0 \
	history              15 \
	knormThreshold       0 \
	energyDiffThreshold  1e-06 \
	nEnergyDiff          2 \
	alphaTstart          1 \
	alphaTmin            1e-10 \
	updateTestStepSize   yes \
	alphaTreduceFactor   0.1 \
	alphaTincreaseFactor 3 \
	nAlphaAdjustMax      3 \
	wolfeEnergy          0.0001 \
	wolfeGradient        0.9 \
	fdTest               no
lcao-params -1 1e-06 0.01
pcm-variant GLSSA13
spintype no-spin
subspace-rotation-factor 1 yes
symmetries automatic
symmetry-threshold 0.0001



---------- Setting up symmetries ----------

Found 24 point-group symmetries of the bravais lattice
Found 24 space-group symmetries with basis
Applied RMS atom displacement 0 bohrs to make symmetries exact.

---------- Initializing the Grid ----------
R = 
[      11.4405     -5.72026            0  ]
[            0      9.90778            0  ]
[            0            0           40  ]
unit cell volume = 4534.01
G =
[   0.549205   0.317083         -0  ]
[          0   0.634167         -0  ]
[         -0         -0    0.15708  ]
Minimum fftbox size, Smin = [  48  48  164  ]
Chosen fftbox size, S = [  48  48  168  ]

---------- Exchange Correlation functional ----------
Initalized PBE GGA exchange.
Initalized PBE GGA correlation.

---------- Setting up pseudopotentials ----------
Width of ionic core gaussian charges (only for fluid interactions / plotting) set to 0

Reading pseudopotential file '/home/gridsan/aligho/DFT/build-Nov24/pseudopotentials/SG15/Li_ONCV_PBE.upf':
  'Li' pseudopotential, 'PBE' functional
  Generated using ONCVPSP code by D. R. Hamann
  Author: Martin Schlipf and Francois Gygi  Date: 150915.
  3 valence electrons, 2 orbitals, 4 projectors, 1328 radial grid points, with lMax = 1
  Transforming local potential to a uniform radial grid of dG=0.02 with 1479 points.
  Transforming nonlocal projectors to a uniform radial grid of dG=0.02 with 432 points.
    1S    l: 0   occupation:  2.0   eigenvalue: -1.905623
    2S    l: 0   occupation:  1.0   eigenvalue: -0.105624
  Transforming atomic orbitals to a uniform radial grid of dG=0.02 with 432 points.
  WARNING: large normalization error in atomic orbital 1s (integral: 0.000000).
  Core radius for overlap checks: 1.63 bohrs.
  Reading pulay file /home/gridsan/aligho/DFT/build-Nov24/pseudopotentials/SG15/Li_ONCV_PBE.pulay ... using dE_dnG = -1.230239e-02 computed for Ecut = 20.

Initialized 1 species with 1 total atoms.

Folded 1 k-points by 12x12x1 to 144 k-points.

---------- Setting up k-points, bands, fillings ----------
Reduced to 19 k-points under symmetry. 
Computing the number of bands and number of electrons
Calculating initial fillings.
nElectrons:   3.000000   nBands: 3   nStates: 19

----- Setting up reduced wavefunction bases (one per k-point) -----
average nbasis = 19370.396 , ideal nbasis = 19369.617

---------- Setting up coulomb interaction ----------
Initialized slab truncation along lattice direction 001

---------- Setting up 2D ewald sum ----------
Optimum gaussian width for ewald sums = 6.351314 bohr.
Real space sums over 289 unit cells with max indices [  8  8  0  ]
Reciprocal space sums over 81 terms with max indices [  4  4  0  ]

---------- Allocating electronic variables ----------
Initializing wave functions:  linear combination of atomic orbitals
Note: number of bands (3) exceeds available atomic orbitals (2)
Li pseudo-atom occupations:   s ( 2 1 )
	FillingsUpdate:  mu: +0.334079371  nElectrons: 3.000000
LCAOMinimize: Iter:   0  F: -1.2491551231221607  |grad|_K:  3.769e-03  alpha:  1.000e+00
LCAOMinimize: 	Step increased F by 2.453156e-02, reducing alpha to 2.669765e-01.
	FillingsUpdate:  mu: +0.334069221  nElectrons: 3.000000
LCAOMinimize: Iter:   1  F: -1.2498211984825478  |grad|_K:  3.294e-03  alpha:  2.670e-01  linmin: -1.490e-02  cgtest:  8.395e-01  t[s]:      3.59
LCAOMinimize: 	Predicted alpha/alphaT>3.000000, increasing alphaT to 8.009296e-01.
LCAOMinimize: 	Step increased F by 5.502770e-03, reducing alpha to 2.107678e-01.
[d-16-7-2:25364] 18 more processes have sent help message help-mpi-common-cuda.txt / dlopen failed
[d-16-7-2:25364] Set MCA parameter "orte_base_help_aggregate" to 0 to see all help / error messages
[d-16-7-2:25364] 18 more processes have sent help message help-mpi-btl-openib-cpc-base.txt / no cpcs for port
	FillingsUpdate:  mu: +0.334061697  nElectrons: 3.000000
LCAOMinimize: Iter:   2  F: -1.2502241019087446  |grad|_K:  2.864e-03  alpha:  2.108e-01  linmin: -1.592e-02  cgtest:  8.977e-01  t[s]:      5.10
LCAOMinimize: Encountered beta<0, resetting CG.
LCAOMinimize: 	Predicted alpha/alphaT>3.000000, increasing alphaT to 6.323035e-01.
LCAOMinimize: 	Predicted alpha/alphaT>3.000000, increasing alphaT to 1.896910e+00.
	FillingsUpdate:  mu: +0.334035529  nElectrons: 3.000000
LCAOMinimize: Iter:   3  F: -1.2510249791463870  |grad|_K:  1.077e-03  alpha:  7.056e-01  linmin: -1.961e-02  cgtest:  7.750e-01  t[s]:      6.49
LCAOMinimize: Encountered beta<0, resetting CG.
	FillingsUpdate:  mu: +0.334018271  nElectrons: 3.000000
LCAOMinimize: Iter:   4  F: -1.2511282364334035  |grad|_K:  1.465e-04  alpha:  1.110e+00  linmin:  2.177e-02  cgtest: -8.849e-01  t[s]:      7.23
LCAOMinimize: 	Bad step direction: g.d > 0.
LCAOMinimize: 	Undoing step.
LCAOMinimize: 	Step failed: resetting search direction.
	FillingsUpdate:  mu: +0.334018271  nElectrons: 3.000000
LCAOMinimize: Iter:   5  F: -1.2511282364334035  |grad|_K:  1.465e-04  alpha:  0.000e+00
	FillingsUpdate:  mu: +0.334020165  nElectrons: 3.000000
LCAOMinimize: Iter:   6  F: -1.2511300323285450  |grad|_K:  1.217e-06  alpha:  9.803e-01  linmin: -1.809e-02  cgtest:  7.564e-01  t[s]:      8.46
LCAOMinimize: Encountered beta<0, resetting CG.
	FillingsUpdate:  mu: +0.334020185  nElectrons: 3.000000
LCAOMinimize: Iter:   7  F: -1.2511300324562438  |grad|_K:  6.349e-08  alpha:  9.707e-01  linmin: -6.459e-02  cgtest:  8.260e-01  t[s]:      9.22
LCAOMinimize: Encountered beta<0, resetting CG.
	FillingsUpdate:  mu: +0.334020186  nElectrons: 3.000000
LCAOMinimize: Iter:   8  F: -1.2511300324564534  |grad|_K:  2.557e-08  alpha:  6.270e-01  linmin: -1.992e-01  cgtest:  9.995e-01  t[s]:      9.98
LCAOMinimize: Encountered beta<0, resetting CG.
LCAOMinimize: Converged (|Delta F|<1.000000e-06 for 2 iters).


---- Citations for features of the code used in this run ----

   Software package:
      R. Sundararaman, K. Letchworth-Weaver, K.A. Schwarz, D. Gunceler, Y. Ozhabes and T.A. Arias, 'JDFTx: software for joint density-functional theory', SoftwareX 6, 278 (2017)

   gga-PBE exchange-correlation functional:
      J.P. Perdew, K. Burke and M. Ernzerhof, Phys. Rev. Lett. 77, 3865 (1996)

   Pseudopotentials:
      M Schlipf and F Gygi, Comput. Phys. Commun. 196, 36 (2015)

   Truncated Coulomb potentials:
      R. Sundararaman and T.A. Arias, Phys. Rev. B 87, 165122 (2013)

This list may not be complete. Please suggest additional citations or
report any other bugs at https://github.com/shankar1729/jdftx/issues

Initialization completed successfully at t[s]:     10.04


-------- Electronic minimization -----------
Will mix electronic density at each iteration.
	FillingsUpdate:  mu: +0.334020186  nElectrons: 3.000000
	FillingsUpdate:  mu: -0.801436883  nElectrons: 3.000000
SCF: Cycle:  0   F: -6.879821022139572   dF: -5.629e+00   |Residual|: 1.206e+00   |deigs|: 4.157e+00  t[s]:     11.32
	FillingsUpdate:  mu: -0.695305423  nElectrons: 3.000000
SCF: Cycle:  1   F: -6.930881844247733   dF: -5.106e-02   |Residual|: 7.657e-01   |deigs|: 2.560e-01  t[s]:     12.25
	FillingsUpdate:  mu: -0.440411709  nElectrons: 3.000000
SCF: Cycle:  2   F: -7.052386836467437   dF: -1.215e-01   |Residual|: 3.560e-01   |deigs|: 7.408e-01  t[s]:     13.25
	FillingsUpdate:  mu: -0.483435020  nElectrons: 3.000000
SCF: Cycle:  3   F: -7.055862875503332   dF: -3.476e-03   |Residual|: 1.816e-01   |deigs|: 1.077e-01  t[s]:     14.27
	FillingsUpdate:  mu: -0.438709157  nElectrons: 3.000000
SCF: Cycle:  4   F: -7.050383832534359   dF: +5.479e-03   |Residual|: 1.331e-01   |deigs|: 3.979e-02  t[s]:     15.25
	FillingsUpdate:  mu: -0.428842704  nElectrons: 3.000000
SCF: Cycle:  5   F: -7.051813109746241   dF: -1.429e-03   |Residual|: 5.992e-02   |deigs|: 3.098e-02  t[s]:     16.27
	FillingsUpdate:  mu: -0.284083129  nElectrons: 3.000000
SCF: Cycle:  6   F: -7.058604445715652   dF: -6.791e-03   |Residual|: 2.201e-01   |deigs|: 2.601e-01  t[s]:     17.31
	FillingsUpdate:  mu: -0.311124601  nElectrons: 3.000000
SCF: Cycle:  7   F: -7.057562828177771   dF: +1.042e-03   |Residual|: 2.944e-01   |deigs|: 2.500e-01  t[s]:     18.37
	FillingsUpdate:  mu: -0.267084565  nElectrons: 3.000000
SCF: Cycle:  8   F: -7.057010546491490   dF: +5.523e-04   |Residual|: 3.276e-01   |deigs|: 4.114e-02  t[s]:     19.50
	FillingsUpdate:  mu: -0.177312882  nElectrons: 3.000000
SCF: Cycle:  9   F: -7.055455160750675   dF: +1.555e-03   |Residual|: 2.619e-01   |deigs|: 2.248e-01  t[s]:     20.60
	FillingsUpdate:  mu: -0.175859920  nElectrons: 3.000000
SCF: Cycle: 10   F: -7.060322216421262   dF: -4.867e-03   |Residual|: 2.558e-02   |deigs|: 6.447e-02  t[s]:     21.73
	FillingsUpdate:  mu: -0.143201407  nElectrons: 3.000000
SCF: Cycle: 11   F: -7.061029690150602   dF: -7.075e-04   |Residual|: 2.127e-02   |deigs|: 5.374e-02  t[s]:     22.85
	FillingsUpdate:  mu: -0.125184347  nElectrons: 3.000000
SCF: Cycle: 12   F: -7.062271628365691   dF: -1.242e-03   |Residual|: 8.091e-02   |deigs|: 3.230e-02  t[s]:     23.97
	FillingsUpdate:  mu: -0.094663731  nElectrons: 3.000000
SCF: Cycle: 13   F: -7.062146949130994   dF: +1.247e-04   |Residual|: 2.371e-02   |deigs|: 3.247e-02  t[s]:     25.08
	FillingsUpdate:  mu: -0.108005730  nElectrons: 3.000000
SCF: Cycle: 14   F: -7.062690211296452   dF: -5.433e-04   |Residual|: 4.603e-03   |deigs|: 2.580e-02  t[s]:     26.22
	FillingsUpdate:  mu: -0.110407039  nElectrons: 3.000000
SCF: Cycle: 15   F: -7.062730372348899   dF: -4.016e-05   |Residual|: 1.625e-03   |deigs|: 4.718e-03  t[s]:     27.32
	FillingsUpdate:  mu: -0.110269935  nElectrons: 3.000000
SCF: Cycle: 16   F: -7.062750783092767   dF: -2.041e-05   |Residual|: 7.507e-04   |deigs|: 4.711e-04  t[s]:     28.45
	FillingsUpdate:  mu: -0.109461700  nElectrons: 3.000000
SCF: Cycle: 17   F: -7.062753145671923   dF: -2.363e-06   |Residual|: 3.866e-04   |deigs|: 1.207e-03  t[s]:     29.54
	FillingsUpdate:  mu: -0.109317455  nElectrons: 3.000000
SCF: Cycle: 18   F: -7.062754201121106   dF: -1.055e-06   |Residual|: 1.744e-04   |deigs|: 2.127e-04  t[s]:     30.65
	FillingsUpdate:  mu: -0.109432864  nElectrons: 3.000000
SCF: Cycle: 19   F: -7.062754197741041   dF: +3.380e-09   |Residual|: 8.788e-05   |deigs|: 2.050e-04  t[s]:     31.75
	FillingsUpdate:  mu: -0.109535182  nElectrons: 3.000000
SCF: Cycle: 20   F: -7.062754548657253   dF: -3.509e-07   |Residual|: 5.281e-05   |deigs|: 1.345e-04  t[s]:     32.91
	FillingsUpdate:  mu: -0.109633130  nElectrons: 3.000000
SCF: Cycle: 21   F: -7.062754712306724   dF: -1.636e-07   |Residual|: 3.904e-05   |deigs|: 1.382e-04  t[s]:     34.01
	FillingsUpdate:  mu: -0.109657954  nElectrons: 3.000000
SCF: Cycle: 22   F: -7.062755096934302   dF: -3.846e-07   |Residual|: 2.084e-05   |deigs|: 2.107e-04  t[s]:     35.10
	FillingsUpdate:  mu: -0.109653610  nElectrons: 3.000000
SCF: Cycle: 23   F: -7.062755656665054   dF: -5.597e-07   |Residual|: 1.538e-05   |deigs|: 3.243e-04  t[s]:     36.22
	FillingsUpdate:  mu: -0.109616669  nElectrons: 3.000000
SCF: Cycle: 24   F: -7.062755721113851   dF: -6.445e-08   |Residual|: 9.719e-06   |deigs|: 4.380e-05  t[s]:     37.30
	FillingsUpdate:  mu: -0.109605401  nElectrons: 3.000000
SCF: Cycle: 25   F: -7.062755760565983   dF: -3.945e-08   |Residual|: 4.573e-06   |deigs|: 2.513e-05  t[s]:     38.39
	FillingsUpdate:  mu: -0.109588510  nElectrons: 3.000000
SCF: Cycle: 26   F: -7.062755787474090   dF: -2.691e-08   |Residual|: 1.532e-06   |deigs|: 2.136e-05  t[s]:     39.48
	FillingsUpdate:  mu: -0.109589946  nElectrons: 3.000000
SCF: Cycle: 27   F: -7.062755811561801   dF: -2.409e-08   |Residual|: 7.579e-07   |deigs|: 1.326e-05  t[s]:     40.56
	FillingsUpdate:  mu: -0.109591117  nElectrons: 3.000000
SCF: Cycle: 28   F: -7.062755837032594   dF: -2.547e-08   |Residual|: 3.634e-07   |deigs|: 1.292e-05  t[s]:     41.58
	FillingsUpdate:  mu: -0.109591123  nElectrons: 3.000000
SCF: Cycle: 29   F: -7.062755858145437   dF: -2.111e-08   |Residual|: 4.343e-07   |deigs|: 1.048e-05  t[s]:     42.60
	FillingsUpdate:  mu: -0.109590788  nElectrons: 3.000000
SCF: Cycle: 30   F: -7.062755872121938   dF: -1.398e-08   |Residual|: 7.442e-07   |deigs|: 6.714e-06  t[s]:     43.62
	FillingsUpdate:  mu: -0.109590883  nElectrons: 3.000000
SCF: Cycle: 31   F: -7.062755882128986   dF: -1.001e-08   |Residual|: 6.943e-07   |deigs|: 4.802e-06  t[s]:     44.66
	FillingsUpdate:  mu: -0.109590835  nElectrons: 3.000000
SCF: Cycle: 32   F: -7.062755889453834   dF: -7.325e-09   |Residual|: 7.686e-07   |deigs|: 3.419e-06  t[s]:     45.67
	FillingsUpdate:  mu: -0.109590894  nElectrons: 3.000000
SCF: Cycle: 33   F: -7.062755894859567   dF: -5.406e-09   |Residual|: 8.392e-07   |deigs|: 2.568e-06  t[s]:     46.67
SCF: Converged (|Delta E|<1.000000e-08 for 2 iters).


# Ionic positions in lattice coordinates:
ion Li   0.000000000000000   0.000000000000000   0.000000000000000 0

# Forces in Lattice coordinates:
force Li  -0.000000000000000  -0.000000000000000   0.000000000000000 0

# Energy components:
   Eewald =       -1.6573026722068551
       EH =        1.8686795487734904
     Eloc =       -6.8816452308196157
      Enl =       -3.5964192254708429
   Epulay =        0.0000021138080643
      Exc =       -1.5307901818048870
       KE =        4.7469987521951298
-------------------------------------
     Etot =       -7.0504768955255175
       TS =        0.0122789993340496
-------------------------------------
        F =       -7.0627558948595670

IonicMinimize: Iter:   0  F: -7.062755894859567  |grad|_K:  0.000e+00  t[s]:     46.76
IonicMinimize: Converged (|grad|_K<1.000000e-04).

#--- Lowdin population analysis ---
# oxidation-state Li +2.153

End date and time: Sun Jan 16 15:08:52 2022  (Duration: 0-0:00:46.77)
Done!
