
*************** JDFTx 1.6.0 (git hash 42ebbcc2) ***************

Start date and time: Sun Jan 16 13:07:11 2022
Executable jdftx with command-line: -i hBN.in
Running on hosts (process indices):  d-5-12-4 (0-47)  d-5-13-1 (48-95)  d-5-13-2 (96-126)
Divided in process groups (process indices):  0 (0)  1 (1)  2 (2)  3 (3)  4 (4)  5 (5)  6 (6)  7 (7)  8 (8)  9 (9)  10 (10)  11 (11)  12 (12)  13 (13)  14 (14)  15 (15)  16 (16)  17 (17)  18 (18)  19 (19)  20 (20)  21 (21)  22 (22)  23 (23)  24 (24)  25 (25)  26 (26)  27 (27)  28 (28)  29 (29)  30 (30)  31 (31)  32 (32)  33 (33)  34 (34)  35 (35)  36 (36)  37 (37)  38 (38)  39 (39)  40 (40)  41 (41)  42 (42)  43 (43)  44 (44)  45 (45)  46 (46)  47 (47)  48 (48)  49 (49)  50 (50)  51 (51)  52 (52)  53 (53)  54 (54)  55 (55)  56 (56)  57 (57)  58 (58)  59 (59)  60 (60)  61 (61)  62 (62)  63 (63)  64 (64)  65 (65)  66 (66)  67 (67)  68 (68)  69 (69)  70 (70)  71 (71)  72 (72)  73 (73)  74 (74)  75 (75)  76 (76)  77 (77)  78 (78)  79 (79)  80 (80)  81 (81)  82 (82)  83 (83)  84 (84)  85 (85)  86 (86)  87 (87)  88 (88)  89 (89)  90 (90)  91 (91)  92 (92)  93 (93)  94 (94)  95 (95)  96 (96)  97 (97)  98 (98)  99 (99)  100 (100)  101 (101)  102 (102)  103 (103)  104 (104)  105 (105)  106 (106)  107 (107)  108 (108)  109 (109)  110 (110)  111 (111)  112 (112)  113 (113)  114 (114)  115 (115)  116 (116)  117 (117)  118 (118)  119 (119)  120 (120)  121 (121)  122 (122)  123 (123)  124 (124)  125 (125)  126 (126)
Resource initialization completed at t[s]:      0.04
Run totals: 127 processes, 144 threads, 0 GPUs


Input parsed successfully to the following command list (including defaults):

basis kpoint-dependent
coords-type Lattice
core-overlap-check vector
coulomb-interaction Slab 001
davidson-band-ratio 1.1
dump End None
dump Ionic IonicPositions Lattice
dump-name $INPUT.$VAR
elec-cutoff 20
elec-eigen-algo Davidson
elec-ex-corr gga-PBE
electronic-minimize  \
	dirUpdateScheme      FletcherReeves \
	linminMethod         DirUpdateRecommended \
	nIterations          100 \
	history              15 \
	knormThreshold       0 \
	energyDiffThreshold  1e-08 \
	nEnergyDiff          2 \
	alphaTstart          1 \
	alphaTmin            1e-10 \
	updateTestStepSize   yes \
	alphaTreduceFactor   0.1 \
	alphaTincreaseFactor 3 \
	nAlphaAdjustMax      3 \
	wolfeEnergy          0.0001 \
	wolfeGradient        0.9 \
	fdTest               no
exchange-regularization WignerSeitzTruncated
fluid None
fluid-ex-corr (null) lda-PZ
fluid-gummel-loop 10 1.000000e-05
fluid-minimize  \
	dirUpdateScheme      PolakRibiere \
	linminMethod         DirUpdateRecommended \
	nIterations          100 \
	history              15 \
	knormThreshold       0 \
	energyDiffThreshold  0 \
	nEnergyDiff          2 \
	alphaTstart          1 \
	alphaTmin            1e-10 \
	updateTestStepSize   yes \
	alphaTreduceFactor   0.1 \
	alphaTincreaseFactor 3 \
	nAlphaAdjustMax      3 \
	wolfeEnergy          0.0001 \
	wolfeGradient        0.9 \
	fdTest               no
fluid-solvent H2O 55.338 ScalarEOS \
	epsBulk 78.4 \
	pMol 0.92466 \
	epsInf 1.77 \
	Pvap 1.06736e-10 \
	sigmaBulk 4.62e-05 \
	Rvdw 2.61727 \
	Res 1.42 \
	tauNuc 343133 \
	poleEl 15 7 1
forces-output-coords Positions
ion B  -0.000000000000000   0.000000000000000   0.000000000000000 0
ion N   0.333333333333333   0.666666666666667   0.000000000000000 0
ion-species SG15/$ID_ONCV_PBE.upf
ion-width 0
ionic-minimize  \
	dirUpdateScheme      L-BFGS \
	linminMethod         DirUpdateRecommended \
	nIterations          0 \
	history              15 \
	knormThreshold       0.0001 \
	energyDiffThreshold  1e-06 \
	nEnergyDiff          2 \
	alphaTstart          1 \
	alphaTmin            1e-10 \
	updateTestStepSize   yes \
	alphaTreduceFactor   0.1 \
	alphaTincreaseFactor 3 \
	nAlphaAdjustMax      3 \
	wolfeEnergy          0.0001 \
	wolfeGradient        0.9 \
	fdTest               no
kpoint   0.000000000000   0.000000000000   0.000000000000  1.00000000000000
kpoint-folding 36 36 1 
latt-move-scale 1 1 1
latt-scale 1 1 1 
lattice Hexagonal 5 40
lattice-minimize  \
	dirUpdateScheme      L-BFGS \
	linminMethod         DirUpdateRecommended \
	nIterations          10 \
	history              15 \
	knormThreshold       0 \
	energyDiffThreshold  1e-06 \
	nEnergyDiff          2 \
	alphaTstart          1 \
	alphaTmin            1e-10 \
	updateTestStepSize   yes \
	alphaTreduceFactor   0.1 \
	alphaTincreaseFactor 3 \
	nAlphaAdjustMax      3 \
	wolfeEnergy          0.0001 \
	wolfeGradient        0.9 \
	fdTest               no
lcao-params -1 1e-06 0.001
pcm-variant GLSSA13
spintype no-spin
subspace-rotation-factor 1 yes
symmetries automatic
symmetry-threshold 0.0001



---------- Setting up symmetries ----------

Found 24 point-group symmetries of the bravais lattice
Found 12 space-group symmetries with basis
Applied RMS atom displacement 1.36288e-15 bohrs to make symmetries exact.

---------- Initializing the Grid ----------
R = 
[            5         -2.5            0  ]
[            0      4.33013            0  ]
[            0            0           40  ]
unit cell volume = 866.025
G =
[    1.25664    0.72552         -0  ]
[          0    1.45104          0  ]
[          0         -0    0.15708  ]
Minimum fftbox size, Smin = [  24  24  164  ]
Chosen fftbox size, S = [  24  24  168  ]

---------- Exchange Correlation functional ----------
Initalized PBE GGA exchange.
Initalized PBE GGA correlation.

---------- Setting up pseudopotentials ----------
Width of ionic core gaussian charges (only for fluid interactions / plotting) set to 0

Reading pseudopotential file '/home/gridsan/aligho/DFT/build-Nov24/pseudopotentials/SG15/B_ONCV_PBE.upf':
  'B' pseudopotential, 'PBE' functional
  Generated using ONCVPSP code by D. R. Hamann
  Author: Martin Schlipf and Francois Gygi  Date: 150915.
  3 valence electrons, 2 orbitals, 4 projectors, 1534 radial grid points, with lMax = 1
  Transforming local potential to a uniform radial grid of dG=0.02 with 1651 points.
  Transforming nonlocal projectors to a uniform radial grid of dG=0.02 with 432 points.
    2S    l: 0   occupation:  2.0   eigenvalue: -0.347027
    2P    l: 1   occupation:  1.0   eigenvalue: -0.132548
  Transforming atomic orbitals to a uniform radial grid of dG=0.02 with 432 points.
  Core radius for overlap checks: 1.60 bohrs.
  Reading pulay file /home/gridsan/aligho/DFT/build-Nov24/pseudopotentials/SG15/B_ONCV_PBE.pulay ... using dE_dnG = -3.748568e-04 computed for Ecut = 20.

Reading pseudopotential file '/home/gridsan/aligho/DFT/build-Nov24/pseudopotentials/SG15/N_ONCV_PBE.upf':
  'N' pseudopotential, 'PBE' functional
  Generated using ONCVPSP code by D. R. Hamann
  Author: Martin Schlipf and Francois Gygi  Date: 150915.
  5 valence electrons, 2 orbitals, 4 projectors, 1058 radial grid points, with lMax = 1
  Transforming local potential to a uniform radial grid of dG=0.02 with 1651 points.
  Transforming nonlocal projectors to a uniform radial grid of dG=0.02 with 432 points.
    2S    l: 0   occupation:  2.0   eigenvalue: -0.682907
    2P    l: 1   occupation:  3.0   eigenvalue: -0.260548
  Transforming atomic orbitals to a uniform radial grid of dG=0.02 with 432 points.
  Core radius for overlap checks: 1.35 bohrs.
  Reading pulay file /home/gridsan/aligho/DFT/build-Nov24/pseudopotentials/SG15/N_ONCV_PBE.pulay ... using dE_dnG = -2.956256e-02 computed for Ecut = 20.

Initialized 2 species with 2 total atoms.

Folded 1 k-points by 36x36x1 to 1296 k-points.

---------- Setting up k-points, bands, fillings ----------
Adding inversion symmetry to k-mesh for non-inversion-symmetric unit cell.
Reduced to 127 k-points under symmetry. 
Computing the number of bands and number of electrons
Calculating initial fillings.
nElectrons:   8.000000   nBands: 4   nStates: 127

----- Setting up reduced wavefunction bases (one per k-point) -----
average nbasis = 3699.581 , ideal nbasis = 3699.727

---------- Setting up coulomb interaction ----------
Initialized slab truncation along lattice direction 001

---------- Setting up 2D ewald sum ----------
Optimum gaussian width for ewald sums = 2.775798 bohr.
Real space sums over 289 unit cells with max indices [  8  8  0  ]
Reciprocal space sums over 81 terms with max indices [  4  4  0  ]

---------- Allocating electronic variables ----------
Initializing wave functions:  linear combination of atomic orbitals
B pseudo-atom occupations:   s ( 2 )  p ( 1 )
N pseudo-atom occupations:   s ( 2 )  p ( 3 )
	FillingsUpdate:  mu: -0.166278747  nElectrons: 8.000000
LCAOMinimize: Iter:   0  Etot: -12.7011787338576791  |grad|_K:  4.057e-03  alpha:  1.000e+00
	FillingsUpdate:  mu: -0.188003181  nElectrons: 8.000000
LCAOMinimize: Iter:   1  Etot: -12.7353832579546236  |grad|_K:  5.939e-04  alpha:  3.372e-01  linmin: -5.179e-01  cgtest:  9.407e-01  t[s]:      5.51
LCAOMinimize: Encountered beta<0, resetting CG.
	FillingsUpdate:  mu: -0.189732822  nElectrons: 8.000000
LCAOMinimize: Iter:   2  Etot: -12.7360689427406264  |grad|_K:  1.300e-05  alpha:  3.787e-01  linmin:  3.362e-01  cgtest: -5.102e-01  t[s]:      8.28
	FillingsUpdate:  mu: -0.189763072  nElectrons: 8.000000
LCAOMinimize: Iter:   3  Etot: -12.7360695554595331  |grad|_K:  7.409e-06  alpha:  9.588e-01  linmin:  3.198e-04  cgtest:  5.354e-01  t[s]:     11.17
LCAOMinimize: None of the convergence criteria satisfied after 3 iterations.


---- Citations for features of the code used in this run ----

   Software package:
      R. Sundararaman, K. Letchworth-Weaver, K.A. Schwarz, D. Gunceler, Y. Ozhabes and T.A. Arias, 'JDFTx: software for joint density-functional theory', SoftwareX 6, 278 (2017)

   gga-PBE exchange-correlation functional:
      J.P. Perdew, K. Burke and M. Ernzerhof, Phys. Rev. Lett. 77, 3865 (1996)

   Pseudopotentials:
      M Schlipf and F Gygi, Comput. Phys. Commun. 196, 36 (2015)

   Truncated Coulomb potentials:
      R. Sundararaman and T.A. Arias, Phys. Rev. B 87, 165122 (2013)

   Total energy minimization:
      T.A. Arias, M.C. Payne and J.D. Joannopoulos, Phys. Rev. Lett. 69, 1077 (1992)

This list may not be complete. Please suggest additional citations or
report any other bugs at https://github.com/shankar1729/jdftx/issues

Initialization completed successfully at t[s]:     11.19


--------- Lattice Minimization ---------

-------- Electronic minimization -----------
ElecMinimize: Iter:   0  Etot: -12.736069555459547  |grad|_K:  2.541e-04  alpha:  1.000e+00
ElecMinimize: Iter:   1  Etot: -12.810412719247196  |grad|_K:  1.050e-04  alpha:  6.156e-01  linmin: -3.198e-03  t[s]:     11.63
ElecMinimize: Iter:   2  Etot: -12.821023963320245  |grad|_K:  4.851e-05  alpha:  5.111e-01  linmin:  6.005e-04  t[s]:     11.89
ElecMinimize: Iter:   3  Etot: -12.824180532187635  |grad|_K:  2.231e-05  alpha:  7.146e-01  linmin:  5.854e-04  t[s]:     12.16
ElecMinimize: Iter:   4  Etot: -12.824817045821984  |grad|_K:  1.474e-05  alpha:  6.809e-01  linmin: -2.155e-04  t[s]:     12.42
ElecMinimize: Iter:   5  Etot: -12.825072183025515  |grad|_K:  7.344e-06  alpha:  6.253e-01  linmin: -2.032e-04  t[s]:     12.68
ElecMinimize: Iter:   6  Etot: -12.825146872039447  |grad|_K:  4.058e-06  alpha:  7.373e-01  linmin:  2.085e-04  t[s]:     12.94
ElecMinimize: Iter:   7  Etot: -12.825167820688602  |grad|_K:  2.669e-06  alpha:  6.775e-01  linmin:  5.782e-05  t[s]:     13.19
ElecMinimize: Iter:   8  Etot: -12.825177882027216  |grad|_K:  1.621e-06  alpha:  7.522e-01  linmin: -1.994e-05  t[s]:     13.45
ElecMinimize: Iter:   9  Etot: -12.825182096594874  |grad|_K:  1.233e-06  alpha:  8.542e-01  linmin: -6.146e-07  t[s]:     13.71
ElecMinimize: Iter:  10  Etot: -12.825184320344333  |grad|_K:  8.689e-07  alpha:  7.791e-01  linmin:  1.722e-05  t[s]:     13.96
ElecMinimize: Iter:  11  Etot: -12.825185446753343  |grad|_K:  5.605e-07  alpha:  7.944e-01  linmin: -5.408e-05  t[s]:     14.21
ElecMinimize: Iter:  12  Etot: -12.825185905183050  |grad|_K:  3.813e-07  alpha:  7.771e-01  linmin: -1.620e-05  t[s]:     14.47
ElecMinimize: Iter:  13  Etot: -12.825186103551257  |grad|_K:  2.385e-07  alpha:  7.264e-01  linmin:  6.069e-06  t[s]:     14.72
ElecMinimize: Iter:  14  Etot: -12.825186182746798  |grad|_K:  1.423e-07  alpha:  7.415e-01  linmin: -5.098e-06  t[s]:     14.97
ElecMinimize: Iter:  15  Etot: -12.825186210923141  |grad|_K:  9.655e-08  alpha:  7.412e-01  linmin: -5.661e-06  t[s]:     15.24
ElecMinimize: Iter:  16  Etot: -12.825186223749409  |grad|_K:  6.058e-08  alpha:  7.325e-01  linmin: -2.628e-04  t[s]:     15.49
ElecMinimize: Iter:  17  Etot: -12.825186229117445  |grad|_K:  3.926e-08  alpha:  7.783e-01  linmin: -6.094e-04  t[s]:     15.76
ElecMinimize: Iter:  18  Etot: -12.825186231307125  |grad|_K:  2.631e-08  alpha:  7.563e-01  linmin:  1.228e-04  t[s]:     16.01
ElecMinimize: Converged (|Delta Etot|<1.000000e-08 for 2 iters).
Setting wave functions to eigenvectors of Hamiltonian
# Lattice vectors:
R = 
[            5         -2.5            0  ]
[            0      4.33013            0  ]
[            0            0           40  ]
unit cell volume = 866.025

# Strain tensor in Cartesian coordinates:
[            0            0            0  ]
[            0            0            0  ]
[            0            0            0  ]

# Stress tensor in Cartesian coordinates [Eh/a0^3]:
[  0.000244986            0            0  ]
[            0  0.000244986            0  ]
[            0            0  2.12002e-05  ]

# Ionic positions in lattice coordinates:
ion B  -0.000000000000000   0.000000000000000   0.000000000000000 0
ion N   0.333333333333333   0.666666666666667   0.000000000000000 0

# Forces in Lattice coordinates:
force B   0.000000000000000   0.000000000000000   0.000000000000000 0
force N   0.000000000000000   0.000000000000000   0.000000000000000 0

# Energy components:
   Eewald =      -18.9522961279849795
       EH =       -8.8268625040537732
     Eloc =       10.3668516891148084
      Enl =       -0.5313379355649143
   Epulay =       -0.0000050298836426
      Exc =       -3.5790812400397600
       KE =        8.6975449171051302
-------------------------------------
     Etot =      -12.8251862313071250


Dumping 'hBN.ionpos' ... done
Dumping 'hBN.lattice' ... done
LatticeMinimize: Iter:   0  Etot: -12.825186231307125  |grad|_K:  3.148e-02  t[s]:     16.26

#--- Lowdin population analysis ---
# oxidation-state B +0.443
# oxidation-state N -0.377


-------- Electronic minimization -----------
ElecMinimize: Iter:   0  Etot: -12.826150015739366  |grad|_K:  1.724e-06  alpha:  1.000e+00
ElecMinimize: Iter:   1  Etot: -12.826153292244411  |grad|_K:  9.910e-07  alpha:  5.872e-01  linmin:  1.438e-05  t[s]:     16.76
ElecMinimize: Iter:   2  Etot: -12.826154436643616  |grad|_K:  5.001e-07  alpha:  6.205e-01  linmin: -5.503e-06  t[s]:     17.02
ElecMinimize: Iter:   3  Etot: -12.826154779975990  |grad|_K:  2.312e-07  alpha:  7.308e-01  linmin:  4.339e-06  t[s]:     17.28
ElecMinimize: Iter:   4  Etot: -12.826154841040948  |grad|_K:  1.461e-07  alpha:  6.085e-01  linmin:  6.576e-06  t[s]:     17.54
ElecMinimize: Iter:   5  Etot: -12.826154867602627  |grad|_K:  7.440e-08  alpha:  6.622e-01  linmin: -1.771e-04  t[s]:     17.79
ElecMinimize: Iter:   6  Etot: -12.826154876672089  |grad|_K:  5.144e-08  alpha:  8.726e-01  linmin:  3.078e-04  t[s]:     18.05
ElecMinimize: Iter:   7  Etot: -12.826154880004170  |grad|_K:  3.454e-08  alpha:  6.706e-01  linmin:  2.642e-04  t[s]:     18.30
ElecMinimize: Converged (|Delta Etot|<1.000000e-08 for 2 iters).
Setting wave functions to eigenvectors of Hamiltonian
LatticeMinimize: 	Wolfe criterion not satisfied: alpha: 1  (E-E0)/|gdotd0|: -0.977569  gdotd/gdotd0: 0.95279 (taking cubic step)

-------- Electronic minimization -----------
ElecMinimize: Iter:   0  Etot: -12.827933188444614  |grad|_K:  3.475e-06  alpha:  1.000e+00
ElecMinimize: Iter:   1  Etot: -12.827946378199663  |grad|_K:  1.987e-06  alpha:  5.817e-01  linmin:  2.964e-05  t[s]:     19.07
ElecMinimize: Iter:   2  Etot: -12.827950955635053  |grad|_K:  9.983e-07  alpha:  6.171e-01  linmin: -1.208e-05  t[s]:     19.33
ElecMinimize: Iter:   3  Etot: -12.827952316252182  |grad|_K:  4.601e-07  alpha:  7.270e-01  linmin:  1.005e-06  t[s]:     19.59
ElecMinimize: Iter:   4  Etot: -12.827952559563482  |grad|_K:  2.939e-07  alpha:  6.120e-01  linmin: -2.356e-06  t[s]:     19.84
ElecMinimize: Iter:   5  Etot: -12.827952667282240  |grad|_K:  1.519e-07  alpha:  6.641e-01  linmin: -4.625e-06  t[s]:     20.10
ElecMinimize: Iter:   6  Etot: -12.827952705437788  |grad|_K:  1.067e-07  alpha:  8.800e-01  linmin:  6.177e-05  t[s]:     20.35
ElecMinimize: Iter:   7  Etot: -12.827952719928685  |grad|_K:  7.275e-08  alpha:  6.783e-01  linmin: -3.350e-05  t[s]:     20.61
ElecMinimize: Iter:   8  Etot: -12.827952728185188  |grad|_K:  4.972e-08  alpha:  8.308e-01  linmin:  3.384e-04  t[s]:     20.86
ElecMinimize: Iter:   9  Etot: -12.827952732202327  |grad|_K:  3.242e-08  alpha:  8.649e-01  linmin:  2.966e-04  t[s]:     21.11
ElecMinimize: Converged (|Delta Etot|<1.000000e-08 for 2 iters).
Setting wave functions to eigenvectors of Hamiltonian
# Lattice vectors:
R = 
[      4.96503     -2.48251            0  ]
[            0      4.29984            0  ]
[            0            0           40  ]
unit cell volume = 853.953

# Strain tensor in Cartesian coordinates:
[  -0.00699459            0            0  ]
[            0  -0.00699459            0  ]
[            0            0            0  ]

# Stress tensor in Cartesian coordinates [Eh/a0^3]:
[  0.000212896            0            0  ]
[            0  0.000212896            0  ]
[            0            0  1.76241e-05  ]

# Ionic positions in lattice coordinates:
ion B  -0.000000000000000   0.000000000000000   0.000000000000000 0
ion N   0.333333333333333   0.666666666666667   0.000000000000000 0

# Forces in Lattice coordinates:
force B  -0.000000000000000   0.000000000000000   0.000000000000000 0
force N   0.000000000000000  -0.000000000000000   0.000000000000000 0

# Energy components:
   Eewald =      -19.0857933848604624
       EH =       -8.9594719597225936
     Eloc =       10.6002575359315472
      Enl =       -0.5447430037105456
   Epulay =        0.0018029919250176
      Exc =       -3.5918020188524107
       KE =        8.7517971070871212
-------------------------------------
     Etot =      -12.8279527322023270


Dumping 'hBN.ionpos' ... done
Dumping 'hBN.lattice' ... done
LatticeMinimize: Iter:   1  Etot: -12.827952732202327  |grad|_K:  2.697e-02  alpha:  3.000e+00  linmin: -9.983e-01  t[s]:     21.34

#--- Lowdin population analysis ---
# oxidation-state B +0.444
# oxidation-state N -0.378


-------- Electronic minimization -----------
ElecMinimize: Iter:   0  Etot: -12.833381403139686  |grad|_K:  3.344e-05  alpha:  1.000e+00
ElecMinimize: Iter:   1  Etot: -12.834520790186573  |grad|_K:  1.838e-05  alpha:  5.431e-01  linmin:  3.105e-04  t[s]:     21.85
ElecMinimize: Iter:   2  Etot: -12.834891250528694  |grad|_K:  8.875e-06  alpha:  5.840e-01  linmin: -9.770e-05  t[s]:     22.11
ElecMinimize: Iter:   3  Etot: -12.834994006670293  |grad|_K:  4.015e-06  alpha:  6.947e-01  linmin:  2.090e-05  t[s]:     22.36
ElecMinimize: Iter:   4  Etot: -12.835011058671155  |grad|_K:  2.494e-06  alpha:  5.633e-01  linmin:  2.900e-06  t[s]:     22.61
ElecMinimize: Iter:   5  Etot: -12.835018818735215  |grad|_K:  1.304e-06  alpha:  6.641e-01  linmin:  1.779e-05  t[s]:     22.87
ElecMinimize: Iter:   6  Etot: -12.835021522423611  |grad|_K:  9.371e-07  alpha:  8.472e-01  linmin:  3.043e-05  t[s]:     23.12
ElecMinimize: Iter:   7  Etot: -12.835022588473889  |grad|_K:  6.255e-07  alpha:  6.464e-01  linmin:  4.103e-06  t[s]:     23.38
ElecMinimize: Iter:   8  Etot: -12.835023181705889  |grad|_K:  4.131e-07  alpha:  8.075e-01  linmin:  6.087e-06  t[s]:     23.63
ElecMinimize: Iter:   9  Etot: -12.835023435031850  |grad|_K:  2.683e-07  alpha:  7.904e-01  linmin: -6.060e-06  t[s]:     23.88
ElecMinimize: Iter:  10  Etot: -12.835023516208649  |grad|_K:  1.607e-07  alpha:  6.006e-01  linmin:  4.350e-06  t[s]:     24.14
ElecMinimize: Iter:  11  Etot: -12.835023552678187  |grad|_K:  1.030e-07  alpha:  7.520e-01  linmin: -4.437e-05  t[s]:     24.39
ElecMinimize: Iter:  12  Etot: -12.835023569146111  |grad|_K:  7.193e-08  alpha:  8.259e-01  linmin:  4.792e-05  t[s]:     24.64
ElecMinimize: Iter:  13  Etot: -12.835023575369510  |grad|_K:  4.356e-08  alpha:  6.405e-01  linmin:  7.050e-05  t[s]:     24.89
ElecMinimize: Iter:  14  Etot: -12.835023577983238  |grad|_K:  2.894e-08  alpha:  7.344e-01  linmin:  1.147e-03  t[s]:     25.14
ElecMinimize: Converged (|Delta Etot|<1.000000e-08 for 2 iters).
Setting wave functions to eigenvectors of Hamiltonian
# Lattice vectors:
R = 
[      4.75901      -2.3795            0  ]
[            0      4.12142            0  ]
[            0            0           40  ]
unit cell volume = 784.556

# Strain tensor in Cartesian coordinates:
[   -0.0481981            0            0  ]
[            0   -0.0481981            0  ]
[            0            0            0  ]

# Stress tensor in Cartesian coordinates [Eh/a0^3]:
[ -2.61025e-05            0            0  ]
[            0 -2.61025e-05            0  ]
[            0            0 -6.98805e-06  ]

# Ionic positions in lattice coordinates:
ion B  -0.000000000000000   0.000000000000000   0.000000000000000 0
ion N   0.333333333333333   0.666666666666667   0.000000000000000 0

# Forces in Lattice coordinates:
force B   0.000000000000000   0.000000000000000   0.000000000000000 0
force N   0.000000000000000   0.000000000000000   0.000000000000000 0

# Energy components:
   Eewald =      -19.9120175040186069
       EH =       -9.7860584811459841
     Eloc =       12.0513237800277082
      Enl =       -0.6236556566872909
   Epulay =        0.0132752979800885
      Exc =       -3.6710726194085073
       KE =        9.0931816052693559
-------------------------------------
     Etot =      -12.8350235779832378


Dumping 'hBN.ionpos' ... done
Dumping 'hBN.lattice' ... done
LatticeMinimize: Iter:   2  Etot: -12.835023577983238  |grad|_K:  3.038e-03  alpha:  1.000e+00  linmin:  9.825e-01  t[s]:     25.37

#--- Lowdin population analysis ---
# oxidation-state B +0.451
# oxidation-state N -0.381


-------- Electronic minimization -----------
ElecMinimize: Iter:   0  Etot: -12.835089299613658  |grad|_K:  3.296e-06  alpha:  1.000e+00
ElecMinimize: Iter:   1  Etot: -12.835100209593193  |grad|_K:  1.795e-06  alpha:  5.347e-01  linmin: -4.870e-05  t[s]:     25.88
ElecMinimize: Iter:   2  Etot: -12.835103763374134  |grad|_K:  8.698e-07  alpha:  5.871e-01  linmin:  1.010e-05  t[s]:     26.13
ElecMinimize: Iter:   3  Etot: -12.835104755517257  |grad|_K:  3.985e-07  alpha:  6.983e-01  linmin: -6.050e-07  t[s]:     26.38
ElecMinimize: Iter:   4  Etot: -12.835104923301998  |grad|_K:  2.458e-07  alpha:  5.625e-01  linmin:  1.208e-05  t[s]:     26.64
ElecMinimize: Iter:   5  Etot: -12.835104999305788  |grad|_K:  1.296e-07  alpha:  6.700e-01  linmin: -2.802e-05  t[s]:     26.90
ElecMinimize: Iter:   6  Etot: -12.835105026088947  |grad|_K:  9.301e-08  alpha:  8.496e-01  linmin: -3.989e-05  t[s]:     27.15
ElecMinimize: Iter:   7  Etot: -12.835105036708635  |grad|_K:  6.219e-08  alpha:  6.537e-01  linmin: -5.277e-05  t[s]:     27.40
ElecMinimize: Iter:   8  Etot: -12.835105042485322  |grad|_K:  4.059e-08  alpha:  7.949e-01  linmin: -5.390e-04  t[s]:     27.66
ElecMinimize: Iter:   9  Etot: -12.835105044944809  |grad|_K:  2.608e-08  alpha:  7.947e-01  linmin: -3.739e-05  t[s]:     27.92
ElecMinimize: Converged (|Delta Etot|<1.000000e-08 for 2 iters).
Setting wave functions to eigenvectors of Hamiltonian
# Lattice vectors:
R = 
[       4.7786      -2.3893            0  ]
[            0      4.13839            0  ]
[            0            0           40  ]
unit cell volume = 791.027

# Strain tensor in Cartesian coordinates:
[   -0.0442805            0            0  ]
[            0   -0.0442805            0  ]
[            0            0            0  ]

# Stress tensor in Cartesian coordinates [Eh/a0^3]:
[  7.53385e-07            0            0  ]
[            0  7.53385e-07            0  ]
[            0            0 -4.35996e-06  ]

# Ionic positions in lattice coordinates:
ion B  -0.000000000000000   0.000000000000000   0.000000000000000 0
ion N   0.333333333333333   0.666666666666667   0.000000000000000 0

# Forces in Lattice coordinates:
force B   0.000000000000000  -0.000000000000000   0.000000000000000 0
force N   0.000000000000000   0.000000000000000   0.000000000000000 0

# Energy components:
   Eewald =      -19.8303959629952047
       EH =       -9.7039619550857612
     Eloc =       11.9074725800143106
      Enl =       -0.6161340141206949
   Epulay =        0.0121203254525655
      Exc =       -3.6631997848244757
       KE =        9.0589937666144511
-------------------------------------
     Etot =      -12.8351050449448092


Dumping 'hBN.ionpos' ... done
Dumping 'hBN.lattice' ... done
LatticeMinimize: Iter:   3  Etot: -12.835105044944809  |grad|_K:  8.842e-05  alpha:  1.000e+00  linmin:  2.374e-01  t[s]:     28.14

#--- Lowdin population analysis ---
# oxidation-state B +0.450
# oxidation-state N -0.381


-------- Electronic minimization -----------
ElecMinimize: Iter:   0  Etot: -12.835105101710415  |grad|_K:  9.415e-08  alpha:  1.000e+00
ElecMinimize: Iter:   1  Etot: -12.835105110504314  |grad|_K:  5.194e-08  alpha:  5.284e-01  linmin:  1.142e-04  t[s]:     28.71
ElecMinimize: Iter:   2  Etot: -12.835105113548789  |grad|_K:  2.619e-08  alpha:  6.017e-01  linmin:  1.073e-03  t[s]:     29.00
ElecMinimize: Converged (|Delta Etot|<1.000000e-08 for 2 iters).
Setting wave functions to eigenvectors of Hamiltonian
# Lattice vectors:
R = 
[      4.77806     -2.38903            0  ]
[            0      4.13792            0  ]
[            0            0           40  ]
unit cell volume = 790.849

# Strain tensor in Cartesian coordinates:
[   -0.0443885            0            0  ]
[            0   -0.0443885            0  ]
[            0            0            0  ]

# Stress tensor in Cartesian coordinates [Eh/a0^3]:
[  1.61005e-08            0            0  ]
[            0  1.61005e-08            0  ]
[            0            0 -4.45892e-06  ]

# Ionic positions in lattice coordinates:
ion B  -0.000000000000000   0.000000000000000   0.000000000000000 0
ion N   0.333333333333333   0.666666666666667   0.000000000000000 0

# Forces in Lattice coordinates:
force B   0.000000000000000   0.000000000000000   0.000000000000000 0
force N  -0.000000000000000  -0.000000000000000   0.000000000000000 0

# Energy components:
   Eewald =      -19.8326362148684439
       EH =       -9.7062189524231748
     Eloc =       11.9114206377330039
      Enl =       -0.6163197741926585
   Epulay =        0.0121519624593903
      Exc =       -3.6634170604021161
       KE =        9.0599142881452046
-------------------------------------
     Etot =      -12.8351051135487886


Dumping 'hBN.ionpos' ... done
Dumping 'hBN.lattice' ... done
LatticeMinimize: Iter:   4  Etot: -12.835105113548789  |grad|_K:  1.889e-06  alpha:  1.000e+00  linmin: -5.106e-03  t[s]:     29.23

#--- Lowdin population analysis ---
# oxidation-state B +0.450
# oxidation-state N -0.381


-------- Electronic minimization -----------
ElecMinimize: Iter:   0  Etot: -12.835105113563356  |grad|_K:  2.617e-08  alpha:  1.000e+00
ElecMinimize: Iter:   1  Etot: -12.835105114269595  |grad|_K:  1.666e-08  alpha:  5.511e-01  linmin: -1.210e-03  t[s]:     29.76
ElecMinimize: Iter:   2  Etot: -12.835105114633578  |grad|_K:  1.204e-08  alpha:  7.040e-01  linmin:  6.187e-03  t[s]:     30.02
ElecMinimize: Converged (|Delta Etot|<1.000000e-08 for 2 iters).
Setting wave functions to eigenvectors of Hamiltonian
# Lattice vectors:
R = 
[      4.77805     -2.38902            0  ]
[            0      4.13791            0  ]
[            0            0           40  ]
unit cell volume = 790.845

# Strain tensor in Cartesian coordinates:
[   -0.0443907            0            0  ]
[            0   -0.0443907            0  ]
[            0            0            0  ]

# Stress tensor in Cartesian coordinates [Eh/a0^3]:
[ -3.95967e-09            0            0  ]
[            0 -3.95967e-09            0  ]
[            0            0 -4.42561e-06  ]

# Ionic positions in lattice coordinates:
ion B  -0.000000000000000   0.000000000000000   0.000000000000000 0
ion N   0.333333333333333   0.666666666666667   0.000000000000000 0

# Forces in Lattice coordinates:
force B  -0.000000000000000   0.000000000000000   0.000000000000000 0
force N  -0.000000000000000  -0.000000000000000   0.000000000000000 0

# Energy components:
   Eewald =      -19.8326831957593299
       EH =       -9.7062704159828535
     Eloc =       11.9115096155645386
      Enl =       -0.6163371191650667
   Epulay =        0.0121526259653537
      Exc =       -3.6634204509449875
       KE =        9.0599438256887694
-------------------------------------
     Etot =      -12.8351051146335777


Dumping 'hBN.ionpos' ... done
Dumping 'hBN.lattice' ... done
LatticeMinimize: Iter:   5  Etot: -12.835105114633578  |grad|_K:  4.646e-07  alpha:  1.000e+00  linmin:  1.265e-03  t[s]:     30.25
LatticeMinimize: Converged (|Delta Etot|<1.000000e-06 for 2 iters).

#--- Lowdin population analysis ---
# oxidation-state B +0.450
# oxidation-state N -0.381

End date and time: Sun Jan 16 13:07:41 2022  (Duration: 0-0:00:30.32)
Done!

*************** JDFTx 1.6.0 (git hash 42ebbcc2) ***************

Start date and time: Sun Jan 16 13:08:46 2022
Executable jdftx with command-line: -i hBN.in
Running on hosts (process indices):  d-5-12-4 (0-47)  d-5-13-1 (48-95)  d-5-13-2 (96-126)
Divided in process groups (process indices):  0 (0)  1 (1)  2 (2)  3 (3)  4 (4)  5 (5)  6 (6)  7 (7)  8 (8)  9 (9)  10 (10)  11 (11)  12 (12)  13 (13)  14 (14)  15 (15)  16 (16)  17 (17)  18 (18)  19 (19)  20 (20)  21 (21)  22 (22)  23 (23)  24 (24)  25 (25)  26 (26)  27 (27)  28 (28)  29 (29)  30 (30)  31 (31)  32 (32)  33 (33)  34 (34)  35 (35)  36 (36)  37 (37)  38 (38)  39 (39)  40 (40)  41 (41)  42 (42)  43 (43)  44 (44)  45 (45)  46 (46)  47 (47)  48 (48)  49 (49)  50 (50)  51 (51)  52 (52)  53 (53)  54 (54)  55 (55)  56 (56)  57 (57)  58 (58)  59 (59)  60 (60)  61 (61)  62 (62)  63 (63)  64 (64)  65 (65)  66 (66)  67 (67)  68 (68)  69 (69)  70 (70)  71 (71)  72 (72)  73 (73)  74 (74)  75 (75)  76 (76)  77 (77)  78 (78)  79 (79)  80 (80)  81 (81)  82 (82)  83 (83)  84 (84)  85 (85)  86 (86)  87 (87)  88 (88)  89 (89)  90 (90)  91 (91)  92 (92)  93 (93)  94 (94)  95 (95)  96 (96)  97 (97)  98 (98)  99 (99)  100 (100)  101 (101)  102 (102)  103 (103)  104 (104)  105 (105)  106 (106)  107 (107)  108 (108)  109 (109)  110 (110)  111 (111)  112 (112)  113 (113)  114 (114)  115 (115)  116 (116)  117 (117)  118 (118)  119 (119)  120 (120)  121 (121)  122 (122)  123 (123)  124 (124)  125 (125)  126 (126)
Resource initialization completed at t[s]:      0.04
Run totals: 127 processes, 144 threads, 0 GPUs


Input parsed successfully to the following command list (including defaults):

basis kpoint-dependent
coords-type Lattice
core-overlap-check vector
coulomb-interaction Slab 001
davidson-band-ratio 1.1
dump End None
dump Ionic IonicPositions Lattice
dump-name $INPUT.$VAR
elec-cutoff 20
elec-eigen-algo Davidson
elec-ex-corr gga-PBE
electronic-minimize  \
	dirUpdateScheme      FletcherReeves \
	linminMethod         DirUpdateRecommended \
	nIterations          100 \
	history              15 \
	knormThreshold       0 \
	energyDiffThreshold  1e-08 \
	nEnergyDiff          2 \
	alphaTstart          1 \
	alphaTmin            1e-10 \
	updateTestStepSize   yes \
	alphaTreduceFactor   0.1 \
	alphaTincreaseFactor 3 \
	nAlphaAdjustMax      3 \
	wolfeEnergy          0.0001 \
	wolfeGradient        0.9 \
	fdTest               no
exchange-regularization WignerSeitzTruncated
fluid None
fluid-ex-corr (null) lda-PZ
fluid-gummel-loop 10 1.000000e-05
fluid-minimize  \
	dirUpdateScheme      PolakRibiere \
	linminMethod         DirUpdateRecommended \
	nIterations          100 \
	history              15 \
	knormThreshold       0 \
	energyDiffThreshold  0 \
	nEnergyDiff          2 \
	alphaTstart          1 \
	alphaTmin            1e-10 \
	updateTestStepSize   yes \
	alphaTreduceFactor   0.1 \
	alphaTincreaseFactor 3 \
	nAlphaAdjustMax      3 \
	wolfeEnergy          0.0001 \
	wolfeGradient        0.9 \
	fdTest               no
fluid-solvent H2O 55.338 ScalarEOS \
	epsBulk 78.4 \
	pMol 0.92466 \
	epsInf 1.77 \
	Pvap 1.06736e-10 \
	sigmaBulk 4.62e-05 \
	Rvdw 2.61727 \
	Res 1.42 \
	tauNuc 343133 \
	poleEl 15 7 1
forces-output-coords Positions
ion B  -0.000000000000000   0.000000000000000   0.000000000000000 0
ion N   0.333333333333333   0.666666666666667   0.000000000000000 0
ion-species SG15/$ID_ONCV_PBE.upf
ion-width 0
ionic-minimize  \
	dirUpdateScheme      L-BFGS \
	linminMethod         DirUpdateRecommended \
	nIterations          0 \
	history              15 \
	knormThreshold       0.0001 \
	energyDiffThreshold  1e-06 \
	nEnergyDiff          2 \
	alphaTstart          1 \
	alphaTmin            1e-10 \
	updateTestStepSize   yes \
	alphaTreduceFactor   0.1 \
	alphaTincreaseFactor 3 \
	nAlphaAdjustMax      3 \
	wolfeEnergy          0.0001 \
	wolfeGradient        0.9 \
	fdTest               no
kpoint   0.000000000000   0.000000000000   0.000000000000  1.00000000000000
kpoint-folding 36 36 1 
latt-move-scale 1 1 1
latt-scale 1 1 1 
lattice  \
	   4.778046404744022   -2.389023202372010    0.000000000000000  \
	  -0.000000000000000    4.137909566969228    0.000000000000000  \
	   0.000000000000000    0.000000000000000   40.000000000000000 
lattice-minimize  \
	dirUpdateScheme      L-BFGS \
	linminMethod         DirUpdateRecommended \
	nIterations          10 \
	history              15 \
	knormThreshold       0 \
	energyDiffThreshold  1e-06 \
	nEnergyDiff          2 \
	alphaTstart          1 \
	alphaTmin            1e-10 \
	updateTestStepSize   yes \
	alphaTreduceFactor   0.1 \
	alphaTincreaseFactor 3 \
	nAlphaAdjustMax      3 \
	wolfeEnergy          0.0001 \
	wolfeGradient        0.9 \
	fdTest               no
lcao-params -1 1e-06 0.001
pcm-variant GLSSA13
spintype no-spin
subspace-rotation-factor 1 yes
symmetries automatic
symmetry-threshold 0.0001



---------- Setting up symmetries ----------

Found 24 point-group symmetries of the bravais lattice
Found 12 space-group symmetries with basis
Applied RMS atom displacement 1.30238e-15 bohrs to make symmetries exact.

---------- Initializing the Grid ----------
R = 
[      4.77805     -2.38902            0  ]
[            0      4.13791            0  ]
[            0            0           40  ]
unit cell volume = 790.845
G =
[    1.31501   0.759222         -0  ]
[          0    1.51844         -0  ]
[         -0         -0    0.15708  ]
Minimum fftbox size, Smin = [  20  20  164  ]
Chosen fftbox size, S = [  20  20  168  ]

---------- Exchange Correlation functional ----------
Initalized PBE GGA exchange.
Initalized PBE GGA correlation.

---------- Setting up pseudopotentials ----------
Width of ionic core gaussian charges (only for fluid interactions / plotting) set to 0

Reading pseudopotential file '/home/gridsan/aligho/DFT/build-Nov24/pseudopotentials/SG15/B_ONCV_PBE.upf':
  'B' pseudopotential, 'PBE' functional
  Generated using ONCVPSP code by D. R. Hamann
  Author: Martin Schlipf and Francois Gygi  Date: 150915.
  3 valence electrons, 2 orbitals, 4 projectors, 1534 radial grid points, with lMax = 1
  Transforming local potential to a uniform radial grid of dG=0.02 with 1477 points.
  Transforming nonlocal projectors to a uniform radial grid of dG=0.02 with 432 points.
    2S    l: 0   occupation:  2.0   eigenvalue: -0.347027
    2P    l: 1   occupation:  1.0   eigenvalue: -0.132548
  Transforming atomic orbitals to a uniform radial grid of dG=0.02 with 432 points.
  Core radius for overlap checks: 1.60 bohrs.
  Reading pulay file /home/gridsan/aligho/DFT/build-Nov24/pseudopotentials/SG15/B_ONCV_PBE.pulay ... using dE_dnG = -3.748568e-04 computed for Ecut = 20.

Reading pseudopotential file '/home/gridsan/aligho/DFT/build-Nov24/pseudopotentials/SG15/N_ONCV_PBE.upf':
  'N' pseudopotential, 'PBE' functional
  Generated using ONCVPSP code by D. R. Hamann
  Author: Martin Schlipf and Francois Gygi  Date: 150915.
  5 valence electrons, 2 orbitals, 4 projectors, 1058 radial grid points, with lMax = 1
  Transforming local potential to a uniform radial grid of dG=0.02 with 1477 points.
  Transforming nonlocal projectors to a uniform radial grid of dG=0.02 with 432 points.
    2S    l: 0   occupation:  2.0   eigenvalue: -0.682907
    2P    l: 1   occupation:  3.0   eigenvalue: -0.260548
  Transforming atomic orbitals to a uniform radial grid of dG=0.02 with 432 points.
  Core radius for overlap checks: 1.35 bohrs.
  Reading pulay file /home/gridsan/aligho/DFT/build-Nov24/pseudopotentials/SG15/N_ONCV_PBE.pulay ... using dE_dnG = -2.956256e-02 computed for Ecut = 20.

Initialized 2 species with 2 total atoms.

Folded 1 k-points by 36x36x1 to 1296 k-points.

---------- Setting up k-points, bands, fillings ----------
Adding inversion symmetry to k-mesh for non-inversion-symmetric unit cell.
Reduced to 127 k-points under symmetry. 
Computing the number of bands and number of electrons
Calculating initial fillings.
nElectrons:   8.000000   nBands: 4   nStates: 127

----- Setting up reduced wavefunction bases (one per k-point) -----
average nbasis = 3378.734 , ideal nbasis = 3378.550

---------- Setting up coulomb interaction ----------
Initialized slab truncation along lattice direction 001

---------- Setting up 2D ewald sum ----------
Optimum gaussian width for ewald sums = 2.652579 bohr.
Real space sums over 289 unit cells with max indices [  8  8  0  ]
Reciprocal space sums over 81 terms with max indices [  4  4  0  ]

---------- Allocating electronic variables ----------
Initializing wave functions:  linear combination of atomic orbitals
B pseudo-atom occupations:   s ( 2 )  p ( 1 )
N pseudo-atom occupations:   s ( 2 )  p ( 3 )
	FillingsUpdate:  mu: -0.161848327  nElectrons: 8.000000
LCAOMinimize: Iter:   0  Etot: -12.6994459956711516  |grad|_K:  3.904e-03  alpha:  1.000e+00
	FillingsUpdate:  mu: -0.179314964  nElectrons: 8.000000
LCAOMinimize: Iter:   1  Etot: -12.7334686515071809  |grad|_K:  4.143e-04  alpha:  3.762e-01  linmin: -5.142e-01  cgtest:  9.517e-01  t[s]:      5.57
LCAOMinimize: Encountered beta<0, resetting CG.
	FillingsUpdate:  mu: -0.181145086  nElectrons: 8.000000
LCAOMinimize: Iter:   2  Etot: -12.7338268081513011  |grad|_K:  1.765e-05  alpha:  4.059e-01  linmin:  7.524e-02  cgtest: -1.111e-01  t[s]:      8.52
	FillingsUpdate:  mu: -0.181342478  nElectrons: 8.000000
LCAOMinimize: Iter:   3  Etot: -12.7338283256655167  |grad|_K:  1.780e-06  alpha:  9.651e-01  linmin:  1.889e-04  cgtest:  1.510e-01  t[s]:     11.46
LCAOMinimize: Encountered beta<0, resetting CG.
LCAOMinimize: None of the convergence criteria satisfied after 3 iterations.


---- Citations for features of the code used in this run ----

   Software package:
      R. Sundararaman, K. Letchworth-Weaver, K.A. Schwarz, D. Gunceler, Y. Ozhabes and T.A. Arias, 'JDFTx: software for joint density-functional theory', SoftwareX 6, 278 (2017)

   gga-PBE exchange-correlation functional:
      J.P. Perdew, K. Burke and M. Ernzerhof, Phys. Rev. Lett. 77, 3865 (1996)

   Pseudopotentials:
      M Schlipf and F Gygi, Comput. Phys. Commun. 196, 36 (2015)

   Truncated Coulomb potentials:
      R. Sundararaman and T.A. Arias, Phys. Rev. B 87, 165122 (2013)

   Total energy minimization:
      T.A. Arias, M.C. Payne and J.D. Joannopoulos, Phys. Rev. Lett. 69, 1077 (1992)

This list may not be complete. Please suggest additional citations or
report any other bugs at https://github.com/shankar1729/jdftx/issues

Initialization completed successfully at t[s]:     11.48


--------- Lattice Minimization ---------

-------- Electronic minimization -----------
ElecMinimize: Iter:   0  Etot: -12.733828325665499  |grad|_K:  2.938e-04  alpha:  1.000e+00
ElecMinimize: Iter:   1  Etot: -12.818723325357144  |grad|_K:  1.220e-04  alpha:  5.760e-01  linmin: -4.088e-03  t[s]:     11.80
ElecMinimize: Iter:   2  Etot: -12.831247598852308  |grad|_K:  5.394e-05  alpha:  4.887e-01  linmin:  7.103e-04  t[s]:     11.98
ElecMinimize: Iter:   3  Etot: -12.834745238981728  |grad|_K:  2.542e-05  alpha:  7.007e-01  linmin:  6.522e-04  t[s]:     12.17
ElecMinimize: Iter:   4  Etot: -12.835442009076196  |grad|_K:  1.672e-05  alpha:  6.286e-01  linmin: -1.645e-04  t[s]:     12.36
ElecMinimize: Iter:   5  Etot: -12.835744324692296  |grad|_K:  8.246e-06  alpha:  6.297e-01  linmin: -2.805e-04  t[s]:     12.55
ElecMinimize: Iter:   6  Etot: -12.835827094512105  |grad|_K:  4.725e-06  alpha:  7.090e-01  linmin:  1.723e-04  t[s]:     12.73
ElecMinimize: Iter:   7  Etot: -12.835851702106456  |grad|_K:  3.045e-06  alpha:  6.421e-01  linmin:  6.746e-05  t[s]:     12.92
ElecMinimize: Iter:   8  Etot: -12.835863517112424  |grad|_K:  1.846e-06  alpha:  7.422e-01  linmin: -3.786e-05  t[s]:     13.10
ElecMinimize: Iter:   9  Etot: -12.835868176365285  |grad|_K:  1.380e-06  alpha:  7.965e-01  linmin: -8.270e-06  t[s]:     13.29
ElecMinimize: Iter:  10  Etot: -12.835870517354598  |grad|_K:  9.100e-07  alpha:  7.161e-01  linmin:  1.248e-05  t[s]:     13.47
ElecMinimize: Iter:  11  Etot: -12.835871608729764  |grad|_K:  5.868e-07  alpha:  7.677e-01  linmin: -2.594e-05  t[s]:     13.66
ElecMinimize: Iter:  12  Etot: -12.835872043445963  |grad|_K:  4.006e-07  alpha:  7.354e-01  linmin: -3.181e-05  t[s]:     13.94
ElecMinimize: Iter:  13  Etot: -12.835872236289735  |grad|_K:  2.455e-07  alpha:  7.000e-01  linmin:  3.367e-06  t[s]:     14.13
ElecMinimize: Iter:  14  Etot: -12.835872310737958  |grad|_K:  1.507e-07  alpha:  7.193e-01  linmin: -3.071e-05  t[s]:     14.31
ElecMinimize: Iter:  15  Etot: -12.835872338443590  |grad|_K:  1.025e-07  alpha:  7.106e-01  linmin:  6.282e-05  t[s]:     14.50
ElecMinimize: Iter:  16  Etot: -12.835872351280081  |grad|_K:  6.368e-08  alpha:  7.117e-01  linmin:  1.675e-04  t[s]:     14.69
ElecMinimize: Iter:  17  Etot: -12.835872356504083  |grad|_K:  4.214e-08  alpha:  7.507e-01  linmin: -2.705e-04  t[s]:     14.87
ElecMinimize: Iter:  18  Etot: -12.835872358646796  |grad|_K:  2.783e-08  alpha:  7.021e-01  linmin: -7.623e-04  t[s]:     15.06
ElecMinimize: Converged (|Delta Etot|<1.000000e-08 for 2 iters).
Setting wave functions to eigenvectors of Hamiltonian
# Lattice vectors:
R = 
[      4.77805     -2.38902            0  ]
[            0      4.13791            0  ]
[            0            0           40  ]
unit cell volume = 790.845

# Strain tensor in Cartesian coordinates:
[            0            0            0  ]
[            0            0            0  ]
[            0            0            0  ]

# Stress tensor in Cartesian coordinates [Eh/a0^3]:
[  5.71568e-05            0            0  ]
[            0  5.71568e-05            0  ]
[            0            0  2.46139e-05  ]

# Ionic positions in lattice coordinates:
ion B  -0.000000000000000   0.000000000000000   0.000000000000000 0
ion N   0.333333333333333   0.666666666666667   0.000000000000000 0

# Forces in Lattice coordinates:
force B   0.000000000000000   0.000000000000000   0.000000000000000 0
force N  -0.000000000000000   0.000000000000000   0.000000000000000 0

# Energy components:
   Eewald =      -19.8326831957593299
       EH =       -9.7198413351752002
     Eloc =       11.9518677929958468
      Enl =       -0.5875179524861041
   Epulay =        0.0000069604403275
      Exc =       -3.6615213838854004
       KE =        9.0138167552230648
-------------------------------------
     Etot =      -12.8358723586467960


Dumping 'hBN.ionpos' ... done
Dumping 'hBN.lattice' ... done
LatticeMinimize: Iter:   0  Etot: -12.835872358646796  |grad|_K:  6.913e-03  t[s]:     15.26

#--- Lowdin population analysis ---
# oxidation-state B +0.446
# oxidation-state N -0.377


-------- Electronic minimization -----------
ElecMinimize: Iter:   0  Etot: -12.835918586668011  |grad|_K:  4.477e-07  alpha:  1.000e+00
ElecMinimize: Iter:   1  Etot: -12.835918774631041  |grad|_K:  2.481e-07  alpha:  5.462e-01  linmin:  2.563e-06  t[s]:     15.66
ElecMinimize: Iter:   2  Etot: -12.835918836243886  |grad|_K:  1.188e-07  alpha:  5.831e-01  linmin:  2.104e-05  t[s]:     15.84
ElecMinimize: Iter:   3  Etot: -12.835918853178278  |grad|_K:  5.524e-08  alpha:  6.995e-01  linmin:  2.272e-04  t[s]:     16.03
ElecMinimize: Iter:   4  Etot: -12.835918856149487  |grad|_K:  3.475e-08  alpha:  5.680e-01  linmin: -9.081e-05  t[s]:     16.22
ElecMinimize: Iter:   5  Etot: -12.835918857558372  |grad|_K:  1.870e-08  alpha:  6.791e-01  linmin: -8.044e-04  t[s]:     16.41
ElecMinimize: Converged (|Delta Etot|<1.000000e-08 for 2 iters).
Setting wave functions to eigenvectors of Hamiltonian
LatticeMinimize: 	Wolfe criterion not satisfied: alpha: 1  (E-E0)/|gdotd0|: -0.973095  gdotd/gdotd0: 0.939583 (taking cubic step)

-------- Electronic minimization -----------
ElecMinimize: Iter:   0  Etot: -12.836001654679174  |grad|_K:  8.956e-07  alpha:  1.000e+00
ElecMinimize: Iter:   1  Etot: -12.836002403412460  |grad|_K:  4.941e-07  alpha:  5.438e-01  linmin:  1.112e-05  t[s]:     16.96
ElecMinimize: Iter:   2  Etot: -12.836002647382454  |grad|_K:  2.354e-07  alpha:  5.823e-01  linmin: -4.670e-06  t[s]:     17.17
ElecMinimize: Iter:   3  Etot: -12.836002714995088  |grad|_K:  1.109e-07  alpha:  7.108e-01  linmin:  1.349e-05  t[s]:     17.37
ElecMinimize: Iter:   4  Etot: -12.836002727162425  |grad|_K:  7.037e-08  alpha:  5.767e-01  linmin: -2.216e-04  t[s]:     17.57
ElecMinimize: Iter:   5  Etot: -12.836002732934766  |grad|_K:  3.820e-08  alpha:  6.792e-01  linmin:  1.856e-04  t[s]:     17.76
ElecMinimize: Iter:   6  Etot: -12.836002735155731  |grad|_K:  2.848e-08  alpha:  8.893e-01  linmin:  2.021e-03  t[s]:     17.95
ElecMinimize: Converged (|Delta Etot|<1.000000e-08 for 2 iters).
Setting wave functions to eigenvectors of Hamiltonian
# Lattice vectors:
R = 
[      4.77047     -2.38524            0  ]
[            0      4.13135            0  ]
[            0            0           40  ]
unit cell volume = 788.34

# Strain tensor in Cartesian coordinates:
[  -0.00158514            0            0  ]
[            0  -0.00158514            0  ]
[            0            0            0  ]

# Stress tensor in Cartesian coordinates [Eh/a0^3]:
[  4.69138e-05            0            0  ]
[            0  4.69138e-05            0  ]
[            0            0  2.37735e-05  ]

# Ionic positions in lattice coordinates:
ion B  -0.000000000000000   0.000000000000000   0.000000000000000 0
ion N   0.333333333333333   0.666666666666667   0.000000000000000 0

# Forces in Lattice coordinates:
force B   0.000000000000000  -0.000000000000000   0.000000000000000 0
force N  -0.000000000000000  -0.000000000000000   0.000000000000000 0

# Energy components:
   Eewald =      -19.8641706107928755
       EH =       -9.7513583146187788
     Eloc =       12.0069911776941272
      Enl =       -0.5906481905289493
   Epulay =        0.0004134104672536
      Exc =       -3.6645824124329893
       KE =        9.0273522050564807
-------------------------------------
     Etot =      -12.8360027351557306


Dumping 'hBN.ionpos' ... done
Dumping 'hBN.lattice' ... done
LatticeMinimize: Iter:   1  Etot: -12.836002735155731  |grad|_K:  5.656e-03  alpha:  3.000e+00  linmin: -9.414e-01  t[s]:     18.14

#--- Lowdin population analysis ---
# oxidation-state B +0.447
# oxidation-state N -0.377


-------- Electronic minimization -----------
ElecMinimize: Iter:   0  Etot: -12.836215001456249  |grad|_K:  6.059e-06  alpha:  1.000e+00
ElecMinimize: Iter:   1  Etot: -12.836248875412704  |grad|_K:  3.321e-06  alpha:  5.377e-01  linmin:  7.376e-05  t[s]:     18.52
ElecMinimize: Iter:   2  Etot: -12.836259801768581  |grad|_K:  1.573e-06  alpha:  5.773e-01  linmin: -1.731e-05  t[s]:     18.71
ElecMinimize: Iter:   3  Etot: -12.836262738200634  |grad|_K:  7.261e-07  alpha:  6.913e-01  linmin:  6.471e-06  t[s]:     18.90
ElecMinimize: Iter:   4  Etot: -12.836263245756253  |grad|_K:  4.509e-07  alpha:  5.609e-01  linmin:  3.311e-06  t[s]:     19.10
ElecMinimize: Iter:   5  Etot: -12.836263481143266  |grad|_K:  2.406e-07  alpha:  6.743e-01  linmin: -1.004e-05  t[s]:     19.29
ElecMinimize: Iter:   6  Etot: -12.836263566726275  |grad|_K:  1.771e-07  alpha:  8.611e-01  linmin:  2.195e-05  t[s]:     19.48
ElecMinimize: Iter:   7  Etot: -12.836263601304495  |grad|_K:  1.168e-07  alpha:  6.424e-01  linmin: -3.628e-05  t[s]:     19.67
ElecMinimize: Iter:   8  Etot: -12.836263620154185  |grad|_K:  7.695e-08  alpha:  8.044e-01  linmin:  5.004e-05  t[s]:     19.85
ElecMinimize: Iter:   9  Etot: -12.836263628091995  |grad|_K:  4.950e-08  alpha:  7.807e-01  linmin: -1.998e-04  t[s]:     20.04
ElecMinimize: Iter:  10  Etot: -12.836263630572693  |grad|_K:  2.925e-08  alpha:  5.895e-01  linmin: -5.896e-04  t[s]:     20.23
ElecMinimize: Converged (|Delta Etot|<1.000000e-08 for 2 iters).
Setting wave functions to eigenvectors of Hamiltonian
# Lattice vectors:
R = 
[      4.73682     -2.36841            0  ]
[            0      4.10221            0  ]
[            0            0           40  ]
unit cell volume = 777.258

# Strain tensor in Cartesian coordinates:
[  -0.00862755            0            0  ]
[            0  -0.00862755            0  ]
[            0            0            0  ]

# Stress tensor in Cartesian coordinates [Eh/a0^3]:
[ -3.88338e-07            0            0  ]
[            0 -3.88338e-07            0  ]
[            0            0  1.98788e-05  ]

# Ionic positions in lattice coordinates:
ion B  -0.000000000000000   0.000000000000000   0.000000000000000 0
ion N   0.333333333333333   0.666666666666667   0.000000000000000 0

# Forces in Lattice coordinates:
force B  -0.000000000000000  -0.000000000000000   0.000000000000000 0
force N   0.000000000000000   0.000000000000000   0.000000000000000 0

# Energy components:
   Eewald =      -20.0052797021477566
       EH =       -9.8929678372420096
     Eloc =       12.2544233500469488
      Enl =       -0.6045349909143161
   Epulay =        0.0022428131156923
      Exc =       -3.6782972082517977
       KE =        9.0881499448205449
-------------------------------------
     Etot =      -12.8362636305726934


Dumping 'hBN.ionpos' ... done
Dumping 'hBN.lattice' ... done
LatticeMinimize: Iter:   2  Etot: -12.836263630572693  |grad|_K:  4.616e-05  alpha:  1.000e+00  linmin:  2.762e-02  t[s]:     20.43

#--- Lowdin population analysis ---
# oxidation-state B +0.448
# oxidation-state N -0.378


-------- Electronic minimization -----------
ElecMinimize: Iter:   0  Etot: -12.836263493321352  |grad|_K:  5.615e-08  alpha:  1.000e+00
ElecMinimize: Iter:   1  Etot: -12.836263496208934  |grad|_K:  3.320e-08  alpha:  5.333e-01  linmin: -5.759e-04  t[s]:     20.81
ElecMinimize: Iter:   2  Etot: -12.836263497433812  |grad|_K:  1.896e-08  alpha:  6.438e-01  linmin: -5.919e-03  t[s]:     21.00
ElecMinimize: Converged (|Delta Etot|<1.000000e-08 for 2 iters).
Setting wave functions to eigenvectors of Hamiltonian
LatticeMinimize: 	Wolfe criterion not satisfied: alpha: 1  (E-E0)/|gdotd0|: 3.95179  gdotd/gdotd0: 0.0226414 (taking cubic step)

-------- Electronic minimization -----------
ElecMinimize: Iter:   0  Etot: -12.836263478578243  |grad|_K:  5.261e-08  alpha:  1.000e+00
ElecMinimize: Iter:   1  Etot: -12.836263481204711  |grad|_K:  2.412e-08  alpha:  5.524e-01  linmin:  8.360e-04  t[s]:     21.54
ElecMinimize: Iter:   2  Etot: -12.836263481751470  |grad|_K:  1.362e-08  alpha:  5.461e-01  linmin: -3.876e-03  t[s]:     21.73
ElecMinimize: Converged (|Delta Etot|<1.000000e-08 for 2 iters).
Setting wave functions to eigenvectors of Hamiltonian
LatticeMinimize: 	Wolfe criterion not satisfied: alpha: 0.0373759  (E-E0)/|gdotd0|: 4.41727  gdotd/gdotd0: 0.975677 (taking cubic step)

-------- Electronic minimization -----------
ElecMinimize: Iter:   0  Etot: -12.836263632049707  |grad|_K:  1.393e-08  alpha:  1.000e+00
ElecMinimize: Iter:   1  Etot: -12.836263632224371  |grad|_K:  9.839e-09  alpha:  5.352e-01  linmin: -1.032e-02  t[s]:     22.29
ElecMinimize: Iter:   2  Etot: -12.836263632378964  |grad|_K:  8.066e-09  alpha:  9.364e-01  linmin:  1.759e-02  t[s]:     22.48
ElecMinimize: Converged (|Delta Etot|<1.000000e-08 for 2 iters).
Setting wave functions to eigenvectors of Hamiltonian
LatticeMinimize: 	Wolfe criterion not satisfied: alpha: 5.23429e-05  (E-E0)/|gdotd0|: -0.0536133  gdotd/gdotd0: 1.01694 (taking cubic step)

-------- Electronic minimization -----------
ElecMinimize: Iter:   0  Etot: -12.836263480818982  |grad|_K:  8.073e-09  alpha:  1.000e+00
ElecMinimize: Iter:   1  Etot: -12.836263480876394  |grad|_K:  4.953e-09  alpha:  5.184e-01  linmin: -1.471e-03  t[s]:     23.04
ElecMinimize: Iter:   2  Etot: -12.836263480909736  |grad|_K:  5.177e-09  alpha:  8.111e-01  linmin:  2.486e-02  t[s]:     23.23
ElecMinimize: Converged (|Delta Etot|<1.000000e-08 for 2 iters).
Setting wave functions to eigenvectors of Hamiltonian
LatticeMinimize: 	Wolfe criterion not satisfied: alpha: 5.23516e-05  (E-E0)/|gdotd0|: 4.44226  gdotd/gdotd0: 1.00281 (taking cubic step)

-------- Electronic minimization -----------
ElecMinimize: Iter:   0  Etot: -12.836263632470070  |grad|_K:  5.186e-09  alpha:  1.000e+00
ElecMinimize: Iter:   1  Etot: -12.836263632491757  |grad|_K:  3.298e-09  alpha:  4.781e-01  linmin: -3.412e-02  t[s]:     23.78
ElecMinimize: Iter:   2  Etot: -12.836263632509951  |grad|_K:  3.736e-09  alpha:  9.663e-01  linmin:  2.770e-02  t[s]:     24.03
ElecMinimize: Converged (|Delta Etot|<1.000000e-08 for 2 iters).
Setting wave functions to eigenvectors of Hamiltonian
# Lattice vectors:
R = 
[      4.73682     -2.36841            0  ]
[            0      4.10221            0  ]
[            0            0           40  ]
unit cell volume = 777.258

# Strain tensor in Cartesian coordinates:
[  -0.00862755            0            0  ]
[            0  -0.00862755            0  ]
[            0            0            0  ]

# Stress tensor in Cartesian coordinates [Eh/a0^3]:
[ -3.93184e-07            0            0  ]
[            0 -3.93184e-07            0  ]
[            0            0  1.98735e-05  ]

# Ionic positions in lattice coordinates:
ion B  -0.000000000000000   0.000000000000000   0.000000000000000 0
ion N   0.333333333333333   0.666666666666667   0.000000000000000 0

# Forces in Lattice coordinates:
force B   0.000000000000000   0.000000000000000   0.000000000000000 0
force N   0.000000000000000   0.000000000000000   0.000000000000000 0

# Energy components:
   Eewald =      -20.0052797037757415
       EH =       -9.8929592762878968
     Eloc =       12.2544085226888519
      Enl =       -0.6045353744422549
   Epulay =        0.0022428131368729
      Exc =       -3.6782978353517990
       KE =        9.0881572215220139
-------------------------------------
     Etot =      -12.8362636325099508


Dumping 'hBN.ionpos' ... done
Dumping 'hBN.lattice' ... done
LatticeMinimize: Iter:   3  Etot: -12.836263632509951  |grad|_K:  4.674e-05  alpha:  5.234e-05  linmin: -2.797e-02  t[s]:     24.23

#--- Lowdin population analysis ---
# oxidation-state B +0.448
# oxidation-state N -0.378


-------- Electronic minimization -----------
ElecMinimize: Iter:   0  Etot: -12.836263481607034  |grad|_K:  3.420e-09  alpha:  1.000e+00
ElecMinimize: Iter:   1  Etot: -12.836263481619460  |grad|_K:  2.630e-09  alpha:  5.885e-01  linmin:  1.687e-01  t[s]:     24.62
ElecMinimize: Iter:   2  Etot: -12.836263481624787  |grad|_K:  3.901e-09  alpha:  1.182e+00  linmin:  1.989e-01  t[s]:     24.80
ElecMinimize: Converged (|Delta Etot|<1.000000e-08 for 2 iters).
Setting wave functions to eigenvectors of Hamiltonian
LatticeMinimize: 	Wolfe criterion not satisfied: alpha: 1  (E-E0)/|gdotd0|: 225.544  gdotd/gdotd0: 0.971212 (taking cubic step)

-------- Electronic minimization -----------
ElecMinimize: Iter:   0  Etot: -12.836263480968134  |grad|_K:  3.758e-09  alpha:  1.000e+00
ElecMinimize: Iter:   1  Etot: -12.836263480978165  |grad|_K:  1.606e-09  alpha:  3.601e-01  linmin: -3.987e-02  t[s]:     25.35
ElecMinimize: 	Step increased Etot by 3.339551e-13, reducing alpha to 2.505786e-02.
ElecMinimize: 	Step increased Etot by 2.149392e-13, reducing alpha to 2.505786e-03.
ElecMinimize: 	Step increased Etot by 5.755396e-13, reducing alpha to 2.505786e-04.
ElecMinimize: 	Step failed to reduce Etot after 3 attempts. Quitting step.
ElecMinimize: 	Undoing step.
ElecMinimize: 	Step failed: resetting search direction.
ElecMinimize: Iter:   2  Etot: -12.836263480977625  |grad|_K:  1.600e-09  alpha:  2.506e-04
ElecMinimize: 	Step increased Etot by 1.982414e-12, reducing alpha to 1.999649e-02.
ElecMinimize: 	Step increased Etot by 2.096101e-13, reducing alpha to 1.999649e-03.
ElecMinimize: Iter:   3  Etot: -12.836263480978005  |grad|_K:  1.595e-09  alpha:  2.000e-03  linmin: -6.964e-01  t[s]:     26.26
ElecMinimize: 	Wrong curvature in test step, increasing alphaT to 5.998946e-03.
ElecMinimize: Iter:   4  Etot: -12.836263480978850  |grad|_K:  1.583e-09  alpha: -4.301e-05  linmin: -6.962e-01  t[s]:     26.44
ElecMinimize: Converged (|Delta Etot|<1.000000e-08 for 2 iters).
Setting wave functions to eigenvectors of Hamiltonian
LatticeMinimize: 	Wolfe criterion not satisfied: alpha: 0.000736264  (E-E0)/|gdotd0|: 226.51  gdotd/gdotd0: 0.994573 (taking cubic step)

-------- Electronic minimization -----------
ElecMinimize: Iter:   0  Etot: -12.836263480976797  |grad|_K:  1.583e-09  alpha:  1.000e+00
ElecMinimize: Iter:   1  Etot: -12.836263480977369  |grad|_K:  1.140e-09  alpha:  4.618e-01  linmin: -1.706e-01  t[s]:     26.99
ElecMinimize: Iter:   2  Etot: -12.836263480979344  |grad|_K:  8.896e-10  alpha:  3.622e-01  linmin: -7.110e-01  t[s]:     27.17
ElecMinimize: Converged (|Delta Etot|<1.000000e-08 for 2 iters).
Setting wave functions to eigenvectors of Hamiltonian
LatticeMinimize: 	Wolfe criterion not satisfied: alpha: 3.98866e-10  (E-E0)/|gdotd0|: 226.509  gdotd/gdotd0: 0.995974 (taking cubic step)

-------- Electronic minimization -----------
ElecMinimize: Iter:   0  Etot: -12.836263480979298  |grad|_K:  8.896e-10  alpha:  1.000e+00
ElecMinimize: 	Step increased Etot by 6.075140e-13, reducing alpha to 4.474561e-02.
ElecMinimize: 	Step increased Etot by 1.538325e-12, reducing alpha to 4.474561e-03.
ElecMinimize: 	Step increased Etot by 3.268497e-13, reducing alpha to 4.474561e-04.
ElecMinimize: 	Step failed to reduce Etot after 3 attempts. Quitting step.
ElecMinimize: 	Undoing step.
ElecMinimize: 	Step failed along negative gradient direction.
ElecMinimize: Probably at roundoff error limit. (Stopping)
Setting wave functions to eigenvectors of Hamiltonian
LatticeMinimize: 	Wolfe criterion not satisfied: alpha: 1.17062e-22  (E-E0)/|gdotd0|: 226.51  gdotd/gdotd0: 0.995969 (taking cubic step)

-------- Electronic minimization -----------
ElecMinimize: Iter:   0  Etot: -12.836263480978669  |grad|_K:  8.858e-10  alpha:  1.000e+00
ElecMinimize: 	Step increased Etot by 1.943334e-12, reducing alpha to 6.721404e-02.
ElecMinimize: 	Step increased Etot by 9.876544e-13, reducing alpha to 6.721404e-03.
ElecMinimize: Iter:   1  Etot: -12.836263480978694  |grad|_K:  8.795e-10  alpha:  6.721e-03  linmin: -7.975e-01  t[s]:     28.85
ElecMinimize: 	Wrong curvature in test step, increasing alphaT to 2.016421e-02.
ElecMinimize: Iter:   2  Etot: -12.836263480979342  |grad|_K:  8.676e-10  alpha: -1.951e-04  linmin: -7.981e-01  t[s]:     29.03
ElecMinimize: Converged (|Delta Etot|<1.000000e-08 for 2 iters).
Setting wave functions to eigenvectors of Hamiltonian
LatticeMinimize: 	Undoing step.

-------- Electronic minimization -----------
ElecMinimize: Iter:   0  Etot: -12.836263480979342  |grad|_K:  8.676e-10  alpha:  1.000e+00
ElecMinimize: 	Step increased Etot by 1.049827e-12, reducing alpha to 2.636518e-02.
ElecMinimize: 	Step increased Etot by 1.582734e-12, reducing alpha to 2.636518e-03.
ElecMinimize: 	Step increased Etot by 6.981082e-13, reducing alpha to 2.636518e-04.
ElecMinimize: 	Step failed to reduce Etot after 3 attempts. Quitting step.
ElecMinimize: 	Undoing step.
ElecMinimize: 	Step failed along negative gradient direction.
ElecMinimize: Probably at roundoff error limit. (Stopping)
Setting wave functions to eigenvectors of Hamiltonian
LatticeMinimize: 	Step failed: resetting history.
# Lattice vectors:
R = 
[      4.73682     -2.36841            0  ]
[            0      4.10221            0  ]
[            0            0           40  ]
unit cell volume = 777.258

# Strain tensor in Cartesian coordinates:
[  -0.00862755            0            0  ]
[            0  -0.00862755            0  ]
[            0            0            0  ]

# Stress tensor in Cartesian coordinates [Eh/a0^3]:
[ -3.91588e-07            0            0  ]
[            0 -3.91588e-07            0  ]
[            0            0  1.98696e-05  ]

# Ionic positions in lattice coordinates:
ion B  -0.000000000000000   0.000000000000000   0.000000000000000 0
ion N   0.333333333333333   0.666666666666667   0.000000000000000 0

# Forces in Lattice coordinates:
force B   0.000000000000000   0.000000000000000   0.000000000000000 0
force N  -0.000000000000000   0.000000000000000   0.000000000000000 0

# Energy components:
   Eewald =      -20.0052797037996868
       EH =       -9.8929586311262252
     Eloc =       12.2544080135641256
      Enl =       -0.6045351321765753
   Epulay =        0.0022428131371844
      Exc =       -3.6782978575873226
       KE =        9.0881570170092445
-------------------------------------
     Etot =      -12.8362634809792624


Dumping 'hBN.ionpos' ... done
Dumping 'hBN.lattice' ... done
LatticeMinimize: Iter:   4  Etot: -12.836263480979262  |grad|_K:  4.655e-05  alpha:  1.008e-47  t[s]:     30.09

#--- Lowdin population analysis ---
# oxidation-state B +0.448
# oxidation-state N -0.378


-------- Electronic minimization -----------
ElecMinimize: Iter:   0  Etot: -12.836263597647743  |grad|_K:  2.937e-09  alpha:  1.000e+00
ElecMinimize: Iter:   1  Etot: -12.836263597658732  |grad|_K:  1.790e-09  alpha:  5.661e-01  linmin:  4.532e-02  t[s]:     30.46
ElecMinimize: 	Step increased Etot by 2.422951e-12, reducing alpha to 1.236436e-01.
ElecMinimize: 	Step increased Etot by 6.465939e-13, reducing alpha to 1.236436e-02.
ElecMinimize: Iter:   2  Etot: -12.836263597659123  |grad|_K:  1.754e-09  alpha:  1.236e-02  linmin: -6.834e-01  t[s]:     30.87
ElecMinimize: Converged (|Delta Etot|<1.000000e-08 for 2 iters).
Setting wave functions to eigenvectors of Hamiltonian
LatticeMinimize: 	Wolfe criterion not satisfied: alpha: 1  (E-E0)/|gdotd0|: -53.8564  gdotd/gdotd0: 0.935692 (taking cubic step)

-------- Electronic minimization -----------
ElecMinimize: Iter:   0  Etot: -12.836263483082302  |grad|_K:  1.750e-09  alpha:  1.000e+00
ElecMinimize: Iter:   1  Etot: -12.836263483085006  |grad|_K:  9.537e-10  alpha:  3.880e-01  linmin: -1.907e-01  t[s]:     31.42
ElecMinimize: 	Step increased Etot by 6.750156e-13, reducing alpha to 3.839261e-02.
ElecMinimize: 	Step increased Etot by 1.815437e-12, reducing alpha to 3.839261e-03.
ElecMinimize: Iter:   2  Etot: -12.836263483085112  |grad|_K:  9.514e-10  alpha:  3.839e-03  linmin: -7.672e-01  t[s]:     31.82
ElecMinimize: Converged (|Delta Etot|<1.000000e-08 for 2 iters).
Setting wave functions to eigenvectors of Hamiltonian
LatticeMinimize: 	Wolfe criterion not satisfied: alpha: 1.00294  (E-E0)/|gdotd0|: -0.972006  gdotd/gdotd0: 0.935155 (taking cubic step)

-------- Electronic minimization -----------
ElecMinimize: Iter:   0  Etot: -12.836263634637980  |grad|_K:  9.494e-10  alpha:  1.000e+00
ElecMinimize: Iter:   1  Etot: -12.836263634638929  |grad|_K:  7.099e-10  alpha:  4.351e-01  linmin: -5.974e-01  t[s]:     32.38
ElecMinimize: 	Wrong curvature in test step, increasing alphaT to 1.305184e+00.
ElecMinimize: Iter:   2  Etot: -12.836263634640456  |grad|_K:  5.553e-10  alpha: -6.523e-01  linmin: -7.011e-01  t[s]:     32.56
ElecMinimize: Converged (|Delta Etot|<1.000000e-08 for 2 iters).
Setting wave functions to eigenvectors of Hamiltonian
LatticeMinimize: 	Wolfe criterion not satisfied: alpha: 1  (E-E0)/|gdotd0|: -70.926  gdotd/gdotd0: 0.935765 (taking cubic step)

-------- Electronic minimization -----------
ElecMinimize: Iter:   0  Etot: -12.836263634640485  |grad|_K:  5.553e-10  alpha:  1.000e+00
ElecMinimize: Iter:   1  Etot: -12.836263634640838  |grad|_K:  2.102e-09  alpha:  2.709e+00  linmin:  2.892e-01  t[s]:     33.11
ElecMinimize: 	Bad step direction: g.d > 0.
ElecMinimize: 	Undoing step.
ElecMinimize: 	Step failed: resetting search direction.
ElecMinimize: Iter:   2  Etot: -12.836263634640817  |grad|_K:  2.102e-09  alpha:  0.000e+00
ElecMinimize: Iter:   3  Etot: -12.836263634643203  |grad|_K:  2.655e-10  alpha:  2.925e-01  linmin: -2.763e-02  t[s]:     33.42
ElecMinimize: Iter:   4  Etot: -12.836263634643867  |grad|_K:  2.641e-10  alpha:  6.474e-03  linmin: -8.325e-01  t[s]:     33.61
ElecMinimize: Converged (|Delta Etot|<1.000000e-08 for 2 iters).
Setting wave functions to eigenvectors of Hamiltonian
LatticeMinimize: 	Wolfe criterion not satisfied: alpha: 1  (E-E0)/|gdotd0|: -70.9276  gdotd/gdotd0: 0.936454 (taking cubic step)

-------- Electronic minimization -----------
ElecMinimize: Iter:   0  Etot: -12.836263634643847  |grad|_K:  2.641e-10  alpha:  1.000e+00
ElecMinimize: 	Step increased Etot by 1.820766e-12, reducing alpha to 3.509833e-03.
ElecMinimize: 	Step increased Etot by 5.808687e-13, reducing alpha to 3.509833e-04.
ElecMinimize: Iter:   1  Etot: -12.836263634644524  |grad|_K:  2.641e-10  alpha:  3.510e-04  linmin: -8.253e-01  t[s]:     34.45
ElecMinimize: Iter:   2  Etot: -12.836263634644546  |grad|_K:  2.641e-10  alpha:  2.207e-08  linmin: -8.254e-01  t[s]:     34.64
ElecMinimize: Converged (|Delta Etot|<1.000000e-08 for 2 iters).
Setting wave functions to eigenvectors of Hamiltonian
# Lattice vectors:
R = 
[      4.73684     -2.36842            0  ]
[            0      4.10222            0  ]
[            0            0           40  ]
unit cell volume = 777.263

# Strain tensor in Cartesian coordinates:
[  -0.00862402            0            0  ]
[            0  -0.00862402            0  ]
[            0            0            0  ]

# Stress tensor in Cartesian coordinates [Eh/a0^3]:
[ -3.66702e-07            0            0  ]
[            0 -3.66702e-07            0  ]
[            0            0  1.98717e-05  ]

# Ionic positions in lattice coordinates:
ion B  -0.000000000000000   0.000000000000000   0.000000000000000 0
ion N   0.333333333333333   0.666666666666667   0.000000000000000 0

# Forces in Lattice coordinates:
force B   0.000000000000000  -0.000000000000000   0.000000000000000 0
force N   0.000000000000000   0.000000000000000   0.000000000000000 0

# Energy components:
   Eewald =      -20.0052085043095857
       EH =       -9.8928872374449579
     Eloc =       12.2542831195123298
      Enl =       -0.6045282255635988
   Epulay =        0.0022418868091787
      Exc =       -3.6782908510180325
       KE =        9.0881261773701212
-------------------------------------
     Etot =      -12.8362636346445456


Dumping 'hBN.ionpos' ... done
Dumping 'hBN.lattice' ... done
LatticeMinimize: Iter:   5  Etot: -12.836263634644546  |grad|_K:  4.359e-05  alpha:  1.000e+00  linmin: -2.609e-02  t[s]:     34.82

#--- Lowdin population analysis ---
# oxidation-state B +0.448
# oxidation-state N -0.378


-------- Electronic minimization -----------
ElecMinimize: Iter:   0  Etot: -12.836263495690991  |grad|_K:  4.446e-08  alpha:  1.000e+00
ElecMinimize: Iter:   1  Etot: -12.836263497507975  |grad|_K:  2.428e-08  alpha:  5.349e-01  linmin: -1.521e-04  t[s]:     35.19
ElecMinimize: Iter:   2  Etot: -12.836263498090901  |grad|_K:  1.149e-08  alpha:  5.780e-01  linmin:  1.833e-03  t[s]:     35.39
ElecMinimize: Converged (|Delta Etot|<1.000000e-08 for 2 iters).
Setting wave functions to eigenvectors of Hamiltonian
LatticeMinimize: 	Wolfe criterion not satisfied: alpha: 1  (E-E0)/|gdotd0|: 4.62075  gdotd/gdotd0: 0.0207256 (taking cubic step)

-------- Electronic minimization -----------
ElecMinimize: Iter:   0  Etot: -12.836263481763989  |grad|_K:  4.457e-08  alpha:  1.000e+00
ElecMinimize: Iter:   1  Etot: -12.836263483596454  |grad|_K:  1.900e-08  alpha:  5.369e-01  linmin:  6.329e-04  t[s]:     35.96
ElecMinimize: Iter:   2  Etot: -12.836263483914086  |grad|_K:  8.906e-09  alpha:  5.091e-01  linmin: -1.614e-03  t[s]:     36.16
ElecMinimize: Converged (|Delta Etot|<1.000000e-08 for 2 iters).
Setting wave functions to eigenvectors of Hamiltonian
LatticeMinimize: 	Wolfe criterion not satisfied: alpha: 0.0325042  (E-E0)/|gdotd0|: 5.10047  gdotd/gdotd0: 0.974959 (taking cubic step)

-------- Electronic minimization -----------
ElecMinimize: Iter:   0  Etot: -12.836263482946718  |grad|_K:  9.371e-09  alpha:  1.000e+00
ElecMinimize: Iter:   1  Etot: -12.836263483027460  |grad|_K:  5.940e-09  alpha:  5.335e-01  linmin:  1.300e-02  t[s]:     36.71
ElecMinimize: Iter:   2  Etot: -12.836263483068553  |grad|_K:  3.068e-09  alpha:  7.076e-01  linmin:  5.379e-02  t[s]:     36.90
ElecMinimize: Converged (|Delta Etot|<1.000000e-08 for 2 iters).
Setting wave functions to eigenvectors of Hamiltonian
LatticeMinimize: 	Wolfe criterion not satisfied: alpha: 3.43433e-05  (E-E0)/|gdotd0|: 5.12908  gdotd/gdotd0: 1.00772 (taking cubic step)

-------- Electronic minimization -----------
ElecMinimize: Iter:   0  Etot: -12.836263483065897  |grad|_K:  3.069e-09  alpha:  1.000e+00
ElecMinimize: Iter:   1  Etot: -12.836263483076948  |grad|_K:  1.601e-09  alpha:  5.272e-01  linmin:  2.002e-01  t[s]:     37.46
ElecMinimize: Iter:   2  Etot: -12.836263483079261  |grad|_K:  8.903e-10  alpha:  3.006e-01  linmin: -5.192e-01  t[s]:     37.66
ElecMinimize: Converged (|Delta Etot|<1.000000e-08 for 2 iters).
Setting wave functions to eigenvectors of Hamiltonian
LatticeMinimize: 	Wolfe criterion not satisfied: alpha: 3.83257e-11  (E-E0)/|gdotd0|: 5.12872  gdotd/gdotd0: 1.00081 (taking cubic step)

-------- Electronic minimization -----------
ElecMinimize: Iter:   0  Etot: -12.836263634638788  |grad|_K:  8.954e-10  alpha:  1.000e+00
ElecMinimize: Iter:   1  Etot: -12.836263634639216  |grad|_K:  5.964e-10  alpha:  4.083e-01  linmin: -6.495e-01  t[s]:     38.20
ElecMinimize: 	Step increased Etot by 6.412648e-13, reducing alpha to 9.355576e-03.
ElecMinimize: 	Step increased Etot by 1.669775e-13, reducing alpha to 9.355576e-04.
ElecMinimize: 	Step increased Etot by 1.332268e-12, reducing alpha to 9.355576e-05.
ElecMinimize: 	Step failed to reduce Etot after 3 attempts. Quitting step.
ElecMinimize: 	Undoing step.
ElecMinimize: 	Step failed: resetting search direction.
ElecMinimize: Iter:   2  Etot: -12.836263634638534  |grad|_K:  5.960e-10  alpha:  9.356e-05
ElecMinimize: Iter:   3  Etot: -12.836263634638561  |grad|_K:  5.823e-10  alpha:  3.565e-02  linmin: -8.522e-01  t[s]:     38.88
ElecMinimize: 	Step increased Etot by 2.771117e-13, reducing alpha to 1.095941e-04.
ElecMinimize: Iter:   4  Etot: -12.836263634638575  |grad|_K:  5.822e-10  alpha:  1.096e-04  linmin: -8.518e-01  t[s]:     39.18
ElecMinimize: Converged (|Delta Etot|<1.000000e-08 for 2 iters).
Setting wave functions to eigenvectors of Hamiltonian
LatticeMinimize: 	Undoing step.

-------- Electronic minimization -----------
ElecMinimize: Iter:   0  Etot: -12.836263634638575  |grad|_K:  5.822e-10  alpha:  1.000e+00
ElecMinimize: Iter:   1  Etot: -12.836263634641455  |grad|_K:  4.902e-10  alpha:  1.085e+00  linmin: -3.183e-01  t[s]:     39.72
ElecMinimize: Iter:   2  Etot: -12.836263634641615  |grad|_K:  2.626e-10  alpha:  5.403e-01  linmin: -2.502e-01  t[s]:     39.91
ElecMinimize: Converged (|Delta Etot|<1.000000e-08 for 2 iters).
Setting wave functions to eigenvectors of Hamiltonian
LatticeMinimize: 	Step failed: resetting history.
# Lattice vectors:
R = 
[      4.73684     -2.36842            0  ]
[            0      4.10222            0  ]
[            0            0           40  ]
unit cell volume = 777.263

# Strain tensor in Cartesian coordinates:
[  -0.00862402            0            0  ]
[            0  -0.00862402            0  ]
[            0            0            0  ]

# Stress tensor in Cartesian coordinates [Eh/a0^3]:
[ -3.66716e-07            0            0  ]
[            0 -3.66716e-07            0  ]
[            0            0  1.98718e-05  ]

# Ionic positions in lattice coordinates:
ion B  -0.000000000000000   0.000000000000000   0.000000000000000 0
ion N   0.333333333333333   0.666666666666667   0.000000000000000 0

# Forces in Lattice coordinates:
force B   0.000000000000000   0.000000000000000   0.000000000000000 0
force N   0.000000000000000   0.000000000000000   0.000000000000000 0

# Energy components:
   Eewald =      -20.0052085563841260
       EH =       -9.8928870869714665
     Eloc =       12.2542829531223010
      Enl =       -0.6045283703226237
   Epulay =        0.0022418874866839
      Exc =       -3.6782908789194990
       KE =        9.0881264173471124
-------------------------------------
     Etot =      -12.8362636346416146


Dumping 'hBN.ionpos' ... done
Dumping 'hBN.lattice' ... done
LatticeMinimize: Iter:   6  Etot: -12.836263634641615  |grad|_K:  4.359e-05  alpha:  4.773e-23  t[s]:     40.11

#--- Lowdin population analysis ---
# oxidation-state B +0.448
# oxidation-state N -0.378


-------- Electronic minimization -----------
ElecMinimize: Iter:   0  Etot: -12.836263484911019  |grad|_K:  2.762e-09  alpha:  1.000e+00
ElecMinimize: Iter:   1  Etot: -12.836263484916307  |grad|_K:  1.432e-09  alpha:  5.192e-01  linmin: -7.935e-02  t[s]:     40.49
ElecMinimize: Iter:   2  Etot: -12.836263484916472  |grad|_K:  1.460e-09  alpha:  9.855e-01  linmin:  3.953e-01  t[s]:     40.68
ElecMinimize: Converged (|Delta Etot|<1.000000e-08 for 2 iters).
Setting wave functions to eigenvectors of Hamiltonian
LatticeMinimize: 	Wolfe criterion not satisfied: alpha: 1  (E-E0)/|gdotd0|: 78.8006  gdotd/gdotd0: 0.937477 (taking cubic step)

-------- Electronic minimization -----------
ElecMinimize: Iter:   0  Etot: -12.836263483069962  |grad|_K:  3.225e-09  alpha:  1.000e+00
ElecMinimize: Iter:   1  Etot: -12.836263483082689  |grad|_K:  1.254e-09  alpha:  6.959e-01  linmin:  1.124e-01  t[s]:     41.23
ElecMinimize: Iter:   2  Etot: -12.836263483083187  |grad|_K:  6.990e-10  alpha:  7.361e-01  linmin:  9.608e-02  t[s]:     41.42
ElecMinimize: Converged (|Delta Etot|<1.000000e-08 for 2 iters).
Setting wave functions to eigenvectors of Hamiltonian
LatticeMinimize: 	Wolfe criterion not satisfied: alpha: 0.00209347  (E-E0)/|gdotd0|: 79.7655  gdotd/gdotd0: 1.00106 (taking cubic step)

-------- Electronic minimization -----------
ElecMinimize: Iter:   0  Etot: -12.836263483079867  |grad|_K:  7.009e-10  alpha:  1.000e+00
ElecMinimize: 	Step increased Etot by 1.344702e-12, reducing alpha to 1.778093e-01.
ElecMinimize: Iter:   1  Etot: -12.836263483083100  |grad|_K:  4.128e-10  alpha:  1.778e-01  linmin: -7.771e-01  t[s]:     42.08
ElecMinimize: 	Step increased Etot by 1.364242e-12, reducing alpha to 6.873713e-04.
ElecMinimize: 	Step increased Etot by 8.881784e-15, reducing alpha to 6.873713e-05.
ElecMinimize: 	Step increased Etot by 4.352074e-13, reducing alpha to 6.873713e-06.
ElecMinimize: 	Step failed to reduce Etot after 3 attempts. Quitting step.
ElecMinimize: 	Undoing step.
ElecMinimize: 	Step failed: resetting search direction.
ElecMinimize: Iter:   2  Etot: -12.836263483082918  |grad|_K:  4.127e-10  alpha:  6.874e-06
ElecMinimize: Iter:   3  Etot: -12.836263483083426  |grad|_K:  4.087e-10  alpha:  5.645e-03  linmin: -7.843e-01  t[s]:     42.77
ElecMinimize: Iter:   4  Etot: -12.836263483083474  |grad|_K:  4.087e-10  alpha:  7.689e-06  linmin: -7.839e-01  t[s]:     42.96
ElecMinimize: Converged (|Delta Etot|<1.000000e-08 for 2 iters).
Setting wave functions to eigenvectors of Hamiltonian
LatticeMinimize: 	Wolfe criterion not satisfied: alpha: 9.15705e-09  (E-E0)/|gdotd0|: 79.7654  gdotd/gdotd0: 1.00096 (taking cubic step)

-------- Electronic minimization -----------
ElecMinimize: Iter:   0  Etot: -12.836263634642901  |grad|_K:  4.111e-10  alpha:  1.000e+00
ElecMinimize: 	Step increased Etot by 1.907807e-12, reducing alpha to 1.416810e-02.
ElecMinimize: 	Step increased Etot by 1.122658e-12, reducing alpha to 1.416810e-03.
ElecMinimize: 	Step increased Etot by 1.429967e-12, reducing alpha to 1.416810e-04.
ElecMinimize: 	Step failed to reduce Etot after 3 attempts. Quitting step.
ElecMinimize: 	Undoing step.
ElecMinimize: 	Step failed along negative gradient direction.
ElecMinimize: Probably at roundoff error limit. (Stopping)
Setting wave functions to eigenvectors of Hamiltonian
LatticeMinimize: 	Wolfe criterion not satisfied: alpha: 1.75205e-19  (E-E0)/|gdotd0|: 6.91826e-05  gdotd/gdotd0: 1.00042 (taking cubic step)

-------- Electronic minimization -----------
ElecMinimize: Iter:   0  Etot: -12.836263634641483  |grad|_K:  4.102e-10  alpha:  1.000e+00
ElecMinimize: 	Step increased Etot by 1.252332e-12, reducing alpha to 2.909318e-02.
ElecMinimize: 	Step increased Etot by 1.168843e-12, reducing alpha to 2.909318e-03.
ElecMinimize: Iter:   1  Etot: -12.836263634641993  |grad|_K:  4.082e-10  alpha:  2.909e-03  linmin: -7.829e-01  t[s]:     44.71
ElecMinimize: 	Step increased Etot by 2.149392e-13, reducing alpha to 7.879082e-07.
ElecMinimize: Iter:   2  Etot: -12.836263634641998  |grad|_K:  4.081e-10  alpha:  7.879e-07  linmin: -7.827e-01  t[s]:     45.00
ElecMinimize: Converged (|Delta Etot|<1.000000e-08 for 2 iters).
Setting wave functions to eigenvectors of Hamiltonian
# Lattice vectors:
R = 
[      4.73684     -2.36842            0  ]
[            0      4.10222            0  ]
[            0            0           40  ]
unit cell volume = 777.263

# Strain tensor in Cartesian coordinates:
[  -0.00862402            0            0  ]
[            0  -0.00862402            0  ]
[            0            0            0  ]

# Stress tensor in Cartesian coordinates [Eh/a0^3]:
[  -3.6687e-07            0            0  ]
[            0  -3.6687e-07            0  ]
[            0            0  1.98715e-05  ]

# Ionic positions in lattice coordinates:
ion B  -0.000000000000000   0.000000000000000   0.000000000000000 0
ion N   0.333333333333333   0.666666666666667   0.000000000000000 0

# Forces in Lattice coordinates:
force B   0.000000000000000   0.000000000000000   0.000000000000000 0
force N  -0.000000000000000  -0.000000000000000   0.000000000000000 0

# Energy components:
   Eewald =      -20.0052085566059006
       EH =       -9.8928872274500339
     Eloc =       12.2542830146346695
      Enl =       -0.6045281146385106
   Epulay =        0.0022418874895692
      Exc =       -3.6782908728802060
       KE =        9.0881262348084171
-------------------------------------
     Etot =      -12.8362636346419983


Dumping 'hBN.ionpos' ... done
Dumping 'hBN.lattice' ... done
LatticeMinimize: Iter:   7  Etot: -12.836263634641998  |grad|_K:  4.361e-05  alpha:  7.395e-35  linmin: -2.610e-02  t[s]:     45.19
LatticeMinimize: 	Bad step direction: g.d > 0.
LatticeMinimize: 	Undoing step.

#--- Lowdin population analysis ---
# oxidation-state B +0.448
# oxidation-state N -0.378


-------- Electronic minimization -----------
ElecMinimize: Iter:   0  Etot: -12.836263634641998  |grad|_K:  4.081e-10  alpha:  1.000e+00
ElecMinimize: 	Step increased Etot by 3.513634e-12, reducing alpha to 2.439159e-01.
ElecMinimize: 	Step increased Etot by 2.511769e-12, reducing alpha to 2.439159e-02.
ElecMinimize: 	Step increased Etot by 1.506351e-12, reducing alpha to 2.439159e-03.
ElecMinimize: 	Step failed to reduce Etot after 3 attempts. Quitting step.
[...]
ion B  -0.000000000000000   0.000000000000000   0.000000000000000 0
ion N   0.333333333333333   0.666666666666667   0.000000000000000 0

# Forces in Lattice coordinates:
force B   0.000000000000000  -0.000000000000000   0.000000000000000 0
force N   0.000000000000000  -0.000000000000000   0.000000000000000 0

# Energy components:
   Eewald =      -20.0446867303083032
       EH =       -9.9360790346955650
     Eloc =       12.3339264802040418
      Enl =       -0.6010413780072045
   Epulay =        0.0000023102261010
      Exc =       -3.6816322853433840
       KE =        9.0934750537285360
-------------------------------------
     Etot =      -12.8360355841957734


Dumping 'hBN.ionpos' ... done
Dumping 'hBN.lattice' ... done
LatticeMinimize: Iter:   2  Etot: -12.836035584195773  |grad|_K:  7.586e-06  alpha:  1.000e+00  linmin: -3.489e-03  t[s]:     15.46
LatticeMinimize: Converged (|Delta Etot|<1.000000e-06 for 2 iters).

#--- Lowdin population analysis ---
# oxidation-state B +0.447
# oxidation-state N -0.377

End date and time: Sun Jan 16 13:19:11 2022  (Duration: 0-0:00:15.53)
Done!

*************** JDFTx 1.6.0 (git hash 42ebbcc2) ***************

Start date and time: Sun Jan 16 13:20:32 2022
Executable jdftx with command-line: -i hBN.in
Running on hosts (process indices):  d-5-12-4 (0-47)  d-5-13-1 (48-95)  d-5-13-2 (96-126)
Divided in process groups (process indices):  0 (0)  1 (1)  2 (2)  3 (3)  4 (4)  5 (5)  6 (6)  7 (7)  8 (8)  9 (9)  10 (10)  11 (11)  12 (12)  13 (13)  14 (14)  15 (15)  16 (16)  17 (17)  18 (18)  19 (19)  20 (20)  21 (21)  22 (22)  23 (23)  24 (24)  25 (25)  26 (26)  27 (27)  28 (28)  29 (29)  30 (30)  31 (31)  32 (32)  33 (33)  34 (34)  35 (35)  36 (36)  37 (37)  38 (38)  39 (39)  40 (40)  41 (41)  42 (42)  43 (43)  44 (44)  45 (45)  46 (46)  47 (47)  48 (48)  49 (49)  50 (50)  51 (51)  52 (52)  53 (53)  54 (54)  55 (55)  56 (56)  57 (57)  58 (58)  59 (59)  60 (60)  61 (61)  62 (62)  63 (63)  64 (64)  65 (65)  66 (66)  67 (67)  68 (68)  69 (69)  70 (70)  71 (71)  72 (72)  73 (73)  74 (74)  75 (75)  76 (76)  77 (77)  78 (78)  79 (79)  80 (80)  81 (81)  82 (82)  83 (83)  84 (84)  85 (85)  86 (86)  87 (87)  88 (88)  89 (89)  90 (90)  91 (91)  92 (92)  93 (93)  94 (94)  95 (95)  96 (96)  97 (97)  98 (98)  99 (99)  100 (100)  101 (101)  102 (102)  103 (103)  104 (104)  105 (105)  106 (106)  107 (107)  108 (108)  109 (109)  110 (110)  111 (111)  112 (112)  113 (113)  114 (114)  115 (115)  116 (116)  117 (117)  118 (118)  119 (119)  120 (120)  121 (121)  122 (122)  123 (123)  124 (124)  125 (125)  126 (126)
Resource initialization completed at t[s]:      0.04
Run totals: 127 processes, 144 threads, 0 GPUs


Input parsed successfully to the following command list (including defaults):

basis kpoint-dependent
coords-type Lattice
core-overlap-check vector
coulomb-interaction Slab 001
davidson-band-ratio 1.1
dump End None
dump Ionic IonicPositions Lattice
dump-name $INPUT.$VAR
elec-cutoff 20
elec-eigen-algo Davidson
elec-ex-corr gga-PBE
electronic-minimize  \
	dirUpdateScheme      FletcherReeves \
	linminMethod         DirUpdateRecommended \
	nIterations          100 \
	history              15 \
	knormThreshold       0 \
	energyDiffThreshold  1e-08 \
	nEnergyDiff          2 \
	alphaTstart          1 \
	alphaTmin            1e-10 \
	updateTestStepSize   yes \
	alphaTreduceFactor   0.1 \
	alphaTincreaseFactor 3 \
	nAlphaAdjustMax      3 \
	wolfeEnergy          0.0001 \
	wolfeGradient        0.9 \
	fdTest               no
exchange-regularization WignerSeitzTruncated
fluid None
fluid-ex-corr (null) lda-PZ
fluid-gummel-loop 10 1.000000e-05
fluid-minimize  \
	dirUpdateScheme      PolakRibiere \
	linminMethod         DirUpdateRecommended \
	nIterations          100 \
	history              15 \
	knormThreshold       0 \
	energyDiffThreshold  0 \
	nEnergyDiff          2 \
	alphaTstart          1 \
	alphaTmin            1e-10 \
	updateTestStepSize   yes \
	alphaTreduceFactor   0.1 \
	alphaTincreaseFactor 3 \
	nAlphaAdjustMax      3 \
	wolfeEnergy          0.0001 \
	wolfeGradient        0.9 \
	fdTest               no
fluid-solvent H2O 55.338 ScalarEOS \
	epsBulk 78.4 \
	pMol 0.92466 \
	epsInf 1.77 \
	Pvap 1.06736e-10 \
	sigmaBulk 4.62e-05 \
	Rvdw 2.61727 \
	Res 1.42 \
	tauNuc 343133 \
	poleEl 15 7 1
forces-output-coords Positions
ion B  -0.000000000000000   0.000000000000000   0.000000000000000 0
ion N   0.333333333333333   0.666666666666667   0.000000000000000 0
ion-species SG15/$ID_ONCV_PBE.upf
ion-width 0
ionic-minimize  \
	dirUpdateScheme      L-BFGS \
	linminMethod         DirUpdateRecommended \
	nIterations          0 \
	history              15 \
	knormThreshold       0.0001 \
	energyDiffThreshold  1e-06 \
	nEnergyDiff          2 \
	alphaTstart          1 \
	alphaTmin            1e-10 \
	updateTestStepSize   yes \
	alphaTreduceFactor   0.1 \
	alphaTincreaseFactor 3 \
	nAlphaAdjustMax      3 \
	wolfeEnergy          0.0001 \
	wolfeGradient        0.9 \
	fdTest               no
kpoint   0.000000000000   0.000000000000   0.000000000000  1.00000000000000
kpoint-folding 36 36 1 
latt-move-scale 1 1 1
latt-scale 1 1 1 
lattice  \
	   4.727511181137201   -2.363755590568599    0.000000000000000  \
	  -0.000000000000000    4.094144779539792    0.000000000000000  \
	   0.000000000000000    0.000000000000000   40.000000000000000 
lattice-minimize  \
	dirUpdateScheme      L-BFGS \
	linminMethod         DirUpdateRecommended \
	nIterations          10 \
	history              15 \
	knormThreshold       0 \
	energyDiffThreshold  1e-06 \
	nEnergyDiff          2 \
	alphaTstart          1 \
	alphaTmin            1e-10 \
	updateTestStepSize   yes \
	alphaTreduceFactor   0.1 \
	alphaTincreaseFactor 3 \
	nAlphaAdjustMax      3 \
	wolfeEnergy          0.0001 \
	wolfeGradient        0.9 \
	fdTest               no
lcao-params -1 1e-06 0.001
pcm-variant GLSSA13
spintype no-spin
subspace-rotation-factor 1 yes
symmetries automatic
symmetry-threshold 0.0001



---------- Setting up symmetries ----------

Found 24 point-group symmetries of the bravais lattice
Found 12 space-group symmetries with basis
Applied RMS atom displacement 1.28861e-15 bohrs to make symmetries exact.

---------- Initializing the Grid ----------
R = 
[      4.72751     -2.36376            0  ]
[            0      4.09414            0  ]
[            0            0           40  ]
unit cell volume = 774.205
G =
[    1.32907   0.767338         -0  ]
[          0    1.53468         -0  ]
[         -0         -0    0.15708  ]
Minimum fftbox size, Smin = [  20  20  164  ]
Chosen fftbox size, S = [  20  20  168  ]

---------- Exchange Correlation functional ----------
Initalized PBE GGA exchange.
Initalized PBE GGA correlation.

---------- Setting up pseudopotentials ----------
Width of ionic core gaussian charges (only for fluid interactions / plotting) set to 0

Reading pseudopotential file '/home/gridsan/aligho/DFT/build-Nov24/pseudopotentials/SG15/B_ONCV_PBE.upf':
  'B' pseudopotential, 'PBE' functional
  Generated using ONCVPSP code by D. R. Hamann
  Author: Martin Schlipf and Francois Gygi  Date: 150915.
  3 valence electrons, 2 orbitals, 4 projectors, 1534 radial grid points, with lMax = 1
  Transforming local potential to a uniform radial grid of dG=0.02 with 1489 points.
  Transforming nonlocal projectors to a uniform radial grid of dG=0.02 with 432 points.
    2S    l: 0   occupation:  2.0   eigenvalue: -0.347027
    2P    l: 1   occupation:  1.0   eigenvalue: -0.132548
  Transforming atomic orbitals to a uniform radial grid of dG=0.02 with 432 points.
  Core radius for overlap checks: 1.60 bohrs.
  Reading pulay file /home/gridsan/aligho/DFT/build-Nov24/pseudopotentials/SG15/B_ONCV_PBE.pulay ... using dE_dnG = -3.748568e-04 computed for Ecut = 20.

Reading pseudopotential file '/home/gridsan/aligho/DFT/build-Nov24/pseudopotentials/SG15/N_ONCV_PBE.upf':
  'N' pseudopotential, 'PBE' functional
  Generated using ONCVPSP code by D. R. Hamann
  Author: Martin Schlipf and Francois Gygi  Date: 150915.
  5 valence electrons, 2 orbitals, 4 projectors, 1058 radial grid points, with lMax = 1
  Transforming local potential to a uniform radial grid of dG=0.02 with 1489 points.
  Transforming nonlocal projectors to a uniform radial grid of dG=0.02 with 432 points.
    2S    l: 0   occupation:  2.0   eigenvalue: -0.682907
    2P    l: 1   occupation:  3.0   eigenvalue: -0.260548
  Transforming atomic orbitals to a uniform radial grid of dG=0.02 with 432 points.
  Core radius for overlap checks: 1.35 bohrs.
  Reading pulay file /home/gridsan/aligho/DFT/build-Nov24/pseudopotentials/SG15/N_ONCV_PBE.pulay ... using dE_dnG = -2.956256e-02 computed for Ecut = 20.

Initialized 2 species with 2 total atoms.

Folded 1 k-points by 36x36x1 to 1296 k-points.

---------- Setting up k-points, bands, fillings ----------
Adding inversion symmetry to k-mesh for non-inversion-symmetric unit cell.
Reduced to 127 k-points under symmetry. 
Computing the number of bands and number of electrons
Calculating initial fillings.
nElectrons:   8.000000   nBands: 4   nStates: 127

----- Setting up reduced wavefunction bases (one per k-point) -----
average nbasis = 3307.419 , ideal nbasis = 3307.461

---------- Setting up coulomb interaction ----------
Initialized slab truncation along lattice direction 001

---------- Setting up 2D ewald sum ----------
Optimum gaussian width for ewald sums = 2.624523 bohr.
Real space sums over 289 unit cells with max indices [  8  8  0  ]
Reciprocal space sums over 81 terms with max indices [  4  4  0  ]

---------- Allocating electronic variables ----------
Initializing wave functions:  linear combination of atomic orbitals
B pseudo-atom occupations:   s ( 2 )  p ( 1 )
N pseudo-atom occupations:   s ( 2 )  p ( 3 )
	FillingsUpdate:  mu: -0.158898407  nElectrons: 8.000000
LCAOMinimize: Iter:   0  Etot: -12.6964466144396653  |grad|_K:  3.885e-03  alpha:  1.000e+00
	FillingsUpdate:  mu: -0.177199292  nElectrons: 8.000000
LCAOMinimize: Iter:   1  Etot: -12.7306650061943465  |grad|_K:  3.827e-04  alpha:  3.849e-01  linmin: -5.130e-01  cgtest:  9.543e-01  t[s]:      4.59
LCAOMinimize: Encountered beta<0, resetting CG.
	FillingsUpdate:  mu: -0.179064304  nElectrons: 8.000000
LCAOMinimize: Iter:   2  Etot: -12.7309760363713842  |grad|_K:  2.099e-05  alpha:  4.130e-01  linmin:  4.499e-02  cgtest: -6.505e-02  t[s]:      7.09
	FillingsUpdate:  mu: -0.179301696  nElectrons: 8.000000
LCAOMinimize: Iter:   3  Etot: -12.7309781946349911  |grad|_K:  1.130e-06  alpha:  9.615e-01  linmin:  2.039e-04  cgtest:  1.140e-01  t[s]:      9.58
LCAOMinimize: Encountered beta<0, resetting CG.
LCAOMinimize: None of the convergence criteria satisfied after 3 iterations.


---- Citations for features of the code used in this run ----

   Software package:
      R. Sundararaman, K. Letchworth-Weaver, K.A. Schwarz, D. Gunceler, Y. Ozhabes and T.A. Arias, 'JDFTx: software for joint density-functional theory', SoftwareX 6, 278 (2017)

   gga-PBE exchange-correlation functional:
      J.P. Perdew, K. Burke and M. Ernzerhof, Phys. Rev. Lett. 77, 3865 (1996)

   Pseudopotentials:
      M Schlipf and F Gygi, Comput. Phys. Commun. 196, 36 (2015)

   Truncated Coulomb potentials:
      R. Sundararaman and T.A. Arias, Phys. Rev. B 87, 165122 (2013)

   Total energy minimization:
      T.A. Arias, M.C. Payne and J.D. Joannopoulos, Phys. Rev. Lett. 69, 1077 (1992)

This list may not be complete. Please suggest additional citations or
report any other bugs at https://github.com/shankar1729/jdftx/issues

Initialization completed successfully at t[s]:      9.59


--------- Lattice Minimization ---------

-------- Electronic minimization -----------
ElecMinimize: Iter:   0  Etot: -12.730978194634998  |grad|_K:  3.037e-04  alpha:  1.000e+00
ElecMinimize: Iter:   1  Etot: -12.818283911780584  |grad|_K:  1.263e-04  alpha:  5.666e-01  linmin: -4.378e-03  t[s]:      9.91
ElecMinimize: Iter:   2  Etot: -12.831295012346372  |grad|_K:  5.531e-05  alpha:  4.841e-01  linmin:  7.206e-04  t[s]:     10.11
ElecMinimize: Iter:   3  Etot: -12.834874361749865  |grad|_K:  2.624e-05  alpha:  6.968e-01  linmin:  6.574e-04  t[s]:     10.30
ElecMinimize: Iter:   4  Etot: -12.835587670790785  |grad|_K:  1.721e-05  alpha:  6.167e-01  linmin: -1.496e-04  t[s]:     10.49
ElecMinimize: Iter:   5  Etot: -12.835902432771704  |grad|_K:  8.488e-06  alpha:  6.321e-01  linmin: -2.969e-04  t[s]:     10.69
ElecMinimize: Iter:   6  Etot: -12.835987579337337  |grad|_K:  4.921e-06  alpha:  7.032e-01  linmin:  1.912e-04  t[s]:     10.88
ElecMinimize: Iter:   7  Etot: -12.836013472771086  |grad|_K:  3.165e-06  alpha:  6.364e-01  linmin:  6.790e-05  t[s]:     11.07
ElecMinimize: Iter:   8  Etot: -12.836025940022090  |grad|_K:  1.922e-06  alpha:  7.406e-01  linmin: -3.997e-05  t[s]:     11.26
ElecMinimize: Iter:   9  Etot: -12.836030802027015  |grad|_K:  1.428e-06  alpha:  7.832e-01  linmin: -5.646e-06  t[s]:     11.45
ElecMinimize: Iter:  10  Etot: -12.836033208851228  |grad|_K:  9.263e-07  alpha:  7.025e-01  linmin:  1.022e-05  t[s]:     11.63
ElecMinimize: Iter:  11  Etot: -12.836034305458668  |grad|_K:  5.968e-07  alpha:  7.606e-01  linmin: -2.760e-05  t[s]:     11.82
ElecMinimize: Iter:  12  Etot: -12.836034739581329  |grad|_K:  4.066e-07  alpha:  7.253e-01  linmin: -1.331e-05  t[s]:     12.00
ElecMinimize: Iter:  13  Etot: -12.836034932253195  |grad|_K:  2.479e-07  alpha:  6.934e-01  linmin:  1.112e-05  t[s]:     12.20
ElecMinimize: Iter:  14  Etot: -12.836035005888485  |grad|_K:  1.532e-07  alpha:  7.133e-01  linmin:  5.319e-05  t[s]:     12.39
ElecMinimize: Iter:  15  Etot: -12.836035033624704  |grad|_K:  1.042e-07  alpha:  7.031e-01  linmin:  2.184e-05  t[s]:     12.58
ElecMinimize: Iter:  16  Etot: -12.836035046525321  |grad|_K:  6.488e-08  alpha:  7.067e-01  linmin: -5.766e-05  t[s]:     12.77
ElecMinimize: Iter:  17  Etot: -12.836035051775855  |grad|_K:  4.331e-08  alpha:  7.420e-01  linmin: -9.087e-05  t[s]:     12.98
ElecMinimize: Iter:  18  Etot: -12.836035053934868  |grad|_K:  2.852e-08  alpha:  6.845e-01  linmin: -8.226e-04  t[s]:     13.18
ElecMinimize: Converged (|Delta Etot|<1.000000e-08 for 2 iters).
Setting wave functions to eigenvectors of Hamiltonian
# Lattice vectors:
R = 
[      4.72751     -2.36376            0  ]
[            0      4.09414            0  ]
[            0            0           40  ]
unit cell volume = 774.205

# Strain tensor in Cartesian coordinates:
[            0            0            0  ]
[            0            0            0  ]
[            0            0            0  ]

# Stress tensor in Cartesian coordinates [Eh/a0^3]:
[  8.72306e-08            0            0  ]
[            0  8.72306e-08            0  ]
[            0            0  2.57868e-05  ]

# Ionic positions in lattice coordinates:
ion B  -0.000000000000000   0.000000000000000   0.000000000000000 0
ion N   0.333333333333333   0.666666666666667   0.000000000000000 0

# Forces in Lattice coordinates:
force B  -0.000000000000000  -0.000000000000000   0.000000000000000 0
force N  -0.000000000000000   0.000000000000000   0.000000000000000 0

# Energy components:
   Eewald =      -20.0446867303083032
       EH =       -9.9360896603831161
     Eloc =       12.3339463881759794
      Enl =       -0.6010249965482708
   Epulay =       -0.0000016282440682
      Exc =       -3.6816313839558017
       KE =        9.0934529573287115
-------------------------------------
     Etot =      -12.8360350539348680


Dumping 'hBN.ionpos' ... done
Dumping 'hBN.lattice' ... done
LatticeMinimize: Iter:   0  Etot: -12.836035053934868  |grad|_K:  1.040e-05  t[s]:     13.39

#--- Lowdin population analysis ---
# oxidation-state B +0.447
# oxidation-state N -0.377


-------- Electronic minimization -----------
ElecMinimize: Iter:   0  Etot: -12.836035054030608  |grad|_K:  2.853e-08  alpha:  1.000e+00
ElecMinimize: Iter:   1  Etot: -12.836035054672683  |grad|_K:  1.828e-08  alpha:  4.692e-01  linmin:  2.332e-04  t[s]:     13.78
ElecMinimize: Iter:   2  Etot: -12.836035055154387  |grad|_K:  1.418e-08  alpha:  8.630e-01  linmin:  5.168e-03  t[s]:     13.98
ElecMinimize: Converged (|Delta Etot|<1.000000e-08 for 2 iters).
Setting wave functions to eigenvectors of Hamiltonian
# Lattice vectors:
R = 
[      4.72751     -2.36375            0  ]
[            0      4.09414            0  ]
[            0            0           40  ]
unit cell volume = 774.203

# Strain tensor in Cartesian coordinates:
[ -8.00978e-07            0            0  ]
[            0 -8.00978e-07            0  ]
[            0            0            0  ]

# Stress tensor in Cartesian coordinates [Eh/a0^3]:
[   7.3718e-08            0            0  ]
[            0   7.3718e-08            0  ]
[            0            0  2.58119e-05  ]

# Ionic positions in lattice coordinates:
ion B  -0.000000000000000   0.000000000000000   0.000000000000000 0
ion N   0.333333333333333   0.666666666666667   0.000000000000000 0

# Forces in Lattice coordinates:
force B   0.000000000000000  -0.000000000000000   0.000000000000000 0
force N   0.000000000000000  -0.000000000000000   0.000000000000000 0

# Energy components:
   Eewald =      -20.0447027856739268
       EH =       -9.9361107459694455
     Eloc =       12.3339827797155763
      Enl =       -0.6010329426786289
   Epulay =       -0.0000014233643626
      Exc =       -3.6816320701158038
       KE =        9.0934621329322027
-------------------------------------
     Etot =      -12.8360350551543867


Dumping 'hBN.ionpos' ... done
Dumping 'hBN.lattice' ... done
LatticeMinimize: Iter:   1  Etot: -12.836035055154387  |grad|_K:  8.790e-06  alpha:  1.000e+00  linmin: -4.039e-03  t[s]:     14.17

#--- Lowdin population analysis ---
# oxidation-state B +0.447
# oxidation-state N -0.377


-------- Electronic minimization -----------
ElecMinimize: Iter:   0  Etot: -12.836035055550976  |grad|_K:  1.464e-08  alpha:  1.000e+00
ElecMinimize: Iter:   1  Etot: -12.836035055735746  |grad|_K:  9.521e-09  alpha:  5.039e-01  linmin:  5.384e-03  t[s]:     14.54
ElecMinimize: Iter:   2  Etot: -12.836035055854918  |grad|_K:  8.460e-09  alpha:  7.648e-01  linmin: -3.121e-02  t[s]:     14.73
ElecMinimize: Converged (|Delta Etot|<1.000000e-08 for 2 iters).
Setting wave functions to eigenvectors of Hamiltonian
# Lattice vectors:
R = 
[      4.72749     -2.36374            0  ]
[            0      4.09412            0  ]
[            0            0           40  ]
unit cell volume = 774.197

# Strain tensor in Cartesian coordinates:
[ -5.11947e-06            0            0  ]
[            0 -5.11947e-06            0  ]
[            0            0            0  ]

# Stress tensor in Cartesian coordinates [Eh/a0^3]:
[  5.01182e-08            0            0  ]
[            0  5.01182e-08            0  ]
[            0            0  2.57934e-05  ]

# Ionic positions in lattice coordinates:
ion B  -0.000000000000000   0.000000000000000   0.000000000000000 0
ion N   0.333333333333333   0.666666666666667   0.000000000000000 0

# Forces in Lattice coordinates:
force B   0.000000000000000   0.000000000000000   0.000000000000000 0
force N  -0.000000000000000   0.000000000000000   0.000000000000000 0

# Energy components:
   Eewald =      -20.0447893490839775
       EH =       -9.9361885944083568
     Eloc =       12.3341238933305863
      Enl =       -0.6010398112561957
   Epulay =       -0.0000003187410367
      Exc =       -3.6816413491956155
       KE =        9.0935004734996809
-------------------------------------
     Etot =      -12.8360350558549179


Dumping 'hBN.ionpos' ... done
Dumping 'hBN.lattice' ... done
LatticeMinimize: Iter:   2  Etot: -12.836035055854918  |grad|_K:  5.976e-06  alpha:  1.000e+00  linmin: -2.748e-03  t[s]:     14.91
LatticeMinimize: Converged (|Delta Etot|<1.000000e-06 for 2 iters).

#--- Lowdin population analysis ---
# oxidation-state B +0.447
# oxidation-state N -0.377

End date and time: Sun Jan 16 13:20:47 2022  (Duration: 0-0:00:14.96)
Done!
