--------------------------------------------------------------------------
The library attempted to open the following supporting CUDA libraries,
but each of them failed.  CUDA-aware support is disabled.
libcuda.so.1: cannot open shared object file: No such file or directory
libcuda.dylib: cannot open shared object file: No such file or directory
/usr/lib64/libcuda.so.1: cannot open shared object file: No such file or directory
/usr/lib64/libcuda.dylib: cannot open shared object file: No such file or directory
If you are not interested in CUDA-aware support, then run with
--mca opal_warn_on_missing_libcuda 0 to suppress this message.  If you are interested
in CUDA-aware support, then try setting LD_LIBRARY_PATH to the location
of libcuda.so.1 to get passed this issue.
--------------------------------------------------------------------------
--------------------------------------------------------------------------
No OpenFabrics connection schemes reported that they were able to be
used on a specific port.  As such, the openib BTL (OpenFabrics
support) will be disabled for this port.

  Local host:           d-5-13-2
  Local device:         mlx5_1
  Local port:           1
  CPCs attempted:       rdmacm, udcm
--------------------------------------------------------------------------

*************** JDFTx 1.6.0 (git hash 42ebbcc2) ***************

Start date and time: Sun Jan 16 13:20:32 2022
Executable jdftx with command-line: -i hBN.in
Running on hosts (process indices):  d-5-12-4 (0-47)  d-5-13-1 (48-95)  d-5-13-2 (96-126)
Divided in process groups (process indices):  0 (0)  1 (1)  2 (2)  3 (3)  4 (4)  5 (5)  6 (6)  7 (7)  8 (8)  9 (9)  10 (10)  11 (11)  12 (12)  13 (13)  14 (14)  15 (15)  16 (16)  17 (17)  18 (18)  19 (19)  20 (20)  21 (21)  22 (22)  23 (23)  24 (24)  25 (25)  26 (26)  27 (27)  28 (28)  29 (29)  30 (30)  31 (31)  32 (32)  33 (33)  34 (34)  35 (35)  36 (36)  37 (37)  38 (38)  39 (39)  40 (40)  41 (41)  42 (42)  43 (43)  44 (44)  45 (45)  46 (46)  47 (47)  48 (48)  49 (49)  50 (50)  51 (51)  52 (52)  53 (53)  54 (54)  55 (55)  56 (56)  57 (57)  58 (58)  59 (59)  60 (60)  61 (61)  62 (62)  63 (63)  64 (64)  65 (65)  66 (66)  67 (67)  68 (68)  69 (69)  70 (70)  71 (71)  72 (72)  73 (73)  74 (74)  75 (75)  76 (76)  77 (77)  78 (78)  79 (79)  80 (80)  81 (81)  82 (82)  83 (83)  84 (84)  85 (85)  86 (86)  87 (87)  88 (88)  89 (89)  90 (90)  91 (91)  92 (92)  93 (93)  94 (94)  95 (95)  96 (96)  97 (97)  98 (98)  99 (99)  100 (100)  101 (101)  102 (102)  103 (103)  104 (104)  105 (105)  106 (106)  107 (107)  108 (108)  109 (109)  110 (110)  111 (111)  112 (112)  113 (113)  114 (114)  115 (115)  116 (116)  117 (117)  118 (118)  119 (119)  120 (120)  121 (121)  122 (122)  123 (123)  124 (124)  125 (125)  126 (126)
Resource initialization completed at t[s]:      0.04
Run totals: 127 processes, 144 threads, 0 GPUs


Input parsed successfully to the following command list (including defaults):

basis kpoint-dependent
coords-type Lattice
core-overlap-check vector
coulomb-interaction Slab 001
davidson-band-ratio 1.1
dump End None
dump Ionic IonicPositions Lattice
dump-name $INPUT.$VAR
elec-cutoff 20
elec-eigen-algo Davidson
elec-ex-corr gga-PBE
electronic-minimize  \
	dirUpdateScheme      FletcherReeves \
	linminMethod         DirUpdateRecommended \
	nIterations          100 \
	history              15 \
	knormThreshold       0 \
	energyDiffThreshold  1e-08 \
	nEnergyDiff          2 \
	alphaTstart          1 \
	alphaTmin            1e-10 \
	updateTestStepSize   yes \
	alphaTreduceFactor   0.1 \
	alphaTincreaseFactor 3 \
	nAlphaAdjustMax      3 \
	wolfeEnergy          0.0001 \
	wolfeGradient        0.9 \
	fdTest               no
exchange-regularization WignerSeitzTruncated
fluid None
fluid-ex-corr (null) lda-PZ
fluid-gummel-loop 10 1.000000e-05
fluid-minimize  \
	dirUpdateScheme      PolakRibiere \
	linminMethod         DirUpdateRecommended \
	nIterations          100 \
	history              15 \
	knormThreshold       0 \
	energyDiffThreshold  0 \
	nEnergyDiff          2 \
	alphaTstart          1 \
	alphaTmin            1e-10 \
	updateTestStepSize   yes \
	alphaTreduceFactor   0.1 \
	alphaTincreaseFactor 3 \
	nAlphaAdjustMax      3 \
	wolfeEnergy          0.0001 \
	wolfeGradient        0.9 \
	fdTest               no
fluid-solvent H2O 55.338 ScalarEOS \
	epsBulk 78.4 \
	pMol 0.92466 \
	epsInf 1.77 \
	Pvap 1.06736e-10 \
	sigmaBulk 4.62e-05 \
	Rvdw 2.61727 \
	Res 1.42 \
	tauNuc 343133 \
	poleEl 15 7 1
forces-output-coords Positions
ion B  -0.000000000000000   0.000000000000000   0.000000000000000 0
ion N   0.333333333333333   0.666666666666667   0.000000000000000 0
ion-species SG15/$ID_ONCV_PBE.upf
ion-width 0
ionic-minimize  \
	dirUpdateScheme      L-BFGS \
	linminMethod         DirUpdateRecommended \
	nIterations          0 \
	history              15 \
	knormThreshold       0.0001 \
	energyDiffThreshold  1e-06 \
	nEnergyDiff          2 \
	alphaTstart          1 \
	alphaTmin            1e-10 \
	updateTestStepSize   yes \
	alphaTreduceFactor   0.1 \
	alphaTincreaseFactor 3 \
	nAlphaAdjustMax      3 \
	wolfeEnergy          0.0001 \
	wolfeGradient        0.9 \
	fdTest               no
kpoint   0.000000000000   0.000000000000   0.000000000000  1.00000000000000
kpoint-folding 36 36 1 
latt-move-scale 1 1 1
latt-scale 1 1 1 
lattice  \
	   4.727511181137201   -2.363755590568599    0.000000000000000  \
	  -0.000000000000000    4.094144779539792    0.000000000000000  \
	   0.000000000000000    0.000000000000000   40.000000000000000 
lattice-minimize  \
	dirUpdateScheme      L-BFGS \
	linminMethod         DirUpdateRecommended \
	nIterations          10 \
	history              15 \
	knormThreshold       0 \
	energyDiffThreshold  1e-06 \
	nEnergyDiff          2 \
	alphaTstart          1 \
	alphaTmin            1e-10 \
	updateTestStepSize   yes \
	alphaTreduceFactor   0.1 \
	alphaTincreaseFactor 3 \
	nAlphaAdjustMax      3 \
	wolfeEnergy          0.0001 \
	wolfeGradient        0.9 \
	fdTest               no
lcao-params -1 1e-06 0.001
pcm-variant GLSSA13
spintype no-spin
subspace-rotation-factor 1 yes
symmetries automatic
symmetry-threshold 0.0001



---------- Setting up symmetries ----------

Found 24 point-group symmetries of the bravais lattice
Found 12 space-group symmetries with basis
Applied RMS atom displacement 1.28861e-15 bohrs to make symmetries exact.

---------- Initializing the Grid ----------
R = 
[      4.72751     -2.36376            0  ]
[            0      4.09414            0  ]
[            0            0           40  ]
unit cell volume = 774.205
G =
[    1.32907   0.767338         -0  ]
[          0    1.53468         -0  ]
[         -0         -0    0.15708  ]
Minimum fftbox size, Smin = [  20  20  164  ]
Chosen fftbox size, S = [  20  20  168  ]

---------- Exchange Correlation functional ----------
Initalized PBE GGA exchange.
Initalized PBE GGA correlation.

---------- Setting up pseudopotentials ----------
Width of ionic core gaussian charges (only for fluid interactions / plotting) set to 0

Reading pseudopotential file '/home/gridsan/aligho/DFT/build-Nov24/pseudopotentials/SG15/B_ONCV_PBE.upf':
  'B' pseudopotential, 'PBE' functional
  Generated using ONCVPSP code by D. R. Hamann
  Author: Martin Schlipf and Francois Gygi  Date: 150915.
  3 valence electrons, 2 orbitals, 4 projectors, 1534 radial grid points, with lMax = 1
  Transforming local potential to a uniform radial grid of dG=0.02 with 1489 points.
  Transforming nonlocal projectors to a uniform radial grid of dG=0.02 with 432 points.
    2S    l: 0   occupation:  2.0   eigenvalue: -0.347027
    2P    l: 1   occupation:  1.0   eigenvalue: -0.132548
  Transforming atomic orbitals to a uniform radial grid of dG=0.02 with 432 points.
  Core radius for overlap checks: 1.60 bohrs.
  Reading pulay file /home/gridsan/aligho/DFT/build-Nov24/pseudopotentials/SG15/B_ONCV_PBE.pulay ... using dE_dnG = -3.748568e-04 computed for Ecut = 20.

Reading pseudopotential file '/home/gridsan/aligho/DFT/build-Nov24/pseudopotentials/SG15/N_ONCV_PBE.upf':
  'N' pseudopotential, 'PBE' functional
  Generated using ONCVPSP code by D. R. Hamann
  Author: Martin Schlipf and Francois Gygi  Date: 150915.
  5 valence electrons, 2 orbitals, 4 projectors, 1058 radial grid points, with lMax = 1
  Transforming local potential to a uniform radial grid of dG=0.02 with 1489 points.
  Transforming nonlocal projectors to a uniform radial grid of dG=0.02 with 432 points.
    2S    l: 0   occupation:  2.0   eigenvalue: -0.682907
    2P    l: 1   occupation:  3.0   eigenvalue: -0.260548
  Transforming atomic orbitals to a uniform radial grid of dG=0.02 with 432 points.
  Core radius for overlap checks: 1.35 bohrs.
  Reading pulay file /home/gridsan/aligho/DFT/build-Nov24/pseudopotentials/SG15/N_ONCV_PBE.pulay ... using dE_dnG = -2.956256e-02 computed for Ecut = 20.

Initialized 2 species with 2 total atoms.

Folded 1 k-points by 36x36x1 to 1296 k-points.

---------- Setting up k-points, bands, fillings ----------
Adding inversion symmetry to k-mesh for non-inversion-symmetric unit cell.
Reduced to 127 k-points under symmetry. 
Computing the number of bands and number of electrons
Calculating initial fillings.
nElectrons:   8.000000   nBands: 4   nStates: 127

----- Setting up reduced wavefunction bases (one per k-point) -----
average nbasis = 3307.419 , ideal nbasis = 3307.461

---------- Setting up coulomb interaction ----------
Initialized slab truncation along lattice direction 001

---------- Setting up 2D ewald sum ----------
Optimum gaussian width for ewald sums = 2.624523 bohr.
Real space sums over 289 unit cells with max indices [  8  8  0  ]
Reciprocal space sums over 81 terms with max indices [  4  4  0  ]

---------- Allocating electronic variables ----------
Initializing wave functions:  linear combination of atomic orbitals
B pseudo-atom occupations:   s ( 2 )  p ( 1 )
N pseudo-atom occupations:   s ( 2 )  p ( 3 )
	FillingsUpdate:  mu: -0.158898407  nElectrons: 8.000000
LCAOMinimize: Iter:   0  Etot: -12.6964466144396653  |grad|_K:  3.885e-03  alpha:  1.000e+00
[d-5-12-4:88225] 126 more processes have sent help message help-mpi-common-cuda.txt / dlopen failed
[d-5-12-4:88225] Set MCA parameter "orte_base_help_aggregate" to 0 to see all help / error messages
[d-5-12-4:88225] 126 more processes have sent help message help-mpi-btl-openib-cpc-base.txt / no cpcs for port
	FillingsUpdate:  mu: -0.177199292  nElectrons: 8.000000
LCAOMinimize: Iter:   1  Etot: -12.7306650061943465  |grad|_K:  3.827e-04  alpha:  3.849e-01  linmin: -5.130e-01  cgtest:  9.543e-01  t[s]:      4.59
LCAOMinimize: Encountered beta<0, resetting CG.
	FillingsUpdate:  mu: -0.179064304  nElectrons: 8.000000
LCAOMinimize: Iter:   2  Etot: -12.7309760363713842  |grad|_K:  2.099e-05  alpha:  4.130e-01  linmin:  4.499e-02  cgtest: -6.505e-02  t[s]:      7.09
	FillingsUpdate:  mu: -0.179301696  nElectrons: 8.000000
LCAOMinimize: Iter:   3  Etot: -12.7309781946349911  |grad|_K:  1.130e-06  alpha:  9.615e-01  linmin:  2.039e-04  cgtest:  1.140e-01  t[s]:      9.58
LCAOMinimize: Encountered beta<0, resetting CG.
LCAOMinimize: None of the convergence criteria satisfied after 3 iterations.


---- Citations for features of the code used in this run ----

   Software package:
      R. Sundararaman, K. Letchworth-Weaver, K.A. Schwarz, D. Gunceler, Y. Ozhabes and T.A. Arias, 'JDFTx: software for joint density-functional theory', SoftwareX 6, 278 (2017)

   gga-PBE exchange-correlation functional:
      J.P. Perdew, K. Burke and M. Ernzerhof, Phys. Rev. Lett. 77, 3865 (1996)

   Pseudopotentials:
      M Schlipf and F Gygi, Comput. Phys. Commun. 196, 36 (2015)

   Truncated Coulomb potentials:
      R. Sundararaman and T.A. Arias, Phys. Rev. B 87, 165122 (2013)

   Total energy minimization:
      T.A. Arias, M.C. Payne and J.D. Joannopoulos, Phys. Rev. Lett. 69, 1077 (1992)

This list may not be complete. Please suggest additional citations or
report any other bugs at https://github.com/shankar1729/jdftx/issues

Initialization completed successfully at t[s]:      9.59


--------- Lattice Minimization ---------

-------- Electronic minimization -----------
ElecMinimize: Iter:   0  Etot: -12.730978194634998  |grad|_K:  3.037e-04  alpha:  1.000e+00
ElecMinimize: Iter:   1  Etot: -12.818283911780584  |grad|_K:  1.263e-04  alpha:  5.666e-01  linmin: -4.378e-03  t[s]:      9.91
ElecMinimize: Iter:   2  Etot: -12.831295012346372  |grad|_K:  5.531e-05  alpha:  4.841e-01  linmin:  7.206e-04  t[s]:     10.11
ElecMinimize: Iter:   3  Etot: -12.834874361749865  |grad|_K:  2.624e-05  alpha:  6.968e-01  linmin:  6.574e-04  t[s]:     10.30
ElecMinimize: Iter:   4  Etot: -12.835587670790785  |grad|_K:  1.721e-05  alpha:  6.167e-01  linmin: -1.496e-04  t[s]:     10.49
ElecMinimize: Iter:   5  Etot: -12.835902432771704  |grad|_K:  8.488e-06  alpha:  6.321e-01  linmin: -2.969e-04  t[s]:     10.69
ElecMinimize: Iter:   6  Etot: -12.835987579337337  |grad|_K:  4.921e-06  alpha:  7.032e-01  linmin:  1.912e-04  t[s]:     10.88
ElecMinimize: Iter:   7  Etot: -12.836013472771086  |grad|_K:  3.165e-06  alpha:  6.364e-01  linmin:  6.790e-05  t[s]:     11.07
ElecMinimize: Iter:   8  Etot: -12.836025940022090  |grad|_K:  1.922e-06  alpha:  7.406e-01  linmin: -3.997e-05  t[s]:     11.26
ElecMinimize: Iter:   9  Etot: -12.836030802027015  |grad|_K:  1.428e-06  alpha:  7.832e-01  linmin: -5.646e-06  t[s]:     11.45
ElecMinimize: Iter:  10  Etot: -12.836033208851228  |grad|_K:  9.263e-07  alpha:  7.025e-01  linmin:  1.022e-05  t[s]:     11.63
ElecMinimize: Iter:  11  Etot: -12.836034305458668  |grad|_K:  5.968e-07  alpha:  7.606e-01  linmin: -2.760e-05  t[s]:     11.82
ElecMinimize: Iter:  12  Etot: -12.836034739581329  |grad|_K:  4.066e-07  alpha:  7.253e-01  linmin: -1.331e-05  t[s]:     12.00
ElecMinimize: Iter:  13  Etot: -12.836034932253195  |grad|_K:  2.479e-07  alpha:  6.934e-01  linmin:  1.112e-05  t[s]:     12.20
ElecMinimize: Iter:  14  Etot: -12.836035005888485  |grad|_K:  1.532e-07  alpha:  7.133e-01  linmin:  5.319e-05  t[s]:     12.39
ElecMinimize: Iter:  15  Etot: -12.836035033624704  |grad|_K:  1.042e-07  alpha:  7.031e-01  linmin:  2.184e-05  t[s]:     12.58
ElecMinimize: Iter:  16  Etot: -12.836035046525321  |grad|_K:  6.488e-08  alpha:  7.067e-01  linmin: -5.766e-05  t[s]:     12.77
ElecMinimize: Iter:  17  Etot: -12.836035051775855  |grad|_K:  4.331e-08  alpha:  7.420e-01  linmin: -9.087e-05  t[s]:     12.98
ElecMinimize: Iter:  18  Etot: -12.836035053934868  |grad|_K:  2.852e-08  alpha:  6.845e-01  linmin: -8.226e-04  t[s]:     13.18
ElecMinimize: Converged (|Delta Etot|<1.000000e-08 for 2 iters).
Setting wave functions to eigenvectors of Hamiltonian
# Lattice vectors:
R = 
[      4.72751     -2.36376            0  ]
[            0      4.09414            0  ]
[            0            0           40  ]
unit cell volume = 774.205

# Strain tensor in Cartesian coordinates:
[            0            0            0  ]
[            0            0            0  ]
[            0            0            0  ]

# Stress tensor in Cartesian coordinates [Eh/a0^3]:
[  8.72306e-08            0            0  ]
[            0  8.72306e-08            0  ]
[            0            0  2.57868e-05  ]

# Ionic positions in lattice coordinates:
ion B  -0.000000000000000   0.000000000000000   0.000000000000000 0
ion N   0.333333333333333   0.666666666666667   0.000000000000000 0

# Forces in Lattice coordinates:
force B  -0.000000000000000  -0.000000000000000   0.000000000000000 0
force N  -0.000000000000000   0.000000000000000   0.000000000000000 0

# Energy components:
   Eewald =      -20.0446867303083032
       EH =       -9.9360896603831161
     Eloc =       12.3339463881759794
      Enl =       -0.6010249965482708
   Epulay =       -0.0000016282440682
      Exc =       -3.6816313839558017
       KE =        9.0934529573287115
-------------------------------------
     Etot =      -12.8360350539348680


Dumping 'hBN.ionpos' ... done
Dumping 'hBN.lattice' ... done
LatticeMinimize: Iter:   0  Etot: -12.836035053934868  |grad|_K:  1.040e-05  t[s]:     13.39

#--- Lowdin population analysis ---
# oxidation-state B +0.447
# oxidation-state N -0.377


-------- Electronic minimization -----------
ElecMinimize: Iter:   0  Etot: -12.836035054030608  |grad|_K:  2.853e-08  alpha:  1.000e+00
ElecMinimize: Iter:   1  Etot: -12.836035054672683  |grad|_K:  1.828e-08  alpha:  4.692e-01  linmin:  2.332e-04  t[s]:     13.78
ElecMinimize: Iter:   2  Etot: -12.836035055154387  |grad|_K:  1.418e-08  alpha:  8.630e-01  linmin:  5.168e-03  t[s]:     13.98
ElecMinimize: Converged (|Delta Etot|<1.000000e-08 for 2 iters).
Setting wave functions to eigenvectors of Hamiltonian
# Lattice vectors:
R = 
[      4.72751     -2.36375            0  ]
[            0      4.09414            0  ]
[            0            0           40  ]
unit cell volume = 774.203

# Strain tensor in Cartesian coordinates:
[ -8.00978e-07            0            0  ]
[            0 -8.00978e-07            0  ]
[            0            0            0  ]

# Stress tensor in Cartesian coordinates [Eh/a0^3]:
[   7.3718e-08            0            0  ]
[            0   7.3718e-08            0  ]
[            0            0  2.58119e-05  ]

# Ionic positions in lattice coordinates:
ion B  -0.000000000000000   0.000000000000000   0.000000000000000 0
ion N   0.333333333333333   0.666666666666667   0.000000000000000 0

# Forces in Lattice coordinates:
force B   0.000000000000000  -0.000000000000000   0.000000000000000 0
force N   0.000000000000000  -0.000000000000000   0.000000000000000 0

# Energy components:
   Eewald =      -20.0447027856739268
       EH =       -9.9361107459694455
     Eloc =       12.3339827797155763
      Enl =       -0.6010329426786289
   Epulay =       -0.0000014233643626
      Exc =       -3.6816320701158038
       KE =        9.0934621329322027
-------------------------------------
     Etot =      -12.8360350551543867


Dumping 'hBN.ionpos' ... done
Dumping 'hBN.lattice' ... done
LatticeMinimize: Iter:   1  Etot: -12.836035055154387  |grad|_K:  8.790e-06  alpha:  1.000e+00  linmin: -4.039e-03  t[s]:     14.17

#--- Lowdin population analysis ---
# oxidation-state B +0.447
# oxidation-state N -0.377


-------- Electronic minimization -----------
ElecMinimize: Iter:   0  Etot: -12.836035055550976  |grad|_K:  1.464e-08  alpha:  1.000e+00
ElecMinimize: Iter:   1  Etot: -12.836035055735746  |grad|_K:  9.521e-09  alpha:  5.039e-01  linmin:  5.384e-03  t[s]:     14.54
ElecMinimize: Iter:   2  Etot: -12.836035055854918  |grad|_K:  8.460e-09  alpha:  7.648e-01  linmin: -3.121e-02  t[s]:     14.73
ElecMinimize: Converged (|Delta Etot|<1.000000e-08 for 2 iters).
Setting wave functions to eigenvectors of Hamiltonian
# Lattice vectors:
R = 
[      4.72749     -2.36374            0  ]
[            0      4.09412            0  ]
[            0            0           40  ]
unit cell volume = 774.197

# Strain tensor in Cartesian coordinates:
[ -5.11947e-06            0            0  ]
[            0 -5.11947e-06            0  ]
[            0            0            0  ]

# Stress tensor in Cartesian coordinates [Eh/a0^3]:
[  5.01182e-08            0            0  ]
[            0  5.01182e-08            0  ]
[            0            0  2.57934e-05  ]

# Ionic positions in lattice coordinates:
ion B  -0.000000000000000   0.000000000000000   0.000000000000000 0
ion N   0.333333333333333   0.666666666666667   0.000000000000000 0

# Forces in Lattice coordinates:
force B   0.000000000000000   0.000000000000000   0.000000000000000 0
force N  -0.000000000000000   0.000000000000000   0.000000000000000 0

# Energy components:
   Eewald =      -20.0447893490839775
       EH =       -9.9361885944083568
     Eloc =       12.3341238933305863
      Enl =       -0.6010398112561957
   Epulay =       -0.0000003187410367
      Exc =       -3.6816413491956155
       KE =        9.0935004734996809
-------------------------------------
     Etot =      -12.8360350558549179


Dumping 'hBN.ionpos' ... done
Dumping 'hBN.lattice' ... done
LatticeMinimize: Iter:   2  Etot: -12.836035055854918  |grad|_K:  5.976e-06  alpha:  1.000e+00  linmin: -2.748e-03  t[s]:     14.91
LatticeMinimize: Converged (|Delta Etot|<1.000000e-06 for 2 iters).

#--- Lowdin population analysis ---
# oxidation-state B +0.447
# oxidation-state N -0.377

End date and time: Sun Jan 16 13:20:47 2022  (Duration: 0-0:00:14.96)
Done!
