1.49
--------------------------------------------------------------------------
The library attempted to open the following supporting CUDA libraries,
but each of them failed.  CUDA-aware support is disabled.
libcuda.so.1: cannot open shared object file: No such file or directory
libcuda.dylib: cannot open shared object file: No such file or directory
/usr/lib64/libcuda.so.1: cannot open shared object file: No such file or directory
/usr/lib64/libcuda.dylib: cannot open shared object file: No such file or directory
If you are not interested in CUDA-aware support, then run with
--mca opal_warn_on_missing_libcuda 0 to suppress this message.  If you are interested
in CUDA-aware support, then try setting LD_LIBRARY_PATH to the location
of libcuda.so.1 to get passed this issue.
--------------------------------------------------------------------------
--------------------------------------------------------------------------
No OpenFabrics connection schemes reported that they were able to be
used on a specific port.  As such, the openib BTL (OpenFabrics
support) will be disabled for this port.

  Local host:           d-4-14-3
  Local device:         mlx5_1
  Local port:           1
  CPCs attempted:       rdmacm, udcm
--------------------------------------------------------------------------

*************** JDFTx 1.6.0 (git hash 42ebbcc2) ***************

Start date and time: Sun Jan 16 14:50:37 2022
Executable jdftx with command-line: -i Potassium.in
Running on hosts (process indices):  d-4-14-3 (0-18)
Divided in process groups (process indices):  0 (0)  1 (1)  2 (2)  3 (3)  4 (4)  5 (5)  6 (6)  7 (7)  8 (8)  9 (9)  10 (10)  11 (11)  12 (12)  13 (13)  14 (14)  15 (15)  16 (16)  17 (17)  18 (18)
Resource initialization completed at t[s]:      0.00
Run totals: 19 processes, 48 threads, 0 GPUs


Input parsed successfully to the following command list (including defaults):

basis kpoint-dependent
coords-type Lattice
core-overlap-check vector
coulomb-interaction Slab 001
davidson-band-ratio 1.1
dump End None
dump-name $INPUT.$VAR
elec-cutoff 20
elec-eigen-algo Davidson
elec-ex-corr gga-PBE
elec-smearing Fermi 0.01
electronic-minimize  \
	dirUpdateScheme      FletcherReeves \
	linminMethod         DirUpdateRecommended \
	nIterations          100 \
	history              15 \
	knormThreshold       0 \
	energyDiffThreshold  1e-08 \
	nEnergyDiff          2 \
	alphaTstart          1 \
	alphaTmin            1e-10 \
	updateTestStepSize   yes \
	alphaTreduceFactor   0.1 \
	alphaTincreaseFactor 3 \
	nAlphaAdjustMax      3 \
	wolfeEnergy          0.0001 \
	wolfeGradient        0.9 \
	fdTest               no
electronic-scf  \
	nIterations	10000 \
	energyDiffThreshold	1e-08 \
	residualThreshold	1e-07 \
	mixFraction	0.5 \
	qMetric	0.8 \
	history	10 \
	nEigSteps	2 \
	eigDiffThreshold	1e-08 \
	mixedVariable	Density \
	qKerker	0.8 \
	qKappa	-1 \
	verbose	no \
	mixFractionMag	1.5
exchange-regularization WignerSeitzTruncated
fluid None
fluid-ex-corr (null) lda-PZ
fluid-gummel-loop 10 1.000000e-05
fluid-minimize  \
	dirUpdateScheme      PolakRibiere \
	linminMethod         DirUpdateRecommended \
	nIterations          100 \
	history              15 \
	knormThreshold       0 \
	energyDiffThreshold  0 \
	nEnergyDiff          2 \
	alphaTstart          1 \
	alphaTmin            1e-10 \
	updateTestStepSize   yes \
	alphaTreduceFactor   0.1 \
	alphaTincreaseFactor 3 \
	nAlphaAdjustMax      3 \
	wolfeEnergy          0.0001 \
	wolfeGradient        0.9 \
	fdTest               no
fluid-solvent H2O 55.338 ScalarEOS \
	epsBulk 78.4 \
	pMol 0.92466 \
	epsInf 1.77 \
	Pvap 1.06736e-10 \
	sigmaBulk 4.62e-05 \
	Rvdw 2.61727 \
	Res 1.42 \
	tauNuc 343133 \
	poleEl 15 7 1
forces-output-coords Positions
ion K   0.000000000000000   0.000000000000000   0.000000000000000 0
ion-species SG15/$ID_ONCV_PBE.upf
ion-width 0
ionic-minimize  \
	dirUpdateScheme      L-BFGS \
	linminMethod         DirUpdateRecommended \
	nIterations          0 \
	history              15 \
	knormThreshold       0.0001 \
	energyDiffThreshold  1e-06 \
	nEnergyDiff          2 \
	alphaTstart          1 \
	alphaTmin            1e-10 \
	updateTestStepSize   yes \
	alphaTreduceFactor   0.1 \
	alphaTincreaseFactor 3 \
	nAlphaAdjustMax      3 \
	wolfeEnergy          0.0001 \
	wolfeGradient        0.9 \
	fdTest               no
kpoint   0.000000000000   0.000000000000   0.000000000000  1.00000000000000
kpoint-folding 12 12 1 
latt-move-scale 1 1 1
latt-scale 1.49 1.49 1 
lattice  \
	   4.727486978767153   -2.363743489383575    0.000000000000000  \
	  -0.000000000000000    4.094123819672498    0.000000000000000  \
	   0.000000000000000    0.000000000000000   40.000000000000000 
lattice-minimize  \
	dirUpdateScheme      L-BFGS \
	linminMethod         DirUpdateRecommended \
	nIterations          0 \
	history              15 \
	knormThreshold       0 \
	energyDiffThreshold  1e-06 \
	nEnergyDiff          2 \
	alphaTstart          1 \
	alphaTmin            1e-10 \
	updateTestStepSize   yes \
	alphaTreduceFactor   0.1 \
	alphaTincreaseFactor 3 \
	nAlphaAdjustMax      3 \
	wolfeEnergy          0.0001 \
	wolfeGradient        0.9 \
	fdTest               no
lcao-params -1 1e-06 0.01
pcm-variant GLSSA13
spintype no-spin
subspace-rotation-factor 1 yes
symmetries automatic
symmetry-threshold 0.0001



---------- Setting up symmetries ----------

Found 24 point-group symmetries of the bravais lattice
Found 24 space-group symmetries with basis
Applied RMS atom displacement 0 bohrs to make symmetries exact.

---------- Initializing the Grid ----------
R = 
[      7.04396     -3.52198            0  ]
[            0      6.10024            0  ]
[            0            0           40  ]
unit cell volume = 1718.79
G =
[   0.891997   0.514995         -0  ]
[          0    1.02999         -0  ]
[         -0         -0    0.15708  ]
Minimum fftbox size, Smin = [  32  32  164  ]
Chosen fftbox size, S = [  32  32  168  ]

---------- Exchange Correlation functional ----------
Initalized PBE GGA exchange.
Initalized PBE GGA correlation.

---------- Setting up pseudopotentials ----------
Width of ionic core gaussian charges (only for fluid interactions / plotting) set to 0

Reading pseudopotential file '/home/gridsan/aligho/DFT/build-Nov24/pseudopotentials/SG15/K_ONCV_PBE.upf':
  'K' pseudopotential, 'PBE' functional
  Generated using ONCVPSP code by D. R. Hamann
  Author: Martin Schlipf and Francois Gygi  Date: 150915.
  9 valence electrons, 3 orbitals, 6 projectors, 2222 radial grid points, with lMax = 2
  Transforming local potential to a uniform radial grid of dG=0.02 with 1578 points.
  Transforming nonlocal projectors to a uniform radial grid of dG=0.02 with 432 points.
    3S    l: 0   occupation:  2.0   eigenvalue: -1.298836
    3P    l: 1   occupation:  6.0   eigenvalue: -0.691386
    4S    l: 0   occupation:  1.0   eigenvalue: -0.085223
  Transforming atomic orbitals to a uniform radial grid of dG=0.02 with 432 points.
  Core radius for overlap checks: 2.06 bohrs.
  Reading pulay file /home/gridsan/aligho/DFT/build-Nov24/pseudopotentials/SG15/K_ONCV_PBE.pulay ... using dE_dnG = -1.597219e-05 computed for Ecut = 20.

Initialized 1 species with 1 total atoms.

Folded 1 k-points by 12x12x1 to 144 k-points.

---------- Setting up k-points, bands, fillings ----------
Reduced to 19 k-points under symmetry. 
Computing the number of bands and number of electrons
Calculating initial fillings.
nElectrons:   9.000000   nBands: 6   nStates: 19

----- Setting up reduced wavefunction bases (one per k-point) -----
average nbasis = 7341.688 , ideal nbasis = 7342.819

---------- Setting up coulomb interaction ----------
Initialized slab truncation along lattice direction 001

---------- Setting up 2D ewald sum ----------
Optimum gaussian width for ewald sums = 3.910520 bohr.
Real space sums over 289 unit cells with max indices [  8  8  0  ]
Reciprocal space sums over 81 terms with max indices [  4  4  0  ]

---------- Allocating electronic variables ----------
Initializing wave functions:  linear combination of atomic orbitals
Note: number of bands (6) exceeds available atomic orbitals (5)
K pseudo-atom occupations:   s ( 2 1 )  p ( 6 )
	FillingsUpdate:  mu: -0.113291099  nElectrons: 9.000000
LCAOMinimize: Iter:   0  F: -28.3881943552721623  |grad|_K:  2.276e-05  alpha:  1.000e+00
	FillingsUpdate:  mu: -0.113270263  nElectrons: 9.000000
LCAOMinimize: Iter:   1  F: -28.3881945306293133  |grad|_K:  2.193e-07  alpha:  9.899e-01  linmin: -4.094e-02  cgtest:  9.798e-01  t[s]:      1.82
LCAOMinimize: Encountered beta<0, resetting CG.
	FillingsUpdate:  mu: -0.113270051  nElectrons: 9.000000
LCAOMinimize: Iter:   2  F: -28.3881945306446219  |grad|_K:  4.620e-09  alpha:  9.790e-01  linmin: -7.789e-02  cgtest:  9.774e-01  t[s]:      2.24
LCAOMinimize: Encountered beta<0, resetting CG.
LCAOMinimize: Converged (|Delta F|<1.000000e-06 for 2 iters).


---- Citations for features of the code used in this run ----

   Software package:
      R. Sundararaman, K. Letchworth-Weaver, K.A. Schwarz, D. Gunceler, Y. Ozhabes and T.A. Arias, 'JDFTx: software for joint density-functional theory', SoftwareX 6, 278 (2017)

   gga-PBE exchange-correlation functional:
      J.P. Perdew, K. Burke and M. Ernzerhof, Phys. Rev. Lett. 77, 3865 (1996)

   Pseudopotentials:
      M Schlipf and F Gygi, Comput. Phys. Commun. 196, 36 (2015)

   Truncated Coulomb potentials:
      R. Sundararaman and T.A. Arias, Phys. Rev. B 87, 165122 (2013)

This list may not be complete. Please suggest additional citations or
report any other bugs at https://github.com/shankar1729/jdftx/issues

Initialization completed successfully at t[s]:      2.28


-------- Electronic minimization -----------
Will mix electronic density at each iteration.
	FillingsUpdate:  mu: -0.113270051  nElectrons: 9.000000
	FillingsUpdate:  mu: -0.124331494  nElectrons: 9.000000
SCF: Cycle:  0   F: -28.393917922407841   dF: -5.723e-03   |Residual|: 1.742e-02   |deigs|: 1.831e-01  t[s]:      3.04
	FillingsUpdate:  mu: -0.124100420  nElectrons: 9.000000
SCF: Cycle:  1   F: -28.394560303403548   dF: -6.424e-04   |Residual|: 1.253e-02   |deigs|: 1.136e-02  t[s]:      3.58
	FillingsUpdate:  mu: -0.118721660  nElectrons: 9.000000
SCF: Cycle:  2   F: -28.395056987897206   dF: -4.967e-04   |Residual|: 6.048e-03   |deigs|: 6.071e-03  t[s]:      4.14
	FillingsUpdate:  mu: -0.115639191  nElectrons: 9.000000
SCF: Cycle:  3   F: -28.395354502360842   dF: -2.975e-04   |Residual|: 4.811e-03   |deigs|: 8.175e-03  t[s]:      4.72
[d-4-14-3:37634] 18 more processes have sent help message help-mpi-common-cuda.txt / dlopen failed
[d-4-14-3:37634] Set MCA parameter "orte_base_help_aggregate" to 0 to see all help / error messages
[d-4-14-3:37634] 18 more processes have sent help message help-mpi-btl-openib-cpc-base.txt / no cpcs for port
	FillingsUpdate:  mu: -0.114364359  nElectrons: 9.000000
SCF: Cycle:  4   F: -28.395636979679630   dF: -2.825e-04   |Residual|: 3.091e-03   |deigs|: 4.463e-03  t[s]:      5.30
	FillingsUpdate:  mu: -0.112203936  nElectrons: 9.000000
SCF: Cycle:  5   F: -28.395836944787643   dF: -2.000e-04   |Residual|: 2.119e-03   |deigs|: 3.581e-03  t[s]:      5.88
	FillingsUpdate:  mu: -0.113285751  nElectrons: 9.000000
SCF: Cycle:  6   F: -28.395919311809585   dF: -8.237e-05   |Residual|: 2.292e-03   |deigs|: 2.097e-03  t[s]:      6.46
	FillingsUpdate:  mu: -0.114604544  nElectrons: 9.000000
SCF: Cycle:  7   F: -28.396250027312266   dF: -3.307e-04   |Residual|: 3.571e-03   |deigs|: 4.322e-03  t[s]:      7.06
	FillingsUpdate:  mu: -0.113343921  nElectrons: 9.000000
SCF: Cycle:  8   F: -28.396358095933291   dF: -1.081e-04   |Residual|: 3.202e-03   |deigs|: 1.954e-03  t[s]:      7.66
	FillingsUpdate:  mu: -0.115331274  nElectrons: 9.000000
SCF: Cycle:  9   F: -28.396393054814375   dF: -3.496e-05   |Residual|: 2.688e-03   |deigs|: 1.949e-03  t[s]:      8.26
	FillingsUpdate:  mu: -0.114542705  nElectrons: 9.000000
SCF: Cycle: 10   F: -28.396401074789708   dF: -8.020e-06   |Residual|: 5.629e-03   |deigs|: 5.849e-04  t[s]:      8.87
	FillingsUpdate:  mu: -0.113914710  nElectrons: 9.000000
SCF: Cycle: 11   F: -28.396430851011324   dF: -2.978e-05   |Residual|: 4.643e-03   |deigs|: 2.218e-03  t[s]:      9.48
	FillingsUpdate:  mu: -0.112054988  nElectrons: 9.000000
SCF: Cycle: 12   F: -28.396461857475142   dF: -3.101e-05   |Residual|: 3.849e-03   |deigs|: 2.318e-03  t[s]:     10.10
	FillingsUpdate:  mu: -0.108862675  nElectrons: 9.000000
SCF: Cycle: 13   F: -28.396498487233345   dF: -3.663e-05   |Residual|: 3.624e-03   |deigs|: 3.809e-03  t[s]:     10.70
	FillingsUpdate:  mu: -0.102725982  nElectrons: 9.000000
SCF: Cycle: 14   F: -28.396544387977354   dF: -4.590e-05   |Residual|: 7.035e-04   |deigs|: 6.993e-03  t[s]:     11.31
	FillingsUpdate:  mu: -0.107899914  nElectrons: 9.000000
SCF: Cycle: 15   F: -28.396515153315118   dF: +2.923e-05   |Residual|: 4.179e-03   |deigs|: 6.122e-03  t[s]:     11.93
	FillingsUpdate:  mu: -0.098717422  nElectrons: 9.000000
SCF: Cycle: 16   F: -28.396563766223210   dF: -4.861e-05   |Residual|: 7.409e-04   |deigs|: 1.040e-02  t[s]:     12.52
	FillingsUpdate:  mu: -0.098993338  nElectrons: 9.000000
SCF: Cycle: 17   F: -28.396568427062547   dF: -4.661e-06   |Residual|: 5.061e-04   |deigs|: 3.051e-04  t[s]:     13.12
	FillingsUpdate:  mu: -0.101258033  nElectrons: 9.000000
SCF: Cycle: 18   F: -28.396568970509271   dF: -5.434e-07   |Residual|: 6.021e-04   |deigs|: 2.694e-03  t[s]:     13.73
	FillingsUpdate:  mu: -0.100020627  nElectrons: 9.000000
SCF: Cycle: 19   F: -28.396572609983281   dF: -3.639e-06   |Residual|: 1.490e-04   |deigs|: 1.478e-03  t[s]:     14.34
	FillingsUpdate:  mu: -0.099662577  nElectrons: 9.000000
SCF: Cycle: 20   F: -28.396574046061524   dF: -1.436e-06   |Residual|: 1.196e-04   |deigs|: 4.793e-04  t[s]:     14.94
	FillingsUpdate:  mu: -0.099936312  nElectrons: 9.000000
SCF: Cycle: 21   F: -28.396575011106787   dF: -9.650e-07   |Residual|: 1.867e-05   |deigs|: 3.503e-04  t[s]:     15.54
	FillingsUpdate:  mu: -0.099950336  nElectrons: 9.000000
SCF: Cycle: 22   F: -28.396576370776582   dF: -1.360e-06   |Residual|: 1.608e-05   |deigs|: 1.738e-04  t[s]:     16.09
	FillingsUpdate:  mu: -0.099947034  nElectrons: 9.000000
SCF: Cycle: 23   F: -28.396577179319440   dF: -8.085e-07   |Residual|: 1.115e-05   |deigs|: 1.473e-04  t[s]:     16.63
	FillingsUpdate:  mu: -0.099955987  nElectrons: 9.000000
SCF: Cycle: 24   F: -28.396577657030253   dF: -4.777e-07   |Residual|: 9.166e-06   |deigs|: 7.669e-05  t[s]:     17.19
	FillingsUpdate:  mu: -0.099956493  nElectrons: 9.000000
SCF: Cycle: 25   F: -28.396578084571516   dF: -4.275e-07   |Residual|: 6.816e-06   |deigs|: 7.092e-05  t[s]:     17.75
	FillingsUpdate:  mu: -0.099951076  nElectrons: 9.000000
SCF: Cycle: 26   F: -28.396578471008340   dF: -3.864e-07   |Residual|: 2.558e-06   |deigs|: 5.912e-05  t[s]:     18.28
	FillingsUpdate:  mu: -0.099951480  nElectrons: 9.000000
SCF: Cycle: 27   F: -28.396578882807926   dF: -4.118e-07   |Residual|: 3.186e-06   |deigs|: 5.512e-05  t[s]:     18.80
	FillingsUpdate:  mu: -0.099957287  nElectrons: 9.000000
SCF: Cycle: 28   F: -28.396579148316036   dF: -2.655e-07   |Residual|: 8.978e-06   |deigs|: 5.415e-05  t[s]:     19.33
	FillingsUpdate:  mu: -0.099955478  nElectrons: 9.000000
SCF: Cycle: 29   F: -28.396579340824484   dF: -1.925e-07   |Residual|: 7.817e-06   |deigs|: 5.055e-05  t[s]:     19.87
	FillingsUpdate:  mu: -0.099953602  nElectrons: 9.000000
SCF: Cycle: 30   F: -28.396579519338896   dF: -1.785e-07   |Residual|: 7.858e-06   |deigs|: 4.637e-05  t[s]:     20.41
	FillingsUpdate:  mu: -0.099947493  nElectrons: 9.000000
SCF: Cycle: 31   F: -28.396579662932460   dF: -1.436e-07   |Residual|: 6.458e-06   |deigs|: 4.216e-05  t[s]:     20.96
	FillingsUpdate:  mu: -0.099939764  nElectrons: 9.000000
SCF: Cycle: 32   F: -28.396579793856802   dF: -1.309e-07   |Residual|: 3.705e-06   |deigs|: 4.488e-05  t[s]:     21.53
	FillingsUpdate:  mu: -0.099944354  nElectrons: 9.000000
SCF: Cycle: 33   F: -28.396580064905258   dF: -2.710e-07   |Residual|: 5.206e-06   |deigs|: 1.406e-04  t[s]:     22.06
	FillingsUpdate:  mu: -0.099939273  nElectrons: 9.000000
SCF: Cycle: 34   F: -28.396580240112698   dF: -1.752e-07   |Residual|: 5.247e-06   |deigs|: 8.206e-05  t[s]:     22.56
	FillingsUpdate:  mu: -0.099941329  nElectrons: 9.000000
SCF: Cycle: 35   F: -28.396580335691219   dF: -9.558e-08   |Residual|: 5.632e-06   |deigs|: 3.696e-05  t[s]:     23.07
	FillingsUpdate:  mu: -0.099941820  nElectrons: 9.000000
SCF: Cycle: 36   F: -28.396580424615628   dF: -8.892e-08   |Residual|: 5.758e-06   |deigs|: 3.318e-05  t[s]:     23.58
	FillingsUpdate:  mu: -0.099943065  nElectrons: 9.000000
SCF: Cycle: 37   F: -28.396580522322648   dF: -9.771e-08   |Residual|: 4.846e-06   |deigs|: 2.944e-05  t[s]:     24.09
	FillingsUpdate:  mu: -0.099945387  nElectrons: 9.000000
SCF: Cycle: 38   F: -28.396580597918909   dF: -7.560e-08   |Residual|: 6.366e-06   |deigs|: 2.748e-05  t[s]:     24.60
	FillingsUpdate:  mu: -0.099947416  nElectrons: 9.000000
SCF: Cycle: 39   F: -28.396580664554257   dF: -6.664e-08   |Residual|: 6.072e-06   |deigs|: 2.602e-05  t[s]:     25.12
	FillingsUpdate:  mu: -0.099950007  nElectrons: 9.000000
SCF: Cycle: 40   F: -28.396580723693450   dF: -5.914e-08   |Residual|: 6.865e-06   |deigs|: 2.360e-05  t[s]:     25.66
	FillingsUpdate:  mu: -0.099944513  nElectrons: 9.000000
SCF: Cycle: 41   F: -28.396580782604062   dF: -5.891e-08   |Residual|: 5.590e-06   |deigs|: 2.480e-05  t[s]:     26.17
	FillingsUpdate:  mu: -0.099945313  nElectrons: 9.000000
SCF: Cycle: 42   F: -28.396580834122560   dF: -5.152e-08   |Residual|: 5.915e-06   |deigs|: 2.233e-05  t[s]:     26.70
	FillingsUpdate:  mu: -0.099953816  nElectrons: 9.000000
SCF: Cycle: 43   F: -28.396580877755593   dF: -4.363e-08   |Residual|: 9.338e-06   |deigs|: 2.221e-05  t[s]:     27.25
	FillingsUpdate:  mu: -0.099947514  nElectrons: 9.000000
SCF: Cycle: 44   F: -28.396580919965317   dF: -4.221e-08   |Residual|: 4.609e-06   |deigs|: 1.947e-05  t[s]:     27.81
	FillingsUpdate:  mu: -0.099943281  nElectrons: 9.000000
SCF: Cycle: 45   F: -28.396580953896230   dF: -3.393e-08   |Residual|: 5.433e-06   |deigs|: 1.463e-05  t[s]:     28.37
	FillingsUpdate:  mu: -0.099949542  nElectrons: 9.000000
SCF: Cycle: 46   F: -28.396580978567059   dF: -2.467e-08   |Residual|: 1.401e-06   |deigs|: 1.362e-05  t[s]:     28.91
	FillingsUpdate:  mu: -0.099946400  nElectrons: 9.000000
SCF: Cycle: 47   F: -28.396581044794353   dF: -6.623e-08   |Residual|: 6.894e-07   |deigs|: 3.586e-05  t[s]:     29.44
	FillingsUpdate:  mu: -0.099946708  nElectrons: 9.000000
SCF: Cycle: 48   F: -28.396581090811413   dF: -4.602e-08   |Residual|: 4.806e-07   |deigs|: 2.333e-05  t[s]:     29.93
	FillingsUpdate:  mu: -0.099945912  nElectrons: 9.000000
SCF: Cycle: 49   F: -28.396581116591751   dF: -2.578e-08   |Residual|: 3.710e-07   |deigs|: 1.039e-05  t[s]:     30.44
	FillingsUpdate:  mu: -0.099945378  nElectrons: 9.000000
SCF: Cycle: 50   F: -28.396581138716737   dF: -2.212e-08   |Residual|: 3.591e-07   |deigs|: 8.638e-06  t[s]:     30.95
	FillingsUpdate:  mu: -0.099944962  nElectrons: 9.000000
SCF: Cycle: 51   F: -28.396581158805677   dF: -2.009e-08   |Residual|: 3.112e-07   |deigs|: 7.748e-06  t[s]:     31.48
	FillingsUpdate:  mu: -0.099944094  nElectrons: 9.000000
SCF: Cycle: 52   F: -28.396581176444549   dF: -1.764e-08   |Residual|: 2.047e-07   |deigs|: 6.827e-06  t[s]:     32.00
	FillingsUpdate:  mu: -0.099943918  nElectrons: 9.000000
SCF: Cycle: 53   F: -28.396581191901621   dF: -1.546e-08   |Residual|: 2.019e-07   |deigs|: 6.102e-06  t[s]:     32.51
	FillingsUpdate:  mu: -0.099943697  nElectrons: 9.000000
SCF: Cycle: 54   F: -28.396581205416108   dF: -1.351e-08   |Residual|: 2.714e-07   |deigs|: 5.414e-06  t[s]:     33.10
	FillingsUpdate:  mu: -0.099943610  nElectrons: 9.000000
SCF: Cycle: 55   F: -28.396581217421410   dF: -1.201e-08   |Residual|: 1.467e-07   |deigs|: 4.766e-06  t[s]:     33.63
	FillingsUpdate:  mu: -0.099943580  nElectrons: 9.000000
SCF: Cycle: 56   F: -28.396581229317416   dF: -1.190e-08   |Residual|: 9.412e-08   |deigs|: 4.443e-06  t[s]:     34.15
	FillingsUpdate:  mu: -0.099943525  nElectrons: 9.000000
SCF: Cycle: 57   F: -28.396581240184581   dF: -1.087e-08   |Residual|: 8.079e-08   |deigs|: 4.112e-06  t[s]:     34.66
SCF: Converged (|Residual|<1.000000e-07 for 2 iters).


# Ionic positions in lattice coordinates:
ion K   0.000000000000000   0.000000000000000   0.000000000000000 0

# Forces in Lattice coordinates:
force K  -0.000000000000000  -0.000000000000000   0.000000000000000 0

# Energy components:
   Eewald =      -24.2255383897082801
       EH =       -1.4084552700454698
     Eloc =       -5.6373196246223722
      Enl =       -2.7668205008970017
   Epulay =       -0.0000000105163375
      Exc =       -4.2978495838642816
       KE =        9.9466448386253496
-------------------------------------
     Etot =      -28.3893385410283976
       TS =        0.0072426991561826
-------------------------------------
        F =      -28.3965812401845810

IonicMinimize: Iter:   0  F: -28.396581240184581  |grad|_K:  0.000e+00  t[s]:     34.71
IonicMinimize: Converged (|grad|_K<1.000000e-04).

#--- Lowdin population analysis ---
# oxidation-state K +0.110

End date and time: Sun Jan 16 14:51:12 2022  (Duration: 0-0:00:34.71)
Done!
