0.65
--------------------------------------------------------------------------
The library attempted to open the following supporting CUDA libraries,
but each of them failed.  CUDA-aware support is disabled.
libcuda.so.1: cannot open shared object file: No such file or directory
libcuda.dylib: cannot open shared object file: No such file or directory
/usr/lib64/libcuda.so.1: cannot open shared object file: No such file or directory
/usr/lib64/libcuda.dylib: cannot open shared object file: No such file or directory
If you are not interested in CUDA-aware support, then run with
--mca opal_warn_on_missing_libcuda 0 to suppress this message.  If you are interested
in CUDA-aware support, then try setting LD_LIBRARY_PATH to the location
of libcuda.so.1 to get passed this issue.
--------------------------------------------------------------------------
--------------------------------------------------------------------------
No OpenFabrics connection schemes reported that they were able to be
used on a specific port.  As such, the openib BTL (OpenFabrics
support) will be disabled for this port.

  Local host:           d-3-15-1
  Local device:         mlx5_1
  Local port:           1
  CPCs attempted:       rdmacm, udcm
--------------------------------------------------------------------------

*************** JDFTx 1.6.0 (git hash 42ebbcc2) ***************

Start date and time: Sun Jan 16 14:50:04 2022
Executable jdftx with command-line: -i Potassium.in
Running on hosts (process indices):  d-3-15-1 (0-18)
Divided in process groups (process indices):  0 (0)  1 (1)  2 (2)  3 (3)  4 (4)  5 (5)  6 (6)  7 (7)  8 (8)  9 (9)  10 (10)  11 (11)  12 (12)  13 (13)  14 (14)  15 (15)  16 (16)  17 (17)  18 (18)
Resource initialization completed at t[s]:      0.00
Run totals: 19 processes, 48 threads, 0 GPUs


Input parsed successfully to the following command list (including defaults):

basis kpoint-dependent
coords-type Lattice
core-overlap-check vector
coulomb-interaction Slab 001
davidson-band-ratio 1.1
dump End None
dump-name $INPUT.$VAR
elec-cutoff 20
elec-eigen-algo Davidson
elec-ex-corr gga-PBE
elec-smearing Fermi 0.01
electronic-minimize  \
	dirUpdateScheme      FletcherReeves \
	linminMethod         DirUpdateRecommended \
	nIterations          100 \
	history              15 \
	knormThreshold       0 \
	energyDiffThreshold  1e-08 \
	nEnergyDiff          2 \
	alphaTstart          1 \
	alphaTmin            1e-10 \
	updateTestStepSize   yes \
	alphaTreduceFactor   0.1 \
	alphaTincreaseFactor 3 \
	nAlphaAdjustMax      3 \
	wolfeEnergy          0.0001 \
	wolfeGradient        0.9 \
	fdTest               no
electronic-scf  \
	nIterations	10000 \
	energyDiffThreshold	1e-08 \
	residualThreshold	1e-07 \
	mixFraction	0.5 \
	qMetric	0.8 \
	history	10 \
	nEigSteps	2 \
	eigDiffThreshold	1e-08 \
	mixedVariable	Density \
	qKerker	0.8 \
	qKappa	-1 \
	verbose	no \
	mixFractionMag	1.5
exchange-regularization WignerSeitzTruncated
fluid None
fluid-ex-corr (null) lda-PZ
fluid-gummel-loop 10 1.000000e-05
fluid-minimize  \
	dirUpdateScheme      PolakRibiere \
	linminMethod         DirUpdateRecommended \
	nIterations          100 \
	history              15 \
	knormThreshold       0 \
	energyDiffThreshold  0 \
	nEnergyDiff          2 \
	alphaTstart          1 \
	alphaTmin            1e-10 \
	updateTestStepSize   yes \
	alphaTreduceFactor   0.1 \
	alphaTincreaseFactor 3 \
	nAlphaAdjustMax      3 \
	wolfeEnergy          0.0001 \
	wolfeGradient        0.9 \
	fdTest               no
fluid-solvent H2O 55.338 ScalarEOS \
	epsBulk 78.4 \
	pMol 0.92466 \
	epsInf 1.77 \
	Pvap 1.06736e-10 \
	sigmaBulk 4.62e-05 \
	Rvdw 2.61727 \
	Res 1.42 \
	tauNuc 343133 \
	poleEl 15 7 1
forces-output-coords Positions
ion K   0.000000000000000   0.000000000000000   0.000000000000000 0
ion-species SG15/$ID_ONCV_PBE.upf
ion-width 0
ionic-minimize  \
	dirUpdateScheme      L-BFGS \
	linminMethod         DirUpdateRecommended \
	nIterations          0 \
	history              15 \
	knormThreshold       0.0001 \
	energyDiffThreshold  1e-06 \
	nEnergyDiff          2 \
	alphaTstart          1 \
	alphaTmin            1e-10 \
	updateTestStepSize   yes \
	alphaTreduceFactor   0.1 \
	alphaTincreaseFactor 3 \
	nAlphaAdjustMax      3 \
	wolfeEnergy          0.0001 \
	wolfeGradient        0.9 \
	fdTest               no
kpoint   0.000000000000   0.000000000000   0.000000000000  1.00000000000000
kpoint-folding 12 12 1 
latt-move-scale 1 1 1
latt-scale 0.65 0.65 1 
lattice  \
	   4.727486978767153   -2.363743489383575    0.000000000000000  \
	  -0.000000000000000    4.094123819672498    0.000000000000000  \
	   0.000000000000000    0.000000000000000   40.000000000000000 
lattice-minimize  \
	dirUpdateScheme      L-BFGS \
	linminMethod         DirUpdateRecommended \
	nIterations          0 \
	history              15 \
	knormThreshold       0 \
	energyDiffThreshold  1e-06 \
	nEnergyDiff          2 \
	alphaTstart          1 \
	alphaTmin            1e-10 \
	updateTestStepSize   yes \
	alphaTreduceFactor   0.1 \
	alphaTincreaseFactor 3 \
	nAlphaAdjustMax      3 \
	wolfeEnergy          0.0001 \
	wolfeGradient        0.9 \
	fdTest               no
lcao-params -1 1e-06 0.01
pcm-variant GLSSA13
spintype no-spin
subspace-rotation-factor 1 yes
symmetries automatic
symmetry-threshold 0.0001



---------- Setting up symmetries ----------

Found 24 point-group symmetries of the bravais lattice
Found 24 space-group symmetries with basis
Applied RMS atom displacement 0 bohrs to make symmetries exact.

---------- Initializing the Grid ----------
R = 
[      3.07287     -1.53643            0  ]
[            0      2.66118            0  ]
[            0            0           40  ]
unit cell volume = 327.098
G =
[    2.04473    1.18053         -0  ]
[          0    2.36105         -0  ]
[         -0         -0    0.15708  ]
Minimum fftbox size, Smin = [  16  16  164  ]
Chosen fftbox size, S = [  16  16  168  ]

---------- Exchange Correlation functional ----------
Initalized PBE GGA exchange.
Initalized PBE GGA correlation.

---------- Setting up pseudopotentials ----------
Width of ionic core gaussian charges (only for fluid interactions / plotting) set to 0

Reading pseudopotential file '/home/gridsan/aligho/DFT/build-Nov24/pseudopotentials/SG15/K_ONCV_PBE.upf':
  'K' pseudopotential, 'PBE' functional
  Generated using ONCVPSP code by D. R. Hamann
  Author: Martin Schlipf and Francois Gygi  Date: 150915.
  9 valence electrons, 3 orbitals, 6 projectors, 2222 radial grid points, with lMax = 2
  Transforming local potential to a uniform radial grid of dG=0.02 with 1769 points.
  Transforming nonlocal projectors to a uniform radial grid of dG=0.02 with 432 points.
    3S    l: 0   occupation:  2.0   eigenvalue: -1.298836
    3P    l: 1   occupation:  6.0   eigenvalue: -0.691386
    4S    l: 0   occupation:  1.0   eigenvalue: -0.085223
  Transforming atomic orbitals to a uniform radial grid of dG=0.02 with 432 points.
  Core radius for overlap checks: 2.06 bohrs.
  Reading pulay file /home/gridsan/aligho/DFT/build-Nov24/pseudopotentials/SG15/K_ONCV_PBE.pulay ... using dE_dnG = -1.597219e-05 computed for Ecut = 20.

Initialized 1 species with 1 total atoms.

Folded 1 k-points by 12x12x1 to 144 k-points.

---------- Setting up k-points, bands, fillings ----------
Reduced to 19 k-points under symmetry. 
Computing the number of bands and number of electrons
Calculating initial fillings.
nElectrons:   9.000000   nBands: 6   nStates: 19

----- Setting up reduced wavefunction bases (one per k-point) -----
average nbasis = 1397.729 , ideal nbasis = 1397.388

---------- Setting up coulomb interaction ----------
Initialized slab truncation along lattice direction 001

---------- Setting up 2D ewald sum ----------
Optimum gaussian width for ewald sums = 1.705931 bohr.
Real space sums over 289 unit cells with max indices [  8  8  0  ]
Reciprocal space sums over 81 terms with max indices [  4  4  0  ]

---------- Allocating electronic variables ----------
Initializing wave functions:  linear combination of atomic orbitals
Note: number of bands (6) exceeds available atomic orbitals (5)
K pseudo-atom occupations:   s ( 2 1 )  p ( 6 )
	FillingsUpdate:  mu: +0.042818824  nElectrons: 9.000000
LCAOMinimize: Iter:   0  F: -26.2712075717510345  |grad|_K:  1.705e-03  alpha:  1.000e+00
	FillingsUpdate:  mu: +0.042442794  nElectrons: 9.000000
LCAOMinimize: Iter:   1  F: -26.2719905508116440  |grad|_K:  2.124e-04  alpha:  8.348e-01  linmin: -3.634e-02  cgtest:  1.273e+00  t[s]:      0.86
LCAOMinimize: Encountered beta<0, resetting CG.
	FillingsUpdate:  mu: +0.042125225  nElectrons: 9.000000
LCAOMinimize: Iter:   2  F: -26.2720055697967112  |grad|_K:  5.393e-06  alpha:  9.684e-01  linmin: -3.884e-02  cgtest:  1.012e+00  t[s]:      1.04
LCAOMinimize: Encountered beta<0, resetting CG.
	FillingsUpdate:  mu: +0.042121434  nElectrons: 9.000000
LCAOMinimize: Iter:   3  F: -26.2720055796946355  |grad|_K:  1.959e-08  alpha:  9.955e-01  linmin: -2.092e-03  cgtest:  5.449e-02  t[s]:      1.23
LCAOMinimize: Encountered beta<0, resetting CG.
LCAOMinimize: 	Wrong curvature in test step, increasing alphaT to 2.986413e+00.
	FillingsUpdate:  mu: +0.042121533  nElectrons: 9.000000
LCAOMinimize: Iter:   4  F: -26.2720055796960068  |grad|_K:  1.824e-10  alpha: -1.173e-01  linmin:  4.094e-02  cgtest: -8.671e-01  t[s]:      1.40
LCAOMinimize: Converged (|Delta F|<1.000000e-06 for 2 iters).


---- Citations for features of the code used in this run ----

   Software package:
      R. Sundararaman, K. Letchworth-Weaver, K.A. Schwarz, D. Gunceler, Y. Ozhabes and T.A. Arias, 'JDFTx: software for joint density-functional theory', SoftwareX 6, 278 (2017)

   gga-PBE exchange-correlation functional:
      J.P. Perdew, K. Burke and M. Ernzerhof, Phys. Rev. Lett. 77, 3865 (1996)

   Pseudopotentials:
      M Schlipf and F Gygi, Comput. Phys. Commun. 196, 36 (2015)

   Truncated Coulomb potentials:
      R. Sundararaman and T.A. Arias, Phys. Rev. B 87, 165122 (2013)

This list may not be complete. Please suggest additional citations or
report any other bugs at https://github.com/shankar1729/jdftx/issues

Initialization completed successfully at t[s]:      1.44


-------- Electronic minimization -----------
Will mix electronic density at each iteration.
	FillingsUpdate:  mu: +0.042121533  nElectrons: 9.000000
	FillingsUpdate:  mu: -1.176954233  nElectrons: 9.000000
SCF: Cycle:  0   F: -26.899752038864605   dF: -6.277e-01   |Residual|: 3.726e-01   |deigs|: 1.004e+00  t[s]:      1.72
	FillingsUpdate:  mu: -1.156582854  nElectrons: 9.000000
SCF: Cycle:  1   F: -27.138574104323109   dF: -2.388e-01   |Residual|: 2.334e-01   |deigs|: 1.734e-01  t[s]:      1.89
	FillingsUpdate:  mu: -1.013303780  nElectrons: 9.000000
SCF: Cycle:  2   F: -27.216406825012271   dF: -7.783e-02   |Residual|: 1.061e-01   |deigs|: 1.752e-01  t[s]:      2.07
	FillingsUpdate:  mu: -0.869806464  nElectrons: 9.000000
SCF: Cycle:  3   F: -27.255506722448256   dF: -3.910e-02   |Residual|: 5.806e-02   |deigs|: 1.580e-01  t[s]:      2.27
	FillingsUpdate:  mu: -0.745454034  nElectrons: 9.000000
SCF: Cycle:  4   F: -27.275522323624269   dF: -2.002e-02   |Residual|: 3.372e-02   |deigs|: 1.302e-01  t[s]:      2.45
	FillingsUpdate:  mu: -0.630213756  nElectrons: 9.000000
SCF: Cycle:  5   F: -27.283383975834305   dF: -7.862e-03   |Residual|: 2.356e-02   |deigs|: 1.163e-01  t[s]:      2.63
	FillingsUpdate:  mu: -0.565847807  nElectrons: 9.000000
SCF: Cycle:  6   F: -27.287435656516845   dF: -4.052e-03   |Residual|: 1.846e-02   |deigs|: 6.433e-02  t[s]:      2.82
	FillingsUpdate:  mu: -0.515521467  nElectrons: 9.000000
SCF: Cycle:  7   F: -27.289597402406621   dF: -2.162e-03   |Residual|: 1.320e-02   |deigs|: 5.299e-02  t[s]:      3.02
	FillingsUpdate:  mu: -0.431624374  nElectrons: 9.000000
SCF: Cycle:  8   F: -27.293624734086691   dF: -4.027e-03   |Residual|: 1.864e-02   |deigs|: 8.778e-02  t[s]:      3.21
	FillingsUpdate:  mu: -0.466007877  nElectrons: 9.000000
SCF: Cycle:  9   F: -27.298865742065608   dF: -5.241e-03   |Residual|: 3.526e-02   |deigs|: 3.900e-02  t[s]:      3.40
	FillingsUpdate:  mu: -0.420116124  nElectrons: 9.000000
SCF: Cycle: 10   F: -27.305226705111231   dF: -6.361e-03   |Residual|: 2.433e-02   |deigs|: 4.720e-02  t[s]:      3.60
	FillingsUpdate:  mu: -0.370307659  nElectrons: 9.000000
SCF: Cycle: 11   F: -27.308250914901041   dF: -3.024e-03   |Residual|: 2.507e-02   |deigs|: 4.948e-02  t[s]:      3.79
	FillingsUpdate:  mu: -0.270599699  nElectrons: 9.000000
SCF: Cycle: 12   F: -27.311732045352464   dF: -3.481e-03   |Residual|: 7.482e-03   |deigs|: 1.015e-01  t[s]:      3.98
	FillingsUpdate:  mu: -0.196997962  nElectrons: 9.000000
SCF: Cycle: 13   F: -27.312457465594882   dF: -7.254e-04   |Residual|: 9.735e-03   |deigs|: 7.347e-02  t[s]:      4.18
	FillingsUpdate:  mu: -0.144457790  nElectrons: 9.000000
SCF: Cycle: 14   F: -27.312701476867939   dF: -2.440e-04   |Residual|: 1.223e-02   |deigs|: 5.094e-02  t[s]:      4.37
	FillingsUpdate:  mu: -0.141052139  nElectrons: 9.000000
SCF: Cycle: 15   F: -27.313081186444613   dF: -3.797e-04   |Residual|: 7.547e-03   |deigs|: 6.264e-03  t[s]:      4.55
	FillingsUpdate:  mu: -0.104695418  nElectrons: 9.000000
SCF: Cycle: 16   F: -27.313501080577911   dF: -4.199e-04   |Residual|: 3.503e-03   |deigs|: 3.649e-02  t[s]:      4.75
[d-3-15-1:32514] 18 more processes have sent help message help-mpi-common-cuda.txt / dlopen failed
[d-3-15-1:32514] Set MCA parameter "orte_base_help_aggregate" to 0 to see all help / error messages
[d-3-15-1:32514] 18 more processes have sent help message help-mpi-btl-openib-cpc-base.txt / no cpcs for port
	FillingsUpdate:  mu: -0.108163475  nElectrons: 9.000000
SCF: Cycle: 17   F: -27.313578424552556   dF: -7.734e-05   |Residual|: 2.309e-03   |deigs|: 8.173e-03  t[s]:      4.94
	FillingsUpdate:  mu: -0.099918403  nElectrons: 9.000000
SCF: Cycle: 18   F: -27.313657849720197   dF: -7.943e-05   |Residual|: 8.777e-04   |deigs|: 1.275e-02  t[s]:      5.12
	FillingsUpdate:  mu: -0.100612477  nElectrons: 9.000000
SCF: Cycle: 19   F: -27.313687765108458   dF: -2.992e-05   |Residual|: 5.282e-04   |deigs|: 4.835e-03  t[s]:      5.31
	FillingsUpdate:  mu: -0.103527507  nElectrons: 9.000000
SCF: Cycle: 20   F: -27.313704434465222   dF: -1.667e-05   |Residual|: 3.975e-04   |deigs|: 3.622e-03  t[s]:      5.50
	FillingsUpdate:  mu: -0.104795763  nElectrons: 9.000000
SCF: Cycle: 21   F: -27.313715326662297   dF: -1.089e-05   |Residual|: 2.977e-04   |deigs|: 1.619e-03  t[s]:      5.70
	FillingsUpdate:  mu: -0.106175297  nElectrons: 9.000000
SCF: Cycle: 22   F: -27.313721824702213   dF: -6.498e-06   |Residual|: 1.901e-04   |deigs|: 1.519e-03  t[s]:      5.88
	FillingsUpdate:  mu: -0.107634651  nElectrons: 9.000000
SCF: Cycle: 23   F: -27.313726626316498   dF: -4.802e-06   |Residual|: 1.651e-04   |deigs|: 1.550e-03  t[s]:      6.06
	FillingsUpdate:  mu: -0.106652872  nElectrons: 9.000000
SCF: Cycle: 24   F: -27.313729369317745   dF: -2.743e-06   |Residual|: 1.429e-04   |deigs|: 1.013e-03  t[s]:      6.24
	FillingsUpdate:  mu: -0.107286749  nElectrons: 9.000000
SCF: Cycle: 25   F: -27.313731464028532   dF: -2.095e-06   |Residual|: 4.053e-05   |deigs|: 6.781e-04  t[s]:      6.43
	FillingsUpdate:  mu: -0.106990884  nElectrons: 9.000000
SCF: Cycle: 26   F: -27.313732564885434   dF: -1.101e-06   |Residual|: 3.208e-05   |deigs|: 3.280e-04  t[s]:      6.61
	FillingsUpdate:  mu: -0.106979003  nElectrons: 9.000000
SCF: Cycle: 27   F: -27.313733802479806   dF: -1.238e-06   |Residual|: 3.308e-05   |deigs|: 1.383e-04  t[s]:      6.80
	FillingsUpdate:  mu: -0.106809955  nElectrons: 9.000000
SCF: Cycle: 28   F: -27.313734204984442   dF: -4.025e-07   |Residual|: 3.246e-05   |deigs|: 1.921e-04  t[s]:      6.98
	FillingsUpdate:  mu: -0.106658789  nElectrons: 9.000000
SCF: Cycle: 29   F: -27.313734479984113   dF: -2.750e-07   |Residual|: 3.092e-05   |deigs|: 1.812e-04  t[s]:      7.17
	FillingsUpdate:  mu: -0.106783960  nElectrons: 9.000000
SCF: Cycle: 30   F: -27.313734656969356   dF: -1.770e-07   |Residual|: 2.223e-05   |deigs|: 1.887e-04  t[s]:      7.35
	FillingsUpdate:  mu: -0.106791200  nElectrons: 9.000000
SCF: Cycle: 31   F: -27.313734800975887   dF: -1.440e-07   |Residual|: 1.090e-05   |deigs|: 1.595e-04  t[s]:      7.54
	FillingsUpdate:  mu: -0.106793805  nElectrons: 9.000000
SCF: Cycle: 32   F: -27.313734844591753   dF: -4.362e-08   |Residual|: 8.274e-06   |deigs|: 1.188e-04  t[s]:      7.71
	FillingsUpdate:  mu: -0.106807469  nElectrons: 9.000000
SCF: Cycle: 33   F: -27.313734871284147   dF: -2.669e-08   |Residual|: 5.301e-06   |deigs|: 7.904e-05  t[s]:      7.89
	FillingsUpdate:  mu: -0.106799307  nElectrons: 9.000000
SCF: Cycle: 34   F: -27.313734888658413   dF: -1.737e-08   |Residual|: 3.026e-06   |deigs|: 7.058e-05  t[s]:      8.08
	FillingsUpdate:  mu: -0.106819310  nElectrons: 9.000000
SCF: Cycle: 35   F: -27.313734898754145   dF: -1.010e-08   |Residual|: 1.066e-06   |deigs|: 9.970e-05  t[s]:      8.26
	FillingsUpdate:  mu: -0.106819435  nElectrons: 9.000000
SCF: Cycle: 36   F: -27.313734904689603   dF: -5.935e-09   |Residual|: 1.000e-06   |deigs|: 1.315e-04  t[s]:      8.45
	FillingsUpdate:  mu: -0.106820644  nElectrons: 9.000000
SCF: Cycle: 37   F: -27.313734907686143   dF: -2.997e-09   |Residual|: 7.199e-07   |deigs|: 9.056e-05  t[s]:      8.64
SCF: Converged (|Delta E|<1.000000e-08 for 2 iters).


# Ionic positions in lattice coordinates:
ion K   0.000000000000000   0.000000000000000   0.000000000000000 0

# Forces in Lattice coordinates:
force K  -0.000000000000000   0.000000000000000   0.000000000000000 0

# Energy components:
   Eewald =      -55.5323880010235413
       EH =      -34.1028982278260457
     Eloc =       57.7400994136297356
      Enl =       -3.7994694940776639
   Epulay =        0.0000000166590477
      Exc =       -5.1270227575360128
       KE =       13.5114683426751085
-------------------------------------
     Etot =      -27.3102107074993725
       TS =        0.0035242001867723
-------------------------------------
        F =      -27.3137349076861433

IonicMinimize: Iter:   0  F: -27.313734907686143  |grad|_K:  0.000e+00  t[s]:      8.66
IonicMinimize: Converged (|grad|_K<1.000000e-04).

#--- Lowdin population analysis ---
# oxidation-state K +1.321

End date and time: Sun Jan 16 14:50:12 2022  (Duration: 0-0:00:08.67)
Done!
