3.14
--------------------------------------------------------------------------
The library attempted to open the following supporting CUDA libraries,
but each of them failed.  CUDA-aware support is disabled.
libcuda.so.1: cannot open shared object file: No such file or directory
libcuda.dylib: cannot open shared object file: No such file or directory
/usr/lib64/libcuda.so.1: cannot open shared object file: No such file or directory
/usr/lib64/libcuda.dylib: cannot open shared object file: No such file or directory
If you are not interested in CUDA-aware support, then run with
--mca opal_warn_on_missing_libcuda 0 to suppress this message.  If you are interested
in CUDA-aware support, then try setting LD_LIBRARY_PATH to the location
of libcuda.so.1 to get passed this issue.
--------------------------------------------------------------------------
--------------------------------------------------------------------------
No OpenFabrics connection schemes reported that they were able to be
used on a specific port.  As such, the openib BTL (OpenFabrics
support) will be disabled for this port.

  Local host:           d-16-7-2
  Local device:         mlx5_1
  Local port:           1
  CPCs attempted:       rdmacm, udcm
--------------------------------------------------------------------------

*************** JDFTx 1.6.0 (git hash 42ebbcc2) ***************

Start date and time: Sun Jan 16 14:53:29 2022
Executable jdftx with command-line: -i Potassium.in
Running on hosts (process indices):  d-16-7-2 (0-18)
Divided in process groups (process indices):  0 (0)  1 (1)  2 (2)  3 (3)  4 (4)  5 (5)  6 (6)  7 (7)  8 (8)  9 (9)  10 (10)  11 (11)  12 (12)  13 (13)  14 (14)  15 (15)  16 (16)  17 (17)  18 (18)
Resource initialization completed at t[s]:      0.00
Run totals: 19 processes, 48 threads, 0 GPUs


Input parsed successfully to the following command list (including defaults):

basis kpoint-dependent
coords-type Lattice
core-overlap-check vector
coulomb-interaction Slab 001
davidson-band-ratio 1.1
dump End None
dump-name $INPUT.$VAR
elec-cutoff 20
elec-eigen-algo Davidson
elec-ex-corr gga-PBE
elec-smearing Fermi 0.01
electronic-minimize  \
	dirUpdateScheme      FletcherReeves \
	linminMethod         DirUpdateRecommended \
	nIterations          100 \
	history              15 \
	knormThreshold       0 \
	energyDiffThreshold  1e-08 \
	nEnergyDiff          2 \
	alphaTstart          1 \
	alphaTmin            1e-10 \
	updateTestStepSize   yes \
	alphaTreduceFactor   0.1 \
	alphaTincreaseFactor 3 \
	nAlphaAdjustMax      3 \
	wolfeEnergy          0.0001 \
	wolfeGradient        0.9 \
	fdTest               no
electronic-scf  \
	nIterations	10000 \
	energyDiffThreshold	1e-08 \
	residualThreshold	1e-07 \
	mixFraction	0.5 \
	qMetric	0.8 \
	history	10 \
	nEigSteps	2 \
	eigDiffThreshold	1e-08 \
	mixedVariable	Density \
	qKerker	0.8 \
	qKappa	-1 \
	verbose	no \
	mixFractionMag	1.5
exchange-regularization WignerSeitzTruncated
fluid None
fluid-ex-corr (null) lda-PZ
fluid-gummel-loop 10 1.000000e-05
fluid-minimize  \
	dirUpdateScheme      PolakRibiere \
	linminMethod         DirUpdateRecommended \
	nIterations          100 \
	history              15 \
	knormThreshold       0 \
	energyDiffThreshold  0 \
	nEnergyDiff          2 \
	alphaTstart          1 \
	alphaTmin            1e-10 \
	updateTestStepSize   yes \
	alphaTreduceFactor   0.1 \
	alphaTincreaseFactor 3 \
	nAlphaAdjustMax      3 \
	wolfeEnergy          0.0001 \
	wolfeGradient        0.9 \
	fdTest               no
fluid-solvent H2O 55.338 ScalarEOS \
	epsBulk 78.4 \
	pMol 0.92466 \
	epsInf 1.77 \
	Pvap 1.06736e-10 \
	sigmaBulk 4.62e-05 \
	Rvdw 2.61727 \
	Res 1.42 \
	tauNuc 343133 \
	poleEl 15 7 1
forces-output-coords Positions
ion K   0.000000000000000   0.000000000000000   0.000000000000000 0
ion-species SG15/$ID_ONCV_PBE.upf
ion-width 0
ionic-minimize  \
	dirUpdateScheme      L-BFGS \
	linminMethod         DirUpdateRecommended \
	nIterations          0 \
	history              15 \
	knormThreshold       0.0001 \
	energyDiffThreshold  1e-06 \
	nEnergyDiff          2 \
	alphaTstart          1 \
	alphaTmin            1e-10 \
	updateTestStepSize   yes \
	alphaTreduceFactor   0.1 \
	alphaTincreaseFactor 3 \
	nAlphaAdjustMax      3 \
	wolfeEnergy          0.0001 \
	wolfeGradient        0.9 \
	fdTest               no
kpoint   0.000000000000   0.000000000000   0.000000000000  1.00000000000000
kpoint-folding 12 12 1 
latt-move-scale 1 1 1
latt-scale 3.14 3.14 1 
lattice  \
	   4.727486978767153   -2.363743489383575    0.000000000000000  \
	  -0.000000000000000    4.094123819672498    0.000000000000000  \
	   0.000000000000000    0.000000000000000   40.000000000000000 
lattice-minimize  \
	dirUpdateScheme      L-BFGS \
	linminMethod         DirUpdateRecommended \
	nIterations          0 \
	history              15 \
	knormThreshold       0 \
	energyDiffThreshold  1e-06 \
	nEnergyDiff          2 \
	alphaTstart          1 \
	alphaTmin            1e-10 \
	updateTestStepSize   yes \
	alphaTreduceFactor   0.1 \
	alphaTincreaseFactor 3 \
	nAlphaAdjustMax      3 \
	wolfeEnergy          0.0001 \
	wolfeGradient        0.9 \
	fdTest               no
lcao-params -1 1e-06 0.01
pcm-variant GLSSA13
spintype no-spin
subspace-rotation-factor 1 yes
symmetries automatic
symmetry-threshold 0.0001



---------- Setting up symmetries ----------

Found 24 point-group symmetries of the bravais lattice
Found 24 space-group symmetries with basis
Applied RMS atom displacement 0 bohrs to make symmetries exact.

---------- Initializing the Grid ----------
R = 
[      14.8443     -7.42215            0  ]
[            0      12.8555            0  ]
[            0            0           40  ]
unit cell volume = 7633.27
G =
[   0.423272   0.244376         -0  ]
[          0   0.488753         -0  ]
[         -0         -0    0.15708  ]
Minimum fftbox size, Smin = [  60  60  164  ]
Chosen fftbox size, S = [  60  60  168  ]

---------- Exchange Correlation functional ----------
Initalized PBE GGA exchange.
Initalized PBE GGA correlation.

---------- Setting up pseudopotentials ----------
Width of ionic core gaussian charges (only for fluid interactions / plotting) set to 0

Reading pseudopotential file '/home/gridsan/aligho/DFT/build-Nov24/pseudopotentials/SG15/K_ONCV_PBE.upf':
  'K' pseudopotential, 'PBE' functional
  Generated using ONCVPSP code by D. R. Hamann
  Author: Martin Schlipf and Francois Gygi  Date: 150915.
  9 valence electrons, 3 orbitals, 6 projectors, 2222 radial grid points, with lMax = 2
  Transforming local potential to a uniform radial grid of dG=0.02 with 1436 points.
  Transforming nonlocal projectors to a uniform radial grid of dG=0.02 with 432 points.
    3S    l: 0   occupation:  2.0   eigenvalue: -1.298836
    3P    l: 1   occupation:  6.0   eigenvalue: -0.691386
    4S    l: 0   occupation:  1.0   eigenvalue: -0.085223
  Transforming atomic orbitals to a uniform radial grid of dG=0.02 with 432 points.
  Core radius for overlap checks: 2.06 bohrs.
  Reading pulay file /home/gridsan/aligho/DFT/build-Nov24/pseudopotentials/SG15/K_ONCV_PBE.pulay ... using dE_dnG = -1.597219e-05 computed for Ecut = 20.

Initialized 1 species with 1 total atoms.

Folded 1 k-points by 12x12x1 to 144 k-points.

---------- Setting up k-points, bands, fillings ----------
Reduced to 19 k-points under symmetry. 
Computing the number of bands and number of electrons
Calculating initial fillings.
nElectrons:   9.000000   nBands: 6   nStates: 19

----- Setting up reduced wavefunction bases (one per k-point) -----
average nbasis = 32612.146 , ideal nbasis = 32609.909

---------- Setting up coulomb interaction ----------
Initialized slab truncation along lattice direction 001

---------- Setting up 2D ewald sum ----------
Optimum gaussian width for ewald sums = 8.240961 bohr.
Real space sums over 289 unit cells with max indices [  8  8  0  ]
Reciprocal space sums over 81 terms with max indices [  4  4  0  ]

---------- Allocating electronic variables ----------
Initializing wave functions:  linear combination of atomic orbitals
Note: number of bands (6) exceeds available atomic orbitals (5)
K pseudo-atom occupations:   s ( 2 1 )  p ( 6 )
	FillingsUpdate:  mu: -0.086415945  nElectrons: 9.000000
LCAOMinimize: Iter:   0  F: -28.3912289468905108  |grad|_K:  9.539e-06  alpha:  1.000e+00
[d-16-7-2:03511] 18 more processes have sent help message help-mpi-common-cuda.txt / dlopen failed
[d-16-7-2:03511] Set MCA parameter "orte_base_help_aggregate" to 0 to see all help / error messages
[d-16-7-2:03511] 18 more processes have sent help message help-mpi-btl-openib-cpc-base.txt / no cpcs for port
	FillingsUpdate:  mu: -0.086419421  nElectrons: 9.000000
LCAOMinimize: Iter:   1  F: -28.3912289784366081  |grad|_K:  3.182e-08  alpha:  1.014e+00  linmin: -1.205e-02  cgtest:  1.679e-01  t[s]:      5.12
LCAOMinimize: Encountered beta<0, resetting CG.
LCAOMinimize: 	Wrong curvature in test step, increasing alphaT to 3.041388e+00.
	FillingsUpdate:  mu: -0.086419431  nElectrons: 9.000000
LCAOMinimize: Iter:   2  F: -28.3912289784388499  |grad|_K:  8.199e-10  alpha: -2.314e-01  linmin:  7.932e-02  cgtest: -9.558e-01  t[s]:      6.38
LCAOMinimize: Converged (|Delta F|<1.000000e-06 for 2 iters).


---- Citations for features of the code used in this run ----

   Software package:
      R. Sundararaman, K. Letchworth-Weaver, K.A. Schwarz, D. Gunceler, Y. Ozhabes and T.A. Arias, 'JDFTx: software for joint density-functional theory', SoftwareX 6, 278 (2017)

   gga-PBE exchange-correlation functional:
      J.P. Perdew, K. Burke and M. Ernzerhof, Phys. Rev. Lett. 77, 3865 (1996)

   Pseudopotentials:
      M Schlipf and F Gygi, Comput. Phys. Commun. 196, 36 (2015)

   Truncated Coulomb potentials:
      R. Sundararaman and T.A. Arias, Phys. Rev. B 87, 165122 (2013)

This list may not be complete. Please suggest additional citations or
report any other bugs at https://github.com/shankar1729/jdftx/issues

Initialization completed successfully at t[s]:      6.48


-------- Electronic minimization -----------
Will mix electronic density at each iteration.
	FillingsUpdate:  mu: -0.086419431  nElectrons: 9.000000
	FillingsUpdate:  mu: -0.087337793  nElectrons: 9.000000
SCF: Cycle:  0   F: -28.392127255622160   dF: -8.983e-04   |Residual|: 2.053e-03   |deigs|: 1.736e-01  t[s]:      8.99
	FillingsUpdate:  mu: -0.087691364  nElectrons: 9.000000
SCF: Cycle:  1   F: -28.392220462143289   dF: -9.321e-05   |Residual|: 1.908e-03   |deigs|: 3.849e-03  t[s]:     10.95
	FillingsUpdate:  mu: -0.088878541  nElectrons: 9.000000
SCF: Cycle:  2   F: -28.392280447164335   dF: -5.999e-05   |Residual|: 8.688e-04   |deigs|: 4.279e-03  t[s]:     12.97
	FillingsUpdate:  mu: -0.088673590  nElectrons: 9.000000
SCF: Cycle:  3   F: -28.392294971653950   dF: -1.452e-05   |Residual|: 7.314e-04   |deigs|: 1.198e-03  t[s]:     15.01
	FillingsUpdate:  mu: -0.088999614  nElectrons: 9.000000
SCF: Cycle:  4   F: -28.392313038917450   dF: -1.807e-05   |Residual|: 3.255e-04   |deigs|: 2.173e-03  t[s]:     17.09
	FillingsUpdate:  mu: -0.088991827  nElectrons: 9.000000
SCF: Cycle:  5   F: -28.392321840198491   dF: -8.801e-06   |Residual|: 2.763e-04   |deigs|: 1.036e-03  t[s]:     19.21
	FillingsUpdate:  mu: -0.088940400  nElectrons: 9.000000
SCF: Cycle:  6   F: -28.392338886251338   dF: -1.705e-05   |Residual|: 2.268e-04   |deigs|: 2.153e-03  t[s]:     21.36
	FillingsUpdate:  mu: -0.089014193  nElectrons: 9.000000
SCF: Cycle:  7   F: -28.392350363957764   dF: -1.148e-05   |Residual|: 8.153e-05   |deigs|: 9.733e-04  t[s]:     23.49
	FillingsUpdate:  mu: -0.088932950  nElectrons: 9.000000
SCF: Cycle:  8   F: -28.392355562539112   dF: -5.199e-06   |Residual|: 1.560e-04   |deigs|: 7.266e-04  t[s]:     25.66
	FillingsUpdate:  mu: -0.088888224  nElectrons: 9.000000
SCF: Cycle:  9   F: -28.392359274908369   dF: -3.712e-06   |Residual|: 8.430e-05   |deigs|: 3.959e-04  t[s]:     27.89
	FillingsUpdate:  mu: -0.088919653  nElectrons: 9.000000
SCF: Cycle: 10   F: -28.392361096275348   dF: -1.821e-06   |Residual|: 1.616e-04   |deigs|: 2.564e-04  t[s]:     30.16
	FillingsUpdate:  mu: -0.088813432  nElectrons: 9.000000
SCF: Cycle: 11   F: -28.392362481204870   dF: -1.385e-06   |Residual|: 5.319e-05   |deigs|: 2.699e-04  t[s]:     32.41
	FillingsUpdate:  mu: -0.088741025  nElectrons: 9.000000
SCF: Cycle: 12   F: -28.392363281567150   dF: -8.004e-07   |Residual|: 9.992e-05   |deigs|: 1.143e-04  t[s]:     34.66
	FillingsUpdate:  mu: -0.088623754  nElectrons: 9.000000
SCF: Cycle: 13   F: -28.392363834933011   dF: -5.534e-07   |Residual|: 5.259e-05   |deigs|: 2.769e-04  t[s]:     36.91
	FillingsUpdate:  mu: -0.088567395  nElectrons: 9.000000
SCF: Cycle: 14   F: -28.392364266837955   dF: -4.319e-07   |Residual|: 6.507e-05   |deigs|: 8.703e-05  t[s]:     39.11
	FillingsUpdate:  mu: -0.088560696  nElectrons: 9.000000
SCF: Cycle: 15   F: -28.392364640184766   dF: -3.733e-07   |Residual|: 2.800e-05   |deigs|: 6.146e-05  t[s]:     41.37
	FillingsUpdate:  mu: -0.088534491  nElectrons: 9.000000
SCF: Cycle: 16   F: -28.392364875944025   dF: -2.358e-07   |Residual|: 1.609e-05   |deigs|: 2.406e-05  t[s]:     43.59
	FillingsUpdate:  mu: -0.088532504  nElectrons: 9.000000
SCF: Cycle: 17   F: -28.392365044344867   dF: -1.684e-07   |Residual|: 1.213e-05   |deigs|: 1.564e-05  t[s]:     45.73
	FillingsUpdate:  mu: -0.088538822  nElectrons: 9.000000
SCF: Cycle: 18   F: -28.392365144945455   dF: -1.006e-07   |Residual|: 6.218e-06   |deigs|: 1.741e-05  t[s]:     47.92
	FillingsUpdate:  mu: -0.088530002  nElectrons: 9.000000
SCF: Cycle: 19   F: -28.392365216908605   dF: -7.196e-08   |Residual|: 3.723e-06   |deigs|: 1.187e-05  t[s]:     50.04
	FillingsUpdate:  mu: -0.088539363  nElectrons: 9.000000
SCF: Cycle: 20   F: -28.392365268166031   dF: -5.126e-08   |Residual|: 2.839e-06   |deigs|: 9.825e-06  t[s]:     52.10
	FillingsUpdate:  mu: -0.088540460  nElectrons: 9.000000
SCF: Cycle: 21   F: -28.392365304086319   dF: -3.592e-08   |Residual|: 2.123e-06   |deigs|: 3.306e-06  t[s]:     54.25
	FillingsUpdate:  mu: -0.088539792  nElectrons: 9.000000
SCF: Cycle: 22   F: -28.392365346887541   dF: -4.280e-08   |Residual|: 1.790e-06   |deigs|: 1.950e-06  t[s]:     56.21
	FillingsUpdate:  mu: -0.088538167  nElectrons: 9.000000
SCF: Cycle: 23   F: -28.392365375271126   dF: -2.838e-08   |Residual|: 1.201e-06   |deigs|: 2.186e-06  t[s]:     58.20
	FillingsUpdate:  mu: -0.088536630  nElectrons: 9.000000
SCF: Cycle: 24   F: -28.392365392729729   dF: -1.746e-08   |Residual|: 5.934e-07   |deigs|: 2.096e-06  t[s]:     60.16
	FillingsUpdate:  mu: -0.088536961  nElectrons: 9.000000
SCF: Cycle: 25   F: -28.392365408765208   dF: -1.604e-08   |Residual|: 4.196e-07   |deigs|: 1.968e-06  t[s]:     62.13
	FillingsUpdate:  mu: -0.088537219  nElectrons: 9.000000
SCF: Cycle: 26   F: -28.392365423899527   dF: -1.513e-08   |Residual|: 2.502e-07   |deigs|: 2.783e-06  t[s]:     64.18
	FillingsUpdate:  mu: -0.088536890  nElectrons: 9.000000
SCF: Cycle: 27   F: -28.392365442506676   dF: -1.861e-08   |Residual|: 1.919e-07   |deigs|: 4.190e-06  t[s]:     66.17
	FillingsUpdate:  mu: -0.088537355  nElectrons: 9.000000
SCF: Cycle: 28   F: -28.392365465465744   dF: -2.296e-08   |Residual|: 1.089e-07   |deigs|: 6.058e-06  t[s]:     68.15
	FillingsUpdate:  mu: -0.088537418  nElectrons: 9.000000
SCF: Cycle: 29   F: -28.392365497721443   dF: -3.226e-08   |Residual|: 3.656e-07   |deigs|: 9.379e-06  t[s]:     70.10
	FillingsUpdate:  mu: -0.088537477  nElectrons: 9.000000
SCF: Cycle: 30   F: -28.392365542689674   dF: -4.497e-08   |Residual|: 4.573e-07   |deigs|: 1.342e-05  t[s]:     72.05
	FillingsUpdate:  mu: -0.088537729  nElectrons: 9.000000
SCF: Cycle: 31   F: -28.392365604988541   dF: -6.230e-08   |Residual|: 1.007e-06   |deigs|: 1.853e-05  t[s]:     74.00
	FillingsUpdate:  mu: -0.088537800  nElectrons: 9.000000
SCF: Cycle: 32   F: -28.392365687367747   dF: -8.238e-08   |Residual|: 1.244e-06   |deigs|: 2.413e-05  t[s]:     75.91
	FillingsUpdate:  mu: -0.088538082  nElectrons: 9.000000
SCF: Cycle: 33   F: -28.392365788289005   dF: -1.009e-07   |Residual|: 2.111e-06   |deigs|: 2.880e-05  t[s]:     77.88
	FillingsUpdate:  mu: -0.088538301  nElectrons: 9.000000
SCF: Cycle: 34   F: -28.392365907918805   dF: -1.196e-07   |Residual|: 2.479e-06   |deigs|: 3.295e-05  t[s]:     79.83
	FillingsUpdate:  mu: -0.088538671  nElectrons: 9.000000
SCF: Cycle: 35   F: -28.392366038946300   dF: -1.310e-07   |Residual|: 3.577e-06   |deigs|: 3.470e-05  t[s]:     81.73
	FillingsUpdate:  mu: -0.088538963  nElectrons: 9.000000
SCF: Cycle: 36   F: -28.392366172622690   dF: -1.337e-07   |Residual|: 4.067e-06   |deigs|: 3.399e-05  t[s]:     83.63
	FillingsUpdate:  mu: -0.088539153  nElectrons: 9.000000
SCF: Cycle: 37   F: -28.392366290689324   dF: -1.181e-07   |Residual|: 5.042e-06   |deigs|: 2.890e-05  t[s]:     85.52
	FillingsUpdate:  mu: -0.088539254  nElectrons: 9.000000
SCF: Cycle: 38   F: -28.392366394187210   dF: -1.035e-07   |Residual|: 5.492e-06   |deigs|: 2.454e-05  t[s]:     87.40
	FillingsUpdate:  mu: -0.088539459  nElectrons: 9.000000
SCF: Cycle: 39   F: -28.392366474606298   dF: -8.042e-08   |Residual|: 6.110e-06   |deigs|: 1.858e-05  t[s]:     89.31
	FillingsUpdate:  mu: -0.088539542  nElectrons: 9.000000
SCF: Cycle: 40   F: -28.392366538457956   dF: -6.385e-08   |Residual|: 6.394e-06   |deigs|: 1.445e-05  t[s]:     91.26
	FillingsUpdate:  mu: -0.088539750  nElectrons: 9.000000
SCF: Cycle: 41   F: -28.392366586200964   dF: -4.774e-08   |Residual|: 6.750e-06   |deigs|: 1.066e-05  t[s]:     93.17
	FillingsUpdate:  mu: -0.088539772  nElectrons: 9.000000
SCF: Cycle: 42   F: -28.392366622756683   dF: -3.656e-08   |Residual|: 6.925e-06   |deigs|: 8.038e-06  t[s]:     95.10
	FillingsUpdate:  mu: -0.088539968  nElectrons: 9.000000
SCF: Cycle: 43   F: -28.392366649838849   dF: -2.708e-08   |Residual|: 7.091e-06   |deigs|: 5.925e-06  t[s]:     97.01
	FillingsUpdate:  mu: -0.088539941  nElectrons: 9.000000
SCF: Cycle: 44   F: -28.392366670233770   dF: -2.039e-08   |Residual|: 7.169e-06   |deigs|: 4.410e-06  t[s]:     98.91
	FillingsUpdate:  mu: -0.088540242  nElectrons: 9.000000
SCF: Cycle: 45   F: -28.392366685331151   dF: -1.510e-08   |Residual|: 7.274e-06   |deigs|: 3.269e-06  t[s]:    100.82
	FillingsUpdate:  mu: -0.088540621  nElectrons: 9.000000
SCF: Cycle: 46   F: -28.392366697000504   dF: -1.167e-08   |Residual|: 7.243e-06   |deigs|: 2.558e-06  t[s]:    102.78
	FillingsUpdate:  mu: -0.088539639  nElectrons: 9.000000
SCF: Cycle: 47   F: -28.392366705679308   dF: -8.679e-09   |Residual|: 7.585e-06   |deigs|: 2.064e-06  t[s]:    104.70
	FillingsUpdate:  mu: -0.088540135  nElectrons: 9.000000
SCF: Cycle: 48   F: -28.392366712039635   dF: -6.360e-09   |Residual|: 7.457e-06   |deigs|: 1.465e-06  t[s]:    106.69
SCF: Converged (|Delta E|<1.000000e-08 for 2 iters).


# Ionic positions in lattice coordinates:
ion K   0.000000000000000   0.000000000000000   0.000000000000000 0

# Forces in Lattice coordinates:
force K  -0.000000000000000   0.000000000000000   0.000000000000000 0

# Energy components:
   Eewald =      -11.4955580256895935
       EH =       11.2636421784304410
     Eloc =      -30.9980732943540893
      Enl =       -2.7698659144345470
   Epulay =        0.0000000046794851
      Exc =       -4.2376957696826221
       KE =        9.8594777292524824
-------------------------------------
     Etot =      -28.3780730917984485
       TS =        0.0142936202411865
-------------------------------------
        F =      -28.3923667120396352

IonicMinimize: Iter:   0  F: -28.392366712039635  |grad|_K:  0.000e+00  t[s]:    106.87
IonicMinimize: Converged (|grad|_K<1.000000e-04).

#--- Lowdin population analysis ---
# oxidation-state K +0.043

End date and time: Sun Jan 16 14:55:16 2022  (Duration: 0-0:01:46.90)
Done!
