2.96
--------------------------------------------------------------------------
The library attempted to open the following supporting CUDA libraries,
but each of them failed.  CUDA-aware support is disabled.
libcuda.so.1: cannot open shared object file: No such file or directory
libcuda.dylib: cannot open shared object file: No such file or directory
/usr/lib64/libcuda.so.1: cannot open shared object file: No such file or directory
/usr/lib64/libcuda.dylib: cannot open shared object file: No such file or directory
If you are not interested in CUDA-aware support, then run with
--mca opal_warn_on_missing_libcuda 0 to suppress this message.  If you are interested
in CUDA-aware support, then try setting LD_LIBRARY_PATH to the location
of libcuda.so.1 to get passed this issue.
--------------------------------------------------------------------------
--------------------------------------------------------------------------
No OpenFabrics connection schemes reported that they were able to be
used on a specific port.  As such, the openib BTL (OpenFabrics
support) will be disabled for this port.

  Local host:           d-16-6-2
  Local device:         mlx5_1
  Local port:           1
  CPCs attempted:       rdmacm, udcm
--------------------------------------------------------------------------

*************** JDFTx 1.6.0 (git hash 42ebbcc2) ***************

Start date and time: Sun Jan 16 14:52:53 2022
Executable jdftx with command-line: -i Potassium.in
Running on hosts (process indices):  d-16-6-2 (0-18)
Divided in process groups (process indices):  0 (0)  1 (1)  2 (2)  3 (3)  4 (4)  5 (5)  6 (6)  7 (7)  8 (8)  9 (9)  10 (10)  11 (11)  12 (12)  13 (13)  14 (14)  15 (15)  16 (16)  17 (17)  18 (18)
Resource initialization completed at t[s]:      0.00
Run totals: 19 processes, 48 threads, 0 GPUs


Input parsed successfully to the following command list (including defaults):

basis kpoint-dependent
coords-type Lattice
core-overlap-check vector
coulomb-interaction Slab 001
davidson-band-ratio 1.1
dump End None
dump-name $INPUT.$VAR
elec-cutoff 20
elec-eigen-algo Davidson
elec-ex-corr gga-PBE
elec-smearing Fermi 0.01
electronic-minimize  \
	dirUpdateScheme      FletcherReeves \
	linminMethod         DirUpdateRecommended \
	nIterations          100 \
	history              15 \
	knormThreshold       0 \
	energyDiffThreshold  1e-08 \
	nEnergyDiff          2 \
	alphaTstart          1 \
	alphaTmin            1e-10 \
	updateTestStepSize   yes \
	alphaTreduceFactor   0.1 \
	alphaTincreaseFactor 3 \
	nAlphaAdjustMax      3 \
	wolfeEnergy          0.0001 \
	wolfeGradient        0.9 \
	fdTest               no
electronic-scf  \
	nIterations	10000 \
	energyDiffThreshold	1e-08 \
	residualThreshold	1e-07 \
	mixFraction	0.5 \
	qMetric	0.8 \
	history	10 \
	nEigSteps	2 \
	eigDiffThreshold	1e-08 \
	mixedVariable	Density \
	qKerker	0.8 \
	qKappa	-1 \
	verbose	no \
	mixFractionMag	1.5
exchange-regularization WignerSeitzTruncated
fluid None
fluid-ex-corr (null) lda-PZ
fluid-gummel-loop 10 1.000000e-05
fluid-minimize  \
	dirUpdateScheme      PolakRibiere \
	linminMethod         DirUpdateRecommended \
	nIterations          100 \
	history              15 \
	knormThreshold       0 \
	energyDiffThreshold  0 \
	nEnergyDiff          2 \
	alphaTstart          1 \
	alphaTmin            1e-10 \
	updateTestStepSize   yes \
	alphaTreduceFactor   0.1 \
	alphaTincreaseFactor 3 \
	nAlphaAdjustMax      3 \
	wolfeEnergy          0.0001 \
	wolfeGradient        0.9 \
	fdTest               no
fluid-solvent H2O 55.338 ScalarEOS \
	epsBulk 78.4 \
	pMol 0.92466 \
	epsInf 1.77 \
	Pvap 1.06736e-10 \
	sigmaBulk 4.62e-05 \
	Rvdw 2.61727 \
	Res 1.42 \
	tauNuc 343133 \
	poleEl 15 7 1
forces-output-coords Positions
ion K   0.000000000000000   0.000000000000000   0.000000000000000 0
ion-species SG15/$ID_ONCV_PBE.upf
ion-width 0
ionic-minimize  \
	dirUpdateScheme      L-BFGS \
	linminMethod         DirUpdateRecommended \
	nIterations          0 \
	history              15 \
	knormThreshold       0.0001 \
	energyDiffThreshold  1e-06 \
	nEnergyDiff          2 \
	alphaTstart          1 \
	alphaTmin            1e-10 \
	updateTestStepSize   yes \
	alphaTreduceFactor   0.1 \
	alphaTincreaseFactor 3 \
	nAlphaAdjustMax      3 \
	wolfeEnergy          0.0001 \
	wolfeGradient        0.9 \
	fdTest               no
kpoint   0.000000000000   0.000000000000   0.000000000000  1.00000000000000
kpoint-folding 12 12 1 
latt-move-scale 1 1 1
latt-scale 2.96 2.96 1 
lattice  \
	   4.727486978767153   -2.363743489383575    0.000000000000000  \
	  -0.000000000000000    4.094123819672498    0.000000000000000  \
	   0.000000000000000    0.000000000000000   40.000000000000000 
lattice-minimize  \
	dirUpdateScheme      L-BFGS \
	linminMethod         DirUpdateRecommended \
	nIterations          0 \
	history              15 \
	knormThreshold       0 \
	energyDiffThreshold  1e-06 \
	nEnergyDiff          2 \
	alphaTstart          1 \
	alphaTmin            1e-10 \
	updateTestStepSize   yes \
	alphaTreduceFactor   0.1 \
	alphaTincreaseFactor 3 \
	nAlphaAdjustMax      3 \
	wolfeEnergy          0.0001 \
	wolfeGradient        0.9 \
	fdTest               no
lcao-params -1 1e-06 0.01
pcm-variant GLSSA13
spintype no-spin
subspace-rotation-factor 1 yes
symmetries automatic
symmetry-threshold 0.0001



---------- Setting up symmetries ----------

Found 24 point-group symmetries of the bravais lattice
Found 24 space-group symmetries with basis
Applied RMS atom displacement 0 bohrs to make symmetries exact.

---------- Initializing the Grid ----------
R = 
[      13.9934     -6.99668            0  ]
[            0      12.1186            0  ]
[            0            0           40  ]
unit cell volume = 6783.2
G =
[   0.449012   0.259237         -0  ]
[          0   0.518474         -0  ]
[         -0         -0    0.15708  ]
Minimum fftbox size, Smin = [  60  60  164  ]
Chosen fftbox size, S = [  60  60  168  ]

---------- Exchange Correlation functional ----------
Initalized PBE GGA exchange.
Initalized PBE GGA correlation.

---------- Setting up pseudopotentials ----------
Width of ionic core gaussian charges (only for fluid interactions / plotting) set to 0

Reading pseudopotential file '/home/gridsan/aligho/DFT/build-Nov24/pseudopotentials/SG15/K_ONCV_PBE.upf':
  'K' pseudopotential, 'PBE' functional
  Generated using ONCVPSP code by D. R. Hamann
  Author: Martin Schlipf and Francois Gygi  Date: 150915.
  9 valence electrons, 3 orbitals, 6 projectors, 2222 radial grid points, with lMax = 2
  Transforming local potential to a uniform radial grid of dG=0.02 with 1505 points.
  Transforming nonlocal projectors to a uniform radial grid of dG=0.02 with 432 points.
    3S    l: 0   occupation:  2.0   eigenvalue: -1.298836
    3P    l: 1   occupation:  6.0   eigenvalue: -0.691386
    4S    l: 0   occupation:  1.0   eigenvalue: -0.085223
  Transforming atomic orbitals to a uniform radial grid of dG=0.02 with 432 points.
  Core radius for overlap checks: 2.06 bohrs.
  Reading pulay file /home/gridsan/aligho/DFT/build-Nov24/pseudopotentials/SG15/K_ONCV_PBE.pulay ... using dE_dnG = -1.597219e-05 computed for Ecut = 20.

Initialized 1 species with 1 total atoms.

Folded 1 k-points by 12x12x1 to 144 k-points.

---------- Setting up k-points, bands, fillings ----------
Reduced to 19 k-points under symmetry. 
Computing the number of bands and number of electrons
Calculating initial fillings.
nElectrons:   9.000000   nBands: 6   nStates: 19

----- Setting up reduced wavefunction bases (one per k-point) -----
average nbasis = 28981.479 , ideal nbasis = 28978.354

---------- Setting up coulomb interaction ----------
Initialized slab truncation along lattice direction 001

---------- Setting up 2D ewald sum ----------
Optimum gaussian width for ewald sums = 7.768549 bohr.
Real space sums over 289 unit cells with max indices [  8  8  0  ]
Reciprocal space sums over 81 terms with max indices [  4  4  0  ]

---------- Allocating electronic variables ----------
Initializing wave functions:  linear combination of atomic orbitals
Note: number of bands (6) exceeds available atomic orbitals (5)
K pseudo-atom occupations:   s ( 2 1 )  p ( 6 )
	FillingsUpdate:  mu: -0.086972438  nElectrons: 9.000000
LCAOMinimize: Iter:   0  F: -28.3919416470337396  |grad|_K:  1.548e-05  alpha:  1.000e+00
[d-16-6-2:71403] 18 more processes have sent help message help-mpi-common-cuda.txt / dlopen failed
[d-16-6-2:71403] Set MCA parameter "orte_base_help_aggregate" to 0 to see all help / error messages
[d-16-6-2:71403] 18 more processes have sent help message help-mpi-btl-openib-cpc-base.txt / no cpcs for port
	FillingsUpdate:  mu: -0.086978403  nElectrons: 9.000000
LCAOMinimize: Iter:   1  F: -28.3919417302576136  |grad|_K:  5.345e-08  alpha:  1.015e+00  linmin: -2.124e-02  cgtest:  3.726e-01  t[s]:      4.92
LCAOMinimize: Encountered beta<0, resetting CG.
	FillingsUpdate:  mu: -0.086978432  nElectrons: 9.000000
LCAOMinimize: Iter:   2  F: -28.3919417302588855  |grad|_K:  2.400e-08  alpha:  1.439e+00  linmin:  3.898e-02  cgtest: -9.992e-01  t[s]:      6.15
LCAOMinimize: Converged (|Delta F|<1.000000e-06 for 2 iters).


---- Citations for features of the code used in this run ----

   Software package:
      R. Sundararaman, K. Letchworth-Weaver, K.A. Schwarz, D. Gunceler, Y. Ozhabes and T.A. Arias, 'JDFTx: software for joint density-functional theory', SoftwareX 6, 278 (2017)

   gga-PBE exchange-correlation functional:
      J.P. Perdew, K. Burke and M. Ernzerhof, Phys. Rev. Lett. 77, 3865 (1996)

   Pseudopotentials:
      M Schlipf and F Gygi, Comput. Phys. Commun. 196, 36 (2015)

   Truncated Coulomb potentials:
      R. Sundararaman and T.A. Arias, Phys. Rev. B 87, 165122 (2013)

This list may not be complete. Please suggest additional citations or
report any other bugs at https://github.com/shankar1729/jdftx/issues

Initialization completed successfully at t[s]:      6.24


-------- Electronic minimization -----------
Will mix electronic density at each iteration.
	FillingsUpdate:  mu: -0.086978432  nElectrons: 9.000000
	FillingsUpdate:  mu: -0.088462270  nElectrons: 9.000000
SCF: Cycle:  0   F: -28.393397235242389   dF: -1.456e-03   |Residual|: 2.956e-03   |deigs|: 1.741e-01  t[s]:      8.62
	FillingsUpdate:  mu: -0.088917644  nElectrons: 9.000000
SCF: Cycle:  1   F: -28.393518504107828   dF: -1.213e-04   |Residual|: 2.716e-03   |deigs|: 4.727e-03  t[s]:     10.43
	FillingsUpdate:  mu: -0.090322671  nElectrons: 9.000000
SCF: Cycle:  2   F: -28.393604830868323   dF: -8.633e-05   |Residual|: 1.112e-03   |deigs|: 5.012e-03  t[s]:     12.29
	FillingsUpdate:  mu: -0.090066128  nElectrons: 9.000000
SCF: Cycle:  3   F: -28.393634362433325   dF: -2.953e-05   |Residual|: 9.325e-04   |deigs|: 2.641e-03  t[s]:     14.20
	FillingsUpdate:  mu: -0.090359843  nElectrons: 9.000000
SCF: Cycle:  4   F: -28.393668977641287   dF: -3.462e-05   |Residual|: 3.973e-04   |deigs|: 2.670e-03  t[s]:     16.12
	FillingsUpdate:  mu: -0.090314563  nElectrons: 9.000000
SCF: Cycle:  5   F: -28.393676022896216   dF: -7.045e-06   |Residual|: 3.195e-04   |deigs|: 2.049e-04  t[s]:     18.09
	FillingsUpdate:  mu: -0.090155521  nElectrons: 9.000000
SCF: Cycle:  6   F: -28.393680855527091   dF: -4.833e-06   |Residual|: 3.129e-04   |deigs|: 1.283e-03  t[s]:     20.08
	FillingsUpdate:  mu: -0.090082293  nElectrons: 9.000000
SCF: Cycle:  7   F: -28.393688061751966   dF: -7.206e-06   |Residual|: 2.564e-04   |deigs|: 1.214e-03  t[s]:     22.14
	FillingsUpdate:  mu: -0.090051274  nElectrons: 9.000000
SCF: Cycle:  8   F: -28.393690030059890   dF: -1.968e-06   |Residual|: 2.375e-04   |deigs|: 7.257e-05  t[s]:     24.07
	FillingsUpdate:  mu: -0.089931248  nElectrons: 9.000000
SCF: Cycle:  9   F: -28.393691046686357   dF: -1.017e-06   |Residual|: 1.207e-04   |deigs|: 1.527e-04  t[s]:     26.14
	FillingsUpdate:  mu: -0.089765463  nElectrons: 9.000000
SCF: Cycle: 10   F: -28.393691714673082   dF: -6.680e-07   |Residual|: 1.181e-04   |deigs|: 1.937e-04  t[s]:     28.28
	FillingsUpdate:  mu: -0.089567862  nElectrons: 9.000000
SCF: Cycle: 11   F: -28.393692274006646   dF: -5.593e-07   |Residual|: 9.419e-05   |deigs|: 1.363e-04  t[s]:     30.40
	FillingsUpdate:  mu: -0.089473157  nElectrons: 9.000000
SCF: Cycle: 12   F: -28.393693098504919   dF: -8.245e-07   |Residual|: 6.947e-05   |deigs|: 3.145e-04  t[s]:     32.51
	FillingsUpdate:  mu: -0.089239240  nElectrons: 9.000000
SCF: Cycle: 13   F: -28.393695040257843   dF: -1.942e-06   |Residual|: 9.947e-05   |deigs|: 7.053e-04  t[s]:     34.63
	FillingsUpdate:  mu: -0.089192797  nElectrons: 9.000000
SCF: Cycle: 14   F: -28.393699589397212   dF: -4.549e-06   |Residual|: 7.711e-05   |deigs|: 8.860e-04  t[s]:     36.68
	FillingsUpdate:  mu: -0.089313509  nElectrons: 9.000000
SCF: Cycle: 15   F: -28.393703280146120   dF: -3.691e-06   |Residual|: 4.057e-05   |deigs|: 4.788e-04  t[s]:     38.65
	FillingsUpdate:  mu: -0.089226351  nElectrons: 9.000000
SCF: Cycle: 16   F: -28.393704920141140   dF: -1.640e-06   |Residual|: 3.286e-05   |deigs|: 1.783e-04  t[s]:     40.56
	FillingsUpdate:  mu: -0.089250555  nElectrons: 9.000000
SCF: Cycle: 17   F: -28.393706372280562   dF: -1.452e-06   |Residual|: 3.162e-05   |deigs|: 1.855e-04  t[s]:     42.60
	FillingsUpdate:  mu: -0.089257286  nElectrons: 9.000000
SCF: Cycle: 18   F: -28.393707674549518   dF: -1.302e-06   |Residual|: 1.779e-05   |deigs|: 2.278e-04  t[s]:     44.55
	FillingsUpdate:  mu: -0.089307515  nElectrons: 9.000000
SCF: Cycle: 19   F: -28.393709204584958   dF: -1.530e-06   |Residual|: 1.171e-05   |deigs|: 3.645e-04  t[s]:     46.58
	FillingsUpdate:  mu: -0.089289517  nElectrons: 9.000000
SCF: Cycle: 20   F: -28.393709574461266   dF: -3.699e-07   |Residual|: 6.439e-06   |deigs|: 4.819e-05  t[s]:     48.45
	FillingsUpdate:  mu: -0.089296231  nElectrons: 9.000000
SCF: Cycle: 21   F: -28.393709954609534   dF: -3.801e-07   |Residual|: 4.246e-06   |deigs|: 5.536e-05  t[s]:     50.41
	FillingsUpdate:  mu: -0.089293810  nElectrons: 9.000000
SCF: Cycle: 22   F: -28.393710159892272   dF: -2.053e-07   |Residual|: 2.954e-06   |deigs|: 2.373e-05  t[s]:     52.26
	FillingsUpdate:  mu: -0.089292527  nElectrons: 9.000000
SCF: Cycle: 23   F: -28.393710294753049   dF: -1.349e-07   |Residual|: 2.213e-06   |deigs|: 1.320e-05  t[s]:     54.08
	FillingsUpdate:  mu: -0.089296235  nElectrons: 9.000000
SCF: Cycle: 24   F: -28.393710384891271   dF: -9.014e-08   |Residual|: 1.391e-06   |deigs|: 9.104e-06  t[s]:     55.95
	FillingsUpdate:  mu: -0.089300208  nElectrons: 9.000000
SCF: Cycle: 25   F: -28.393710469094536   dF: -8.420e-08   |Residual|: 1.675e-06   |deigs|: 7.549e-06  t[s]:     57.91
	FillingsUpdate:  mu: -0.089299143  nElectrons: 9.000000
SCF: Cycle: 26   F: -28.393710526114539   dF: -5.702e-08   |Residual|: 6.835e-07   |deigs|: 3.507e-06  t[s]:     59.75
	FillingsUpdate:  mu: -0.089298236  nElectrons: 9.000000
SCF: Cycle: 27   F: -28.393710567044572   dF: -4.093e-08   |Residual|: 4.187e-07   |deigs|: 2.409e-06  t[s]:     61.66
	FillingsUpdate:  mu: -0.089298272  nElectrons: 9.000000
SCF: Cycle: 28   F: -28.393710613946915   dF: -4.690e-08   |Residual|: 4.478e-07   |deigs|: 3.079e-06  t[s]:     63.53
	FillingsUpdate:  mu: -0.089298423  nElectrons: 9.000000
SCF: Cycle: 29   F: -28.393710630893526   dF: -1.695e-08   |Residual|: 5.960e-07   |deigs|: 1.064e-06  t[s]:     65.37
	FillingsUpdate:  mu: -0.089298397  nElectrons: 9.000000
SCF: Cycle: 30   F: -28.393710644040045   dF: -1.315e-08   |Residual|: 7.198e-07   |deigs|: 6.453e-07  t[s]:     67.37
	FillingsUpdate:  mu: -0.089298685  nElectrons: 9.000000
SCF: Cycle: 31   F: -28.393710653532047   dF: -9.492e-09   |Residual|: 8.550e-07   |deigs|: 6.127e-07  t[s]:     69.21
	FillingsUpdate:  mu: -0.089298551  nElectrons: 9.000000
SCF: Cycle: 32   F: -28.393710662087802   dF: -8.556e-09   |Residual|: 9.035e-07   |deigs|: 5.916e-07  t[s]:     71.06
SCF: Converged (|Delta E|<1.000000e-08 for 2 iters).


# Ionic positions in lattice coordinates:
ion K   0.000000000000000   0.000000000000000   0.000000000000000 0

# Forces in Lattice coordinates:
force K   0.000000000000000  -0.000000000000000   0.000000000000000 0

# Energy components:
   Eewald =      -12.1946122299545010
       EH =       10.5587679125334208
     Eloc =      -29.5926751050452204
      Enl =       -2.7712972308508466
   Epulay =        0.0000000073578638
      Exc =       -4.2378759612776804
       KE =        9.8577587774163220
-------------------------------------
     Etot =      -28.3799338298206436
       TS =        0.0137768322671574
-------------------------------------
        F =      -28.3937106620878019

IonicMinimize: Iter:   0  F: -28.393710662087802  |grad|_K:  0.000e+00  t[s]:     71.22
IonicMinimize: Converged (|grad|_K<1.000000e-04).

#--- Lowdin population analysis ---
# oxidation-state K +0.056

End date and time: Sun Jan 16 14:54:04 2022  (Duration: 0-0:01:11.24)
Done!
