1.79
--------------------------------------------------------------------------
The library attempted to open the following supporting CUDA libraries,
but each of them failed.  CUDA-aware support is disabled.
libcuda.so.1: cannot open shared object file: No such file or directory
libcuda.dylib: cannot open shared object file: No such file or directory
/usr/lib64/libcuda.so.1: cannot open shared object file: No such file or directory
/usr/lib64/libcuda.dylib: cannot open shared object file: No such file or directory
If you are not interested in CUDA-aware support, then run with
--mca opal_warn_on_missing_libcuda 0 to suppress this message.  If you are interested
in CUDA-aware support, then try setting LD_LIBRARY_PATH to the location
of libcuda.so.1 to get passed this issue.
--------------------------------------------------------------------------
--------------------------------------------------------------------------
No OpenFabrics connection schemes reported that they were able to be
used on a specific port.  As such, the openib BTL (OpenFabrics
support) will be disabled for this port.

  Local host:           d-16-6-2
  Local device:         mlx5_1
  Local port:           1
  CPCs attempted:       rdmacm, udcm
--------------------------------------------------------------------------

*************** JDFTx 1.6.0 (git hash 42ebbcc2) ***************

Start date and time: Sun Jan 16 14:51:10 2022
Executable jdftx with command-line: -i Potassium.in
Running on hosts (process indices):  d-16-6-2 (0-18)
Divided in process groups (process indices):  0 (0)  1 (1)  2 (2)  3 (3)  4 (4)  5 (5)  6 (6)  7 (7)  8 (8)  9 (9)  10 (10)  11 (11)  12 (12)  13 (13)  14 (14)  15 (15)  16 (16)  17 (17)  18 (18)
Resource initialization completed at t[s]:      0.00
Run totals: 19 processes, 48 threads, 0 GPUs


Input parsed successfully to the following command list (including defaults):

basis kpoint-dependent
coords-type Lattice
core-overlap-check vector
coulomb-interaction Slab 001
davidson-band-ratio 1.1
dump End None
dump-name $INPUT.$VAR
elec-cutoff 20
elec-eigen-algo Davidson
elec-ex-corr gga-PBE
elec-smearing Fermi 0.01
electronic-minimize  \
	dirUpdateScheme      FletcherReeves \
	linminMethod         DirUpdateRecommended \
	nIterations          100 \
	history              15 \
	knormThreshold       0 \
	energyDiffThreshold  1e-08 \
	nEnergyDiff          2 \
	alphaTstart          1 \
	alphaTmin            1e-10 \
	updateTestStepSize   yes \
	alphaTreduceFactor   0.1 \
	alphaTincreaseFactor 3 \
	nAlphaAdjustMax      3 \
	wolfeEnergy          0.0001 \
	wolfeGradient        0.9 \
	fdTest               no
electronic-scf  \
	nIterations	10000 \
	energyDiffThreshold	1e-08 \
	residualThreshold	1e-07 \
	mixFraction	0.5 \
	qMetric	0.8 \
	history	10 \
	nEigSteps	2 \
	eigDiffThreshold	1e-08 \
	mixedVariable	Density \
	qKerker	0.8 \
	qKappa	-1 \
	verbose	no \
	mixFractionMag	1.5
exchange-regularization WignerSeitzTruncated
fluid None
fluid-ex-corr (null) lda-PZ
fluid-gummel-loop 10 1.000000e-05
fluid-minimize  \
	dirUpdateScheme      PolakRibiere \
	linminMethod         DirUpdateRecommended \
	nIterations          100 \
	history              15 \
	knormThreshold       0 \
	energyDiffThreshold  0 \
	nEnergyDiff          2 \
	alphaTstart          1 \
	alphaTmin            1e-10 \
	updateTestStepSize   yes \
	alphaTreduceFactor   0.1 \
	alphaTincreaseFactor 3 \
	nAlphaAdjustMax      3 \
	wolfeEnergy          0.0001 \
	wolfeGradient        0.9 \
	fdTest               no
fluid-solvent H2O 55.338 ScalarEOS \
	epsBulk 78.4 \
	pMol 0.92466 \
	epsInf 1.77 \
	Pvap 1.06736e-10 \
	sigmaBulk 4.62e-05 \
	Rvdw 2.61727 \
	Res 1.42 \
	tauNuc 343133 \
	poleEl 15 7 1
forces-output-coords Positions
ion K   0.000000000000000   0.000000000000000   0.000000000000000 0
ion-species SG15/$ID_ONCV_PBE.upf
ion-width 0
ionic-minimize  \
	dirUpdateScheme      L-BFGS \
	linminMethod         DirUpdateRecommended \
	nIterations          0 \
	history              15 \
	knormThreshold       0.0001 \
	energyDiffThreshold  1e-06 \
	nEnergyDiff          2 \
	alphaTstart          1 \
	alphaTmin            1e-10 \
	updateTestStepSize   yes \
	alphaTreduceFactor   0.1 \
	alphaTincreaseFactor 3 \
	nAlphaAdjustMax      3 \
	wolfeEnergy          0.0001 \
	wolfeGradient        0.9 \
	fdTest               no
kpoint   0.000000000000   0.000000000000   0.000000000000  1.00000000000000
kpoint-folding 12 12 1 
latt-move-scale 1 1 1
latt-scale 1.79 1.79 1 
lattice  \
	   4.727486978767153   -2.363743489383575    0.000000000000000  \
	  -0.000000000000000    4.094123819672498    0.000000000000000  \
	   0.000000000000000    0.000000000000000   40.000000000000000 
lattice-minimize  \
	dirUpdateScheme      L-BFGS \
	linminMethod         DirUpdateRecommended \
	nIterations          0 \
	history              15 \
	knormThreshold       0 \
	energyDiffThreshold  1e-06 \
	nEnergyDiff          2 \
	alphaTstart          1 \
	alphaTmin            1e-10 \
	updateTestStepSize   yes \
	alphaTreduceFactor   0.1 \
	alphaTincreaseFactor 3 \
	nAlphaAdjustMax      3 \
	wolfeEnergy          0.0001 \
	wolfeGradient        0.9 \
	fdTest               no
lcao-params -1 1e-06 0.01
pcm-variant GLSSA13
spintype no-spin
subspace-rotation-factor 1 yes
symmetries automatic
symmetry-threshold 0.0001



---------- Setting up symmetries ----------

Found 24 point-group symmetries of the bravais lattice
Found 24 space-group symmetries with basis
Applied RMS atom displacement 0 bohrs to make symmetries exact.

---------- Initializing the Grid ----------
R = 
[       8.4622      -4.2311            0  ]
[            0      7.32848            0  ]
[            0            0           40  ]
unit cell volume = 2480.6
G =
[     0.7425   0.428683         -0  ]
[          0   0.857365         -0  ]
[         -0         -0    0.15708  ]
Minimum fftbox size, Smin = [  36  36  164  ]
Chosen fftbox size, S = [  36  36  168  ]

---------- Exchange Correlation functional ----------
Initalized PBE GGA exchange.
Initalized PBE GGA correlation.

---------- Setting up pseudopotentials ----------
Width of ionic core gaussian charges (only for fluid interactions / plotting) set to 0

Reading pseudopotential file '/home/gridsan/aligho/DFT/build-Nov24/pseudopotentials/SG15/K_ONCV_PBE.upf':
  'K' pseudopotential, 'PBE' functional
  Generated using ONCVPSP code by D. R. Hamann
  Author: Martin Schlipf and Francois Gygi  Date: 150915.
  9 valence electrons, 3 orbitals, 6 projectors, 2222 radial grid points, with lMax = 2
  Transforming local potential to a uniform radial grid of dG=0.02 with 1496 points.
  Transforming nonlocal projectors to a uniform radial grid of dG=0.02 with 432 points.
    3S    l: 0   occupation:  2.0   eigenvalue: -1.298836
    3P    l: 1   occupation:  6.0   eigenvalue: -0.691386
    4S    l: 0   occupation:  1.0   eigenvalue: -0.085223
  Transforming atomic orbitals to a uniform radial grid of dG=0.02 with 432 points.
  Core radius for overlap checks: 2.06 bohrs.
  Reading pulay file /home/gridsan/aligho/DFT/build-Nov24/pseudopotentials/SG15/K_ONCV_PBE.pulay ... using dE_dnG = -1.597219e-05 computed for Ecut = 20.

Initialized 1 species with 1 total atoms.

Folded 1 k-points by 12x12x1 to 144 k-points.

---------- Setting up k-points, bands, fillings ----------
Reduced to 19 k-points under symmetry. 
Computing the number of bands and number of electrons
Calculating initial fillings.
nElectrons:   9.000000   nBands: 6   nStates: 19

----- Setting up reduced wavefunction bases (one per k-point) -----
average nbasis = 10598.021 , ideal nbasis = 10597.328

---------- Setting up coulomb interaction ----------
Initialized slab truncation along lattice direction 001

---------- Setting up 2D ewald sum ----------
Optimum gaussian width for ewald sums = 4.697873 bohr.
Real space sums over 289 unit cells with max indices [  8  8  0  ]
Reciprocal space sums over 81 terms with max indices [  4  4  0  ]

---------- Allocating electronic variables ----------
Initializing wave functions:  linear combination of atomic orbitals
Note: number of bands (6) exceeds available atomic orbitals (5)
K pseudo-atom occupations:   s ( 2 1 )  p ( 6 )
	FillingsUpdate:  mu: -0.102222980  nElectrons: 9.000000
LCAOMinimize: Iter:   0  F: -28.4021327911039521  |grad|_K:  7.947e-06  alpha:  1.000e+00
	FillingsUpdate:  mu: -0.102217744  nElectrons: 9.000000
LCAOMinimize: Iter:   1  F: -28.4021328126607244  |grad|_K:  3.896e-08  alpha:  9.981e-01  linmin: -1.918e-02  cgtest:  3.907e-01  t[s]:      2.22
LCAOMinimize: Encountered beta<0, resetting CG.
LCAOMinimize: 	Predicted alpha/alphaT>3.000000, increasing alphaT to 2.994294e+00.
	FillingsUpdate:  mu: -0.102217753  nElectrons: 9.000000
LCAOMinimize: Iter:   2  F: -28.4021328126617583  |grad|_K:  3.451e-09  alpha:  1.073e+00  linmin:  4.269e-02  cgtest: -9.849e-01  t[s]:      2.99
LCAOMinimize: Converged (|Delta F|<1.000000e-06 for 2 iters).


---- Citations for features of the code used in this run ----

   Software package:
      R. Sundararaman, K. Letchworth-Weaver, K.A. Schwarz, D. Gunceler, Y. Ozhabes and T.A. Arias, 'JDFTx: software for joint density-functional theory', SoftwareX 6, 278 (2017)

   gga-PBE exchange-correlation functional:
      J.P. Perdew, K. Burke and M. Ernzerhof, Phys. Rev. Lett. 77, 3865 (1996)

   Pseudopotentials:
      M Schlipf and F Gygi, Comput. Phys. Commun. 196, 36 (2015)

   Truncated Coulomb potentials:
      R. Sundararaman and T.A. Arias, Phys. Rev. B 87, 165122 (2013)

This list may not be complete. Please suggest additional citations or
report any other bugs at https://github.com/shankar1729/jdftx/issues

Initialization completed successfully at t[s]:      3.04


-------- Electronic minimization -----------
Will mix electronic density at each iteration.
	FillingsUpdate:  mu: -0.102217753  nElectrons: 9.000000
	FillingsUpdate:  mu: -0.113621173  nElectrons: 9.000000
SCF: Cycle:  0   F: -28.407736480211447   dF: -5.604e-03   |Residual|: 1.042e-02   |deigs|: 1.744e-01  t[s]:      4.06
	FillingsUpdate:  mu: -0.113511368  nElectrons: 9.000000
SCF: Cycle:  1   F: -28.407985034396464   dF: -2.486e-04   |Residual|: 8.111e-03   |deigs|: 6.352e-03  t[s]:      4.79
[d-16-6-2:73751] 18 more processes have sent help message help-mpi-common-cuda.txt / dlopen failed
[d-16-6-2:73751] Set MCA parameter "orte_base_help_aggregate" to 0 to see all help / error messages
[d-16-6-2:73751] 18 more processes have sent help message help-mpi-btl-openib-cpc-base.txt / no cpcs for port
	FillingsUpdate:  mu: -0.110306454  nElectrons: 9.000000
SCF: Cycle:  2   F: -28.408198668323131   dF: -2.136e-04   |Residual|: 3.609e-03   |deigs|: 5.502e-03  t[s]:      5.55
	FillingsUpdate:  mu: -0.109196045  nElectrons: 9.000000
SCF: Cycle:  3   F: -28.408305270638380   dF: -1.066e-04   |Residual|: 2.602e-03   |deigs|: 5.189e-03  t[s]:      6.32
	FillingsUpdate:  mu: -0.108014967  nElectrons: 9.000000
SCF: Cycle:  4   F: -28.408391230971134   dF: -8.596e-05   |Residual|: 1.994e-03   |deigs|: 5.088e-03  t[s]:      7.12
	FillingsUpdate:  mu: -0.104751019  nElectrons: 9.000000
SCF: Cycle:  5   F: -28.408451578604961   dF: -6.035e-05   |Residual|: 1.224e-03   |deigs|: 4.899e-03  t[s]:      7.90
	FillingsUpdate:  mu: -0.104343119  nElectrons: 9.000000
SCF: Cycle:  6   F: -28.408494157834607   dF: -4.258e-05   |Residual|: 1.066e-03   |deigs|: 9.424e-04  t[s]:      8.68
	FillingsUpdate:  mu: -0.102778255  nElectrons: 9.000000
SCF: Cycle:  7   F: -28.408524135728971   dF: -2.998e-05   |Residual|: 1.156e-03   |deigs|: 1.613e-03  t[s]:      9.49
	FillingsUpdate:  mu: -0.101821972  nElectrons: 9.000000
SCF: Cycle:  8   F: -28.408548403271670   dF: -2.427e-05   |Residual|: 6.283e-04   |deigs|: 9.223e-04  t[s]:     10.30
	FillingsUpdate:  mu: -0.100717487  nElectrons: 9.000000
SCF: Cycle:  9   F: -28.408551380341255   dF: -2.977e-06   |Residual|: 8.196e-04   |deigs|: 8.025e-04  t[s]:     11.10
	FillingsUpdate:  mu: -0.098384947  nElectrons: 9.000000
SCF: Cycle: 10   F: -28.408562417462051   dF: -1.104e-05   |Residual|: 5.514e-04   |deigs|: 2.630e-03  t[s]:     11.95
	FillingsUpdate:  mu: -0.097413115  nElectrons: 9.000000
SCF: Cycle: 11   F: -28.408583496437185   dF: -2.108e-05   |Residual|: 6.143e-04   |deigs|: 9.966e-04  t[s]:     12.77
	FillingsUpdate:  mu: -0.095732370  nElectrons: 9.000000
SCF: Cycle: 12   F: -28.408596376359306   dF: -1.288e-05   |Residual|: 6.133e-04   |deigs|: 1.687e-03  t[s]:     13.59
	FillingsUpdate:  mu: -0.094668754  nElectrons: 9.000000
SCF: Cycle: 13   F: -28.408601406948076   dF: -5.031e-06   |Residual|: 3.061e-04   |deigs|: 1.177e-03  t[s]:     14.42
	FillingsUpdate:  mu: -0.094553797  nElectrons: 9.000000
SCF: Cycle: 14   F: -28.408604774661185   dF: -3.368e-06   |Residual|: 1.874e-04   |deigs|: 2.493e-04  t[s]:     15.26
	FillingsUpdate:  mu: -0.094342181  nElectrons: 9.000000
SCF: Cycle: 15   F: -28.408606286174798   dF: -1.512e-06   |Residual|: 9.486e-05   |deigs|: 2.024e-04  t[s]:     16.08
	FillingsUpdate:  mu: -0.094383419  nElectrons: 9.000000
SCF: Cycle: 16   F: -28.408607448800613   dF: -1.163e-06   |Residual|: 4.238e-05   |deigs|: 6.568e-05  t[s]:     16.87
	FillingsUpdate:  mu: -0.094352243  nElectrons: 9.000000
SCF: Cycle: 17   F: -28.408608121651216   dF: -6.729e-07   |Residual|: 1.639e-05   |deigs|: 4.819e-05  t[s]:     17.63
	FillingsUpdate:  mu: -0.094326526  nElectrons: 9.000000
SCF: Cycle: 18   F: -28.408608556449725   dF: -4.348e-07   |Residual|: 1.055e-05   |deigs|: 3.591e-05  t[s]:     18.42
	FillingsUpdate:  mu: -0.094338440  nElectrons: 9.000000
SCF: Cycle: 19   F: -28.408608965047819   dF: -4.086e-07   |Residual|: 8.929e-06   |deigs|: 2.268e-05  t[s]:     19.12
	FillingsUpdate:  mu: -0.094336252  nElectrons: 9.000000
SCF: Cycle: 20   F: -28.408609256084610   dF: -2.910e-07   |Residual|: 1.296e-05   |deigs|: 1.230e-05  t[s]:     19.82
	FillingsUpdate:  mu: -0.094347823  nElectrons: 9.000000
SCF: Cycle: 21   F: -28.408609456146337   dF: -2.001e-07   |Residual|: 2.437e-05   |deigs|: 1.612e-05  t[s]:     20.53
	FillingsUpdate:  mu: -0.094345123  nElectrons: 9.000000
SCF: Cycle: 22   F: -28.408609602750161   dF: -1.466e-07   |Residual|: 2.589e-05   |deigs|: 8.609e-06  t[s]:     21.26
	FillingsUpdate:  mu: -0.094340778  nElectrons: 9.000000
SCF: Cycle: 23   F: -28.408609739022932   dF: -1.363e-07   |Residual|: 2.643e-05   |deigs|: 7.796e-06  t[s]:     22.00
	FillingsUpdate:  mu: -0.094343035  nElectrons: 9.000000
SCF: Cycle: 24   F: -28.408609828049610   dF: -8.903e-08   |Residual|: 3.015e-05   |deigs|: 5.595e-06  t[s]:     22.72
	FillingsUpdate:  mu: -0.094338217  nElectrons: 9.000000
SCF: Cycle: 25   F: -28.408609885818954   dF: -5.777e-08   |Residual|: 3.108e-05   |deigs|: 6.859e-06  t[s]:     23.46
	FillingsUpdate:  mu: -0.094343107  nElectrons: 9.000000
SCF: Cycle: 26   F: -28.408609923268102   dF: -3.745e-08   |Residual|: 3.502e-05   |deigs|: 6.700e-06  t[s]:     24.20
	FillingsUpdate:  mu: -0.094322087  nElectrons: 9.000000
SCF: Cycle: 27   F: -28.408609949456640   dF: -2.619e-08   |Residual|: 2.891e-05   |deigs|: 2.398e-05  t[s]:     24.98
	FillingsUpdate:  mu: -0.094351866  nElectrons: 9.000000
SCF: Cycle: 28   F: -28.408609965184851   dF: -1.573e-08   |Residual|: 3.832e-05   |deigs|: 3.433e-05  t[s]:     25.75
	FillingsUpdate:  mu: -0.094362428  nElectrons: 9.000000
SCF: Cycle: 29   F: -28.408609976736461   dF: -1.155e-08   |Residual|: 4.190e-05   |deigs|: 1.255e-05  t[s]:     26.49
	FillingsUpdate:  mu: -0.094374909  nElectrons: 9.000000
SCF: Cycle: 30   F: -28.408609986311934   dF: -9.575e-09   |Residual|: 4.619e-05   |deigs|: 1.458e-05  t[s]:     27.26
	FillingsUpdate:  mu: -0.094369574  nElectrons: 9.000000
SCF: Cycle: 31   F: -28.408609995050316   dF: -8.738e-09   |Residual|: 4.275e-05   |deigs|: 7.925e-06  t[s]:     28.12
SCF: Converged (|Delta E|<1.000000e-08 for 2 iters).


# Ionic positions in lattice coordinates:
ion K   0.000000000000000   0.000000000000000   0.000000000000000 0

# Forces in Lattice coordinates:
force K  -0.000000000000000   0.000000000000000   0.000000000000000 0

# Energy components:
   Eewald =      -20.1653922908744789
       EH =        2.7646755647875398
     Eloc =      -13.8501410800203715
      Enl =       -2.7726775964357007
   Epulay =        0.0000000044638106
      Exc =       -4.2738883727597781
       KE =        9.8963202749376382
-------------------------------------
     Etot =      -28.4011034959013458
       TS =        0.0075064991489700
-------------------------------------
        F =      -28.4086099950503161

IonicMinimize: Iter:   0  F: -28.408609995050316  |grad|_K:  0.000e+00  t[s]:     28.19
IonicMinimize: Converged (|grad|_K<1.000000e-04).

#--- Lowdin population analysis ---
# oxidation-state K +0.072

End date and time: Sun Jan 16 14:51:38 2022  (Duration: 0-0:00:28.19)
Done!
