3.41
--------------------------------------------------------------------------
The library attempted to open the following supporting CUDA libraries,
but each of them failed.  CUDA-aware support is disabled.
libcuda.so.1: cannot open shared object file: No such file or directory
libcuda.dylib: cannot open shared object file: No such file or directory
/usr/lib64/libcuda.so.1: cannot open shared object file: No such file or directory
/usr/lib64/libcuda.dylib: cannot open shared object file: No such file or directory
If you are not interested in CUDA-aware support, then run with
--mca opal_warn_on_missing_libcuda 0 to suppress this message.  If you are interested
in CUDA-aware support, then try setting LD_LIBRARY_PATH to the location
of libcuda.so.1 to get passed this issue.
--------------------------------------------------------------------------
--------------------------------------------------------------------------
No OpenFabrics connection schemes reported that they were able to be
used on a specific port.  As such, the openib BTL (OpenFabrics
support) will be disabled for this port.

  Local host:           d-18-7-3
  Local device:         mlx5_1
  Local port:           1
  CPCs attempted:       rdmacm, udcm
--------------------------------------------------------------------------

*************** JDFTx 1.6.0 (git hash 42ebbcc2) ***************

Start date and time: Sun Jan 16 14:54:06 2022
Executable jdftx with command-line: -i Potassium.in
Running on hosts (process indices):  d-18-7-3 (0-18)
Divided in process groups (process indices):  0 (0)  1 (1)  2 (2)  3 (3)  4 (4)  5 (5)  6 (6)  7 (7)  8 (8)  9 (9)  10 (10)  11 (11)  12 (12)  13 (13)  14 (14)  15 (15)  16 (16)  17 (17)  18 (18)
Resource initialization completed at t[s]:      0.00
Run totals: 19 processes, 48 threads, 0 GPUs


Input parsed successfully to the following command list (including defaults):

basis kpoint-dependent
coords-type Lattice
core-overlap-check vector
coulomb-interaction Slab 001
davidson-band-ratio 1.1
dump End None
dump-name $INPUT.$VAR
elec-cutoff 20
elec-eigen-algo Davidson
elec-ex-corr gga-PBE
elec-smearing Fermi 0.01
electronic-minimize  \
	dirUpdateScheme      FletcherReeves \
	linminMethod         DirUpdateRecommended \
	nIterations          100 \
	history              15 \
	knormThreshold       0 \
	energyDiffThreshold  1e-08 \
	nEnergyDiff          2 \
	alphaTstart          1 \
	alphaTmin            1e-10 \
	updateTestStepSize   yes \
	alphaTreduceFactor   0.1 \
	alphaTincreaseFactor 3 \
	nAlphaAdjustMax      3 \
	wolfeEnergy          0.0001 \
	wolfeGradient        0.9 \
	fdTest               no
electronic-scf  \
	nIterations	10000 \
	energyDiffThreshold	1e-08 \
	residualThreshold	1e-07 \
	mixFraction	0.5 \
	qMetric	0.8 \
	history	10 \
	nEigSteps	2 \
	eigDiffThreshold	1e-08 \
	mixedVariable	Density \
	qKerker	0.8 \
	qKappa	-1 \
	verbose	no \
	mixFractionMag	1.5
exchange-regularization WignerSeitzTruncated
fluid None
fluid-ex-corr (null) lda-PZ
fluid-gummel-loop 10 1.000000e-05
fluid-minimize  \
	dirUpdateScheme      PolakRibiere \
	linminMethod         DirUpdateRecommended \
	nIterations          100 \
	history              15 \
	knormThreshold       0 \
	energyDiffThreshold  0 \
	nEnergyDiff          2 \
	alphaTstart          1 \
	alphaTmin            1e-10 \
	updateTestStepSize   yes \
	alphaTreduceFactor   0.1 \
	alphaTincreaseFactor 3 \
	nAlphaAdjustMax      3 \
	wolfeEnergy          0.0001 \
	wolfeGradient        0.9 \
	fdTest               no
fluid-solvent H2O 55.338 ScalarEOS \
	epsBulk 78.4 \
	pMol 0.92466 \
	epsInf 1.77 \
	Pvap 1.06736e-10 \
	sigmaBulk 4.62e-05 \
	Rvdw 2.61727 \
	Res 1.42 \
	tauNuc 343133 \
	poleEl 15 7 1
forces-output-coords Positions
ion K   0.000000000000000   0.000000000000000   0.000000000000000 0
ion-species SG15/$ID_ONCV_PBE.upf
ion-width 0
ionic-minimize  \
	dirUpdateScheme      L-BFGS \
	linminMethod         DirUpdateRecommended \
	nIterations          0 \
	history              15 \
	knormThreshold       0.0001 \
	energyDiffThreshold  1e-06 \
	nEnergyDiff          2 \
	alphaTstart          1 \
	alphaTmin            1e-10 \
	updateTestStepSize   yes \
	alphaTreduceFactor   0.1 \
	alphaTincreaseFactor 3 \
	nAlphaAdjustMax      3 \
	wolfeEnergy          0.0001 \
	wolfeGradient        0.9 \
	fdTest               no
kpoint   0.000000000000   0.000000000000   0.000000000000  1.00000000000000
kpoint-folding 12 12 1 
latt-move-scale 1 1 1
latt-scale 3.41 3.41 1 
lattice  \
	   4.727486978767153   -2.363743489383575    0.000000000000000  \
	  -0.000000000000000    4.094123819672498    0.000000000000000  \
	   0.000000000000000    0.000000000000000   40.000000000000000 
lattice-minimize  \
	dirUpdateScheme      L-BFGS \
	linminMethod         DirUpdateRecommended \
	nIterations          0 \
	history              15 \
	knormThreshold       0 \
	energyDiffThreshold  1e-06 \
	nEnergyDiff          2 \
	alphaTstart          1 \
	alphaTmin            1e-10 \
	updateTestStepSize   yes \
	alphaTreduceFactor   0.1 \
	alphaTincreaseFactor 3 \
	nAlphaAdjustMax      3 \
	wolfeEnergy          0.0001 \
	wolfeGradient        0.9 \
	fdTest               no
lcao-params -1 1e-06 0.01
pcm-variant GLSSA13
spintype no-spin
subspace-rotation-factor 1 yes
symmetries automatic
symmetry-threshold 0.0001



---------- Setting up symmetries ----------

Found 24 point-group symmetries of the bravais lattice
Found 24 space-group symmetries with basis
Applied RMS atom displacement 0 bohrs to make symmetries exact.

---------- Initializing the Grid ----------
R = 
[      16.1207     -8.06037            0  ]
[            0       13.961            0  ]
[            0            0           40  ]
unit cell volume = 9002.44
G =
[   0.389758   0.225027         -0  ]
[          0   0.450054         -0  ]
[         -0         -0    0.15708  ]
Minimum fftbox size, Smin = [  68  68  164  ]
Chosen fftbox size, S = [  70  70  168  ]

---------- Exchange Correlation functional ----------
Initalized PBE GGA exchange.
Initalized PBE GGA correlation.

---------- Setting up pseudopotentials ----------
Width of ionic core gaussian charges (only for fluid interactions / plotting) set to 0

Reading pseudopotential file '/home/gridsan/aligho/DFT/build-Nov24/pseudopotentials/SG15/K_ONCV_PBE.upf':
  'K' pseudopotential, 'PBE' functional
  Generated using ONCVPSP code by D. R. Hamann
  Author: Martin Schlipf and Francois Gygi  Date: 150915.
  9 valence electrons, 3 orbitals, 6 projectors, 2222 radial grid points, with lMax = 2
  Transforming local potential to a uniform radial grid of dG=0.02 with 1521 points.
  Transforming nonlocal projectors to a uniform radial grid of dG=0.02 with 432 points.
    3S    l: 0   occupation:  2.0   eigenvalue: -1.298836
    3P    l: 1   occupation:  6.0   eigenvalue: -0.691386
    4S    l: 0   occupation:  1.0   eigenvalue: -0.085223
  Transforming atomic orbitals to a uniform radial grid of dG=0.02 with 432 points.
  Core radius for overlap checks: 2.06 bohrs.
  Reading pulay file /home/gridsan/aligho/DFT/build-Nov24/pseudopotentials/SG15/K_ONCV_PBE.pulay ... using dE_dnG = -1.597219e-05 computed for Ecut = 20.

Initialized 1 species with 1 total atoms.

Folded 1 k-points by 12x12x1 to 144 k-points.

---------- Setting up k-points, bands, fillings ----------
Reduced to 19 k-points under symmetry. 
Computing the number of bands and number of electrons
Calculating initial fillings.
nElectrons:   9.000000   nBands: 6   nStates: 19

----- Setting up reduced wavefunction bases (one per k-point) -----
average nbasis = 38461.688 , ideal nbasis = 38459.095

---------- Setting up coulomb interaction ----------
Initialized slab truncation along lattice direction 001

---------- Setting up 2D ewald sum ----------
Optimum gaussian width for ewald sums = 8.949579 bohr.
Real space sums over 289 unit cells with max indices [  8  8  0  ]
Reciprocal space sums over 81 terms with max indices [  4  4  0  ]

---------- Allocating electronic variables ----------
Initializing wave functions:  linear combination of atomic orbitals
Note: number of bands (6) exceeds available atomic orbitals (5)
K pseudo-atom occupations:   s ( 2 1 )  p ( 6 )
[d-18-7-3:87830] 18 more processes have sent help message help-mpi-common-cuda.txt / dlopen failed
[d-18-7-3:87830] Set MCA parameter "orte_base_help_aggregate" to 0 to see all help / error messages
[d-18-7-3:87830] 18 more processes have sent help message help-mpi-btl-openib-cpc-base.txt / no cpcs for port
	FillingsUpdate:  mu: -0.085864584  nElectrons: 9.000000
LCAOMinimize: Iter:   0  F: -28.3906292561301967  |grad|_K:  3.040e-06  alpha:  1.000e+00
	FillingsUpdate:  mu: -0.085865445  nElectrons: 9.000000
LCAOMinimize: Iter:   1  F: -28.3906292593136271  |grad|_K:  1.270e-08  alpha:  1.007e+00  linmin:  5.537e-04  cgtest: -1.011e-02  t[s]:      6.83
LCAOMinimize: 	Step increased F by 6.750156e-14, reducing alpha to 8.199885e-03.
LCAOMinimize: 	Step increased F by 1.421085e-14, reducing alpha to 8.199885e-04.
	FillingsUpdate:  mu: -0.085865445  nElectrons: 9.000000
LCAOMinimize: Iter:   2  F: -28.3906292593136769  |grad|_K:  1.269e-08  alpha:  8.200e-04  linmin: -4.520e-02  cgtest:  1.000e+00  t[s]:     10.46
LCAOMinimize: Encountered beta<0, resetting CG.
LCAOMinimize: Converged (|Delta F|<1.000000e-06 for 2 iters).


---- Citations for features of the code used in this run ----

   Software package:
      R. Sundararaman, K. Letchworth-Weaver, K.A. Schwarz, D. Gunceler, Y. Ozhabes and T.A. Arias, 'JDFTx: software for joint density-functional theory', SoftwareX 6, 278 (2017)

   gga-PBE exchange-correlation functional:
      J.P. Perdew, K. Burke and M. Ernzerhof, Phys. Rev. Lett. 77, 3865 (1996)

   Pseudopotentials:
      M Schlipf and F Gygi, Comput. Phys. Commun. 196, 36 (2015)

   Truncated Coulomb potentials:
      R. Sundararaman and T.A. Arias, Phys. Rev. B 87, 165122 (2013)

This list may not be complete. Please suggest additional citations or
report any other bugs at https://github.com/shankar1729/jdftx/issues

Initialization completed successfully at t[s]:     10.58


-------- Electronic minimization -----------
Will mix electronic density at each iteration.
	FillingsUpdate:  mu: -0.085865445  nElectrons: 9.000000
	FillingsUpdate:  mu: -0.086342195  nElectrons: 9.000000
SCF: Cycle:  0   F: -28.391051889153673   dF: -4.226e-04   |Residual|: 1.144e-03   |deigs|: 1.757e-01  t[s]:     13.85
	FillingsUpdate:  mu: -0.086579040  nElectrons: 9.000000
SCF: Cycle:  1   F: -28.391116082855788   dF: -6.419e-05   |Residual|: 1.083e-03   |deigs|: 3.902e-03  t[s]:     16.38
	FillingsUpdate:  mu: -0.087317466  nElectrons: 9.000000
SCF: Cycle:  2   F: -28.391138829200727   dF: -2.275e-05   |Residual|: 5.453e-04   |deigs|: 1.882e-03  t[s]:     18.97
	FillingsUpdate:  mu: -0.087081614  nElectrons: 9.000000
SCF: Cycle:  3   F: -28.391143444137953   dF: -4.615e-06   |Residual|: 5.672e-04   |deigs|: 1.078e-03  t[s]:     21.60
	FillingsUpdate:  mu: -0.087481400  nElectrons: 9.000000
SCF: Cycle:  4   F: -28.391151590037396   dF: -8.146e-06   |Residual|: 2.116e-04   |deigs|: 1.153e-03  t[s]:     24.35
	FillingsUpdate:  mu: -0.087670513  nElectrons: 9.000000
SCF: Cycle:  5   F: -28.391158877498590   dF: -7.287e-06   |Residual|: 3.211e-04   |deigs|: 1.671e-03  t[s]:     27.06
	FillingsUpdate:  mu: -0.087585163  nElectrons: 9.000000
SCF: Cycle:  6   F: -28.391170154381069   dF: -1.128e-05   |Residual|: 1.627e-04   |deigs|: 1.532e-03  t[s]:     29.75
	FillingsUpdate:  mu: -0.087567352  nElectrons: 9.000000
SCF: Cycle:  7   F: -28.391180751982311   dF: -1.060e-05   |Residual|: 5.050e-05   |deigs|: 1.943e-03  t[s]:     32.55
	FillingsUpdate:  mu: -0.087531578  nElectrons: 9.000000
SCF: Cycle:  8   F: -28.391183897898646   dF: -3.146e-06   |Residual|: 3.977e-05   |deigs|: 3.727e-04  t[s]:     35.22
	FillingsUpdate:  mu: -0.087526971  nElectrons: 9.000000
SCF: Cycle:  9   F: -28.391184689319758   dF: -7.914e-07   |Residual|: 4.087e-05   |deigs|: 5.322e-05  t[s]:     37.89
	FillingsUpdate:  mu: -0.087532605  nElectrons: 9.000000
SCF: Cycle: 10   F: -28.391186052081760   dF: -1.363e-06   |Residual|: 6.966e-05   |deigs|: 4.875e-04  t[s]:     40.86
	FillingsUpdate:  mu: -0.087527359  nElectrons: 9.000000
SCF: Cycle: 11   F: -28.391188536247576   dF: -2.484e-06   |Residual|: 3.134e-05   |deigs|: 6.440e-04  t[s]:     43.82
	FillingsUpdate:  mu: -0.087440909  nElectrons: 9.000000
SCF: Cycle: 12   F: -28.391189767254712   dF: -1.231e-06   |Residual|: 1.003e-04   |deigs|: 3.122e-04  t[s]:     46.75
	FillingsUpdate:  mu: -0.087416246  nElectrons: 9.000000
SCF: Cycle: 13   F: -28.391190160502035   dF: -3.932e-07   |Residual|: 8.748e-05   |deigs|: 4.244e-05  t[s]:     49.70
	FillingsUpdate:  mu: -0.087400994  nElectrons: 9.000000
SCF: Cycle: 14   F: -28.391190364762885   dF: -2.043e-07   |Residual|: 5.666e-05   |deigs|: 2.584e-05  t[s]:     52.65
	FillingsUpdate:  mu: -0.087399678  nElectrons: 9.000000
SCF: Cycle: 15   F: -28.391190528093258   dF: -1.633e-07   |Residual|: 2.470e-05   |deigs|: 4.724e-05  t[s]:     55.62
	FillingsUpdate:  mu: -0.087414399  nElectrons: 9.000000
SCF: Cycle: 16   F: -28.391190674613899   dF: -1.465e-07   |Residual|: 1.785e-05   |deigs|: 4.955e-05  t[s]:     58.57
	FillingsUpdate:  mu: -0.087389909  nElectrons: 9.000000
SCF: Cycle: 17   F: -28.391190851082960   dF: -1.765e-07   |Residual|: 7.270e-06   |deigs|: 4.966e-05  t[s]:     61.54
	FillingsUpdate:  mu: -0.087385214  nElectrons: 9.000000
SCF: Cycle: 18   F: -28.391191073535055   dF: -2.225e-07   |Residual|: 6.556e-06   |deigs|: 4.879e-05  t[s]:     64.48
	FillingsUpdate:  mu: -0.087391305  nElectrons: 9.000000
SCF: Cycle: 19   F: -28.391192299922640   dF: -1.226e-06   |Residual|: 9.611e-06   |deigs|: 2.888e-04  t[s]:     67.10
	FillingsUpdate:  mu: -0.087382697  nElectrons: 9.000000
SCF: Cycle: 20   F: -28.391194210861574   dF: -1.911e-06   |Residual|: 1.460e-05   |deigs|: 3.525e-04  t[s]:     69.61
	FillingsUpdate:  mu: -0.087394105  nElectrons: 9.000000
SCF: Cycle: 21   F: -28.391195851271561   dF: -1.640e-06   |Residual|: 2.072e-05   |deigs|: 2.314e-04  t[s]:     72.17
	FillingsUpdate:  mu: -0.087402358  nElectrons: 9.000000
SCF: Cycle: 22   F: -28.391196570728908   dF: -7.195e-07   |Residual|: 2.207e-05   |deigs|: 8.533e-05  t[s]:     74.72
	FillingsUpdate:  mu: -0.087394234  nElectrons: 9.000000
SCF: Cycle: 23   F: -28.391196863287394   dF: -2.926e-07   |Residual|: 2.386e-05   |deigs|: 3.570e-05  t[s]:     77.26
	FillingsUpdate:  mu: -0.087387841  nElectrons: 9.000000
SCF: Cycle: 24   F: -28.391197085149404   dF: -2.219e-07   |Residual|: 2.519e-05   |deigs|: 3.371e-05  t[s]:     79.83
	FillingsUpdate:  mu: -0.087391372  nElectrons: 9.000000
SCF: Cycle: 25   F: -28.391197249199973   dF: -1.641e-07   |Residual|: 2.587e-05   |deigs|: 2.824e-05  t[s]:     82.42
	FillingsUpdate:  mu: -0.087386393  nElectrons: 9.000000
SCF: Cycle: 26   F: -28.391197390656252   dF: -1.415e-07   |Residual|: 2.705e-05   |deigs|: 2.612e-05  t[s]:     84.93
	FillingsUpdate:  mu: -0.087388330  nElectrons: 9.000000
SCF: Cycle: 27   F: -28.391197534894570   dF: -1.442e-07   |Residual|: 2.788e-05   |deigs|: 2.733e-05  t[s]:     87.50
	FillingsUpdate:  mu: -0.087393149  nElectrons: 9.000000
SCF: Cycle: 28   F: -28.391197651558809   dF: -1.167e-07   |Residual|: 2.900e-05   |deigs|: 2.322e-05  t[s]:     90.14
	FillingsUpdate:  mu: -0.087402679  nElectrons: 9.000000
SCF: Cycle: 29   F: -28.391197767305584   dF: -1.157e-07   |Residual|: 2.829e-05   |deigs|: 2.616e-05  t[s]:     92.84
	FillingsUpdate:  mu: -0.087395216  nElectrons: 9.000000
SCF: Cycle: 30   F: -28.391197845148380   dF: -7.784e-08   |Residual|: 2.978e-05   |deigs|: 1.565e-05  t[s]:     95.48
	FillingsUpdate:  mu: -0.087395306  nElectrons: 9.000000
SCF: Cycle: 31   F: -28.391197902020473   dF: -5.687e-08   |Residual|: 2.993e-05   |deigs|: 1.094e-05  t[s]:     98.20
	FillingsUpdate:  mu: -0.087394609  nElectrons: 9.000000
SCF: Cycle: 32   F: -28.391197939237500   dF: -3.722e-08   |Residual|: 3.015e-05   |deigs|: 6.416e-06  t[s]:    100.78
	FillingsUpdate:  mu: -0.087395389  nElectrons: 9.000000
SCF: Cycle: 33   F: -28.391197961316841   dF: -2.208e-08   |Residual|: 3.035e-05   |deigs|: 3.892e-06  t[s]:    103.47
	FillingsUpdate:  mu: -0.087395183  nElectrons: 9.000000
SCF: Cycle: 34   F: -28.391197977586938   dF: -1.627e-08   |Residual|: 2.973e-05   |deigs|: 2.468e-06  t[s]:    106.20
	FillingsUpdate:  mu: -0.087398650  nElectrons: 9.000000
SCF: Cycle: 35   F: -28.391197987050283   dF: -9.463e-09   |Residual|: 3.034e-05   |deigs|: 3.348e-06  t[s]:    109.00
	FillingsUpdate:  mu: -0.087388829  nElectrons: 9.000000
SCF: Cycle: 36   F: -28.391197996464953   dF: -9.415e-09   |Residual|: 3.283e-05   |deigs|: 1.092e-05  t[s]:    111.80
SCF: Converged (|Delta E|<1.000000e-08 for 2 iters).


# Ionic positions in lattice coordinates:
ion K   0.000000000000000   0.000000000000000   0.000000000000000 0

# Forces in Lattice coordinates:
force K   0.000000000000000   0.000000000000000   0.000000000000000 0

# Energy components:
   Eewald =      -10.5853525515147560
       EH =       12.1885989699773791
     Eloc =      -32.8352910207858955
      Enl =       -2.7682601994406983
   Epulay =        0.0000000046005082
      Exc =       -4.2385031737226697
       KE =        9.8622404219722064
-------------------------------------
     Etot =      -28.3765675489139220
       TS =        0.0146304475510305
-------------------------------------
        F =      -28.3911979964649532

IonicMinimize: Iter:   0  F: -28.391197996464953  |grad|_K:  0.000e+00  t[s]:    112.02
IonicMinimize: Converged (|grad|_K<1.000000e-04).

#--- Lowdin population analysis ---
# oxidation-state K +0.028

End date and time: Sun Jan 16 14:55:58 2022  (Duration: 0-0:01:52.04)
Done!
