2.57
--------------------------------------------------------------------------
The library attempted to open the following supporting CUDA libraries,
but each of them failed.  CUDA-aware support is disabled.
libcuda.so.1: cannot open shared object file: No such file or directory
libcuda.dylib: cannot open shared object file: No such file or directory
/usr/lib64/libcuda.so.1: cannot open shared object file: No such file or directory
/usr/lib64/libcuda.dylib: cannot open shared object file: No such file or directory
If you are not interested in CUDA-aware support, then run with
--mca opal_warn_on_missing_libcuda 0 to suppress this message.  If you are interested
in CUDA-aware support, then try setting LD_LIBRARY_PATH to the location
of libcuda.so.1 to get passed this issue.
--------------------------------------------------------------------------
--------------------------------------------------------------------------
No OpenFabrics connection schemes reported that they were able to be
used on a specific port.  As such, the openib BTL (OpenFabrics
support) will be disabled for this port.

  Local host:           d-16-7-2
  Local device:         mlx5_1
  Local port:           1
  CPCs attempted:       rdmacm, udcm
--------------------------------------------------------------------------

*************** JDFTx 1.6.0 (git hash 42ebbcc2) ***************

Start date and time: Sun Jan 16 14:52:17 2022
Executable jdftx with command-line: -i Potassium.in
Running on hosts (process indices):  d-16-7-2 (0-18)
Divided in process groups (process indices):  0 (0)  1 (1)  2 (2)  3 (3)  4 (4)  5 (5)  6 (6)  7 (7)  8 (8)  9 (9)  10 (10)  11 (11)  12 (12)  13 (13)  14 (14)  15 (15)  16 (16)  17 (17)  18 (18)
Resource initialization completed at t[s]:      0.00
Run totals: 19 processes, 48 threads, 0 GPUs


Input parsed successfully to the following command list (including defaults):

basis kpoint-dependent
coords-type Lattice
core-overlap-check vector
coulomb-interaction Slab 001
davidson-band-ratio 1.1
dump End None
dump-name $INPUT.$VAR
elec-cutoff 20
elec-eigen-algo Davidson
elec-ex-corr gga-PBE
elec-smearing Fermi 0.01
electronic-minimize  \
	dirUpdateScheme      FletcherReeves \
	linminMethod         DirUpdateRecommended \
	nIterations          100 \
	history              15 \
	knormThreshold       0 \
	energyDiffThreshold  1e-08 \
	nEnergyDiff          2 \
	alphaTstart          1 \
	alphaTmin            1e-10 \
	updateTestStepSize   yes \
	alphaTreduceFactor   0.1 \
	alphaTincreaseFactor 3 \
	nAlphaAdjustMax      3 \
	wolfeEnergy          0.0001 \
	wolfeGradient        0.9 \
	fdTest               no
electronic-scf  \
	nIterations	10000 \
	energyDiffThreshold	1e-08 \
	residualThreshold	1e-07 \
	mixFraction	0.5 \
	qMetric	0.8 \
	history	10 \
	nEigSteps	2 \
	eigDiffThreshold	1e-08 \
	mixedVariable	Density \
	qKerker	0.8 \
	qKappa	-1 \
	verbose	no \
	mixFractionMag	1.5
exchange-regularization WignerSeitzTruncated
fluid None
fluid-ex-corr (null) lda-PZ
fluid-gummel-loop 10 1.000000e-05
fluid-minimize  \
	dirUpdateScheme      PolakRibiere \
	linminMethod         DirUpdateRecommended \
	nIterations          100 \
	history              15 \
	knormThreshold       0 \
	energyDiffThreshold  0 \
	nEnergyDiff          2 \
	alphaTstart          1 \
	alphaTmin            1e-10 \
	updateTestStepSize   yes \
	alphaTreduceFactor   0.1 \
	alphaTincreaseFactor 3 \
	nAlphaAdjustMax      3 \
	wolfeEnergy          0.0001 \
	wolfeGradient        0.9 \
	fdTest               no
fluid-solvent H2O 55.338 ScalarEOS \
	epsBulk 78.4 \
	pMol 0.92466 \
	epsInf 1.77 \
	Pvap 1.06736e-10 \
	sigmaBulk 4.62e-05 \
	Rvdw 2.61727 \
	Res 1.42 \
	tauNuc 343133 \
	poleEl 15 7 1
forces-output-coords Positions
ion K   0.000000000000000   0.000000000000000   0.000000000000000 0
ion-species SG15/$ID_ONCV_PBE.upf
ion-width 0
ionic-minimize  \
	dirUpdateScheme      L-BFGS \
	linminMethod         DirUpdateRecommended \
	nIterations          0 \
	history              15 \
	knormThreshold       0.0001 \
	energyDiffThreshold  1e-06 \
	nEnergyDiff          2 \
	alphaTstart          1 \
	alphaTmin            1e-10 \
	updateTestStepSize   yes \
	alphaTreduceFactor   0.1 \
	alphaTincreaseFactor 3 \
	nAlphaAdjustMax      3 \
	wolfeEnergy          0.0001 \
	wolfeGradient        0.9 \
	fdTest               no
kpoint   0.000000000000   0.000000000000   0.000000000000  1.00000000000000
kpoint-folding 12 12 1 
latt-move-scale 1 1 1
latt-scale 2.57 2.57 1 
lattice  \
	   4.727486978767153   -2.363743489383574    0.000000000000000  \
	  -0.000000000000000    4.094123819672498    0.000000000000000  \
	   0.000000000000000    0.000000000000000   40.000000000000000 
lattice-minimize  \
	dirUpdateScheme      L-BFGS \
	linminMethod         DirUpdateRecommended \
	nIterations          0 \
	history              15 \
	knormThreshold       0 \
	energyDiffThreshold  1e-06 \
	nEnergyDiff          2 \
	alphaTstart          1 \
	alphaTmin            1e-10 \
	updateTestStepSize   yes \
	alphaTreduceFactor   0.1 \
	alphaTincreaseFactor 3 \
	nAlphaAdjustMax      3 \
	wolfeEnergy          0.0001 \
	wolfeGradient        0.9 \
	fdTest               no
lcao-params -1 1e-06 0.01
pcm-variant GLSSA13
spintype no-spin
subspace-rotation-factor 1 yes
symmetries automatic
symmetry-threshold 0.0001



---------- Setting up symmetries ----------

Found 24 point-group symmetries of the bravais lattice
Found 24 space-group symmetries with basis
Applied RMS atom displacement 0 bohrs to make symmetries exact.

---------- Initializing the Grid ----------
R = 
[      12.1496     -6.07482            0  ]
[            0      10.5219            0  ]
[            0            0           40  ]
unit cell volume = 5113.49
G =
[    0.51715   0.298577         -0  ]
[          0   0.597153         -0  ]
[         -0         -0    0.15708  ]
Minimum fftbox size, Smin = [  52  52  164  ]
Chosen fftbox size, S = [  54  54  168  ]

---------- Exchange Correlation functional ----------
Initalized PBE GGA exchange.
Initalized PBE GGA correlation.

---------- Setting up pseudopotentials ----------
Width of ionic core gaussian charges (only for fluid interactions / plotting) set to 0

Reading pseudopotential file '/home/gridsan/aligho/DFT/build-Nov24/pseudopotentials/SG15/K_ONCV_PBE.upf':
  'K' pseudopotential, 'PBE' functional
  Generated using ONCVPSP code by D. R. Hamann
  Author: Martin Schlipf and Francois Gygi  Date: 150915.
  9 valence electrons, 3 orbitals, 6 projectors, 2222 radial grid points, with lMax = 2
  Transforming local potential to a uniform radial grid of dG=0.02 with 1550 points.
  Transforming nonlocal projectors to a uniform radial grid of dG=0.02 with 432 points.
    3S    l: 0   occupation:  2.0   eigenvalue: -1.298836
    3P    l: 1   occupation:  6.0   eigenvalue: -0.691386
    4S    l: 0   occupation:  1.0   eigenvalue: -0.085223
  Transforming atomic orbitals to a uniform radial grid of dG=0.02 with 432 points.
  Core radius for overlap checks: 2.06 bohrs.
  Reading pulay file /home/gridsan/aligho/DFT/build-Nov24/pseudopotentials/SG15/K_ONCV_PBE.pulay ... using dE_dnG = -1.597219e-05 computed for Ecut = 20.

Initialized 1 species with 1 total atoms.

Folded 1 k-points by 12x12x1 to 144 k-points.

---------- Setting up k-points, bands, fillings ----------
Reduced to 19 k-points under symmetry. 
Computing the number of bands and number of electrons
Calculating initial fillings.
nElectrons:   9.000000   nBands: 6   nStates: 19

----- Setting up reduced wavefunction bases (one per k-point) -----
average nbasis = 21847.396 , ideal nbasis = 21845.226

---------- Setting up coulomb interaction ----------
Initialized slab truncation along lattice direction 001

---------- Setting up 2D ewald sum ----------
Optimum gaussian width for ewald sums = 6.744991 bohr.
Real space sums over 289 unit cells with max indices [  8  8  0  ]
Reciprocal space sums over 81 terms with max indices [  4  4  0  ]

---------- Allocating electronic variables ----------
Initializing wave functions:  linear combination of atomic orbitals
Note: number of bands (6) exceeds available atomic orbitals (5)
K pseudo-atom occupations:   s ( 2 1 )  p ( 6 )
	FillingsUpdate:  mu: -0.088865995  nElectrons: 9.000000
LCAOMinimize: Iter:   0  F: -28.3949174833412208  |grad|_K:  2.213e-05  alpha:  1.000e+00
	FillingsUpdate:  mu: -0.088872719  nElectrons: 9.000000
LCAOMinimize: Iter:   1  F: -28.3949176523072566  |grad|_K:  1.360e-07  alpha:  1.009e+00  linmin: -1.857e-02  cgtest:  4.397e-01  t[s]:      4.33
LCAOMinimize: Encountered beta<0, resetting CG.
[d-16-7-2:62444] 18 more processes have sent help message help-mpi-common-cuda.txt / dlopen failed
[d-16-7-2:62444] Set MCA parameter "orte_base_help_aggregate" to 0 to see all help / error messages
[d-16-7-2:62444] 18 more processes have sent help message help-mpi-btl-openib-cpc-base.txt / no cpcs for port
	FillingsUpdate:  mu: -0.088872769  nElectrons: 9.000000
LCAOMinimize: Iter:   2  F: -28.3949176523126496  |grad|_K:  1.376e-08  alpha:  8.948e-01  linmin: -4.810e-02  cgtest:  9.928e-01  t[s]:      5.40
LCAOMinimize: Encountered beta<0, resetting CG.
LCAOMinimize: Converged (|Delta F|<1.000000e-06 for 2 iters).


---- Citations for features of the code used in this run ----

   Software package:
      R. Sundararaman, K. Letchworth-Weaver, K.A. Schwarz, D. Gunceler, Y. Ozhabes and T.A. Arias, 'JDFTx: software for joint density-functional theory', SoftwareX 6, 278 (2017)

   gga-PBE exchange-correlation functional:
      J.P. Perdew, K. Burke and M. Ernzerhof, Phys. Rev. Lett. 77, 3865 (1996)

   Pseudopotentials:
      M Schlipf and F Gygi, Comput. Phys. Commun. 196, 36 (2015)

   Truncated Coulomb potentials:
      R. Sundararaman and T.A. Arias, Phys. Rev. B 87, 165122 (2013)

This list may not be complete. Please suggest additional citations or
report any other bugs at https://github.com/shankar1729/jdftx/issues

Initialization completed successfully at t[s]:      5.48


-------- Electronic minimization -----------
Will mix electronic density at each iteration.
	FillingsUpdate:  mu: -0.088872769  nElectrons: 9.000000
	FillingsUpdate:  mu: -0.092897868  nElectrons: 9.000000
SCF: Cycle:  0   F: -28.398184420847382   dF: -3.267e-03   |Residual|: 5.262e-03   |deigs|: 1.734e-01  t[s]:      7.53
	FillingsUpdate:  mu: -0.093475139  nElectrons: 9.000000
SCF: Cycle:  1   F: -28.398347094106590   dF: -1.627e-04   |Residual|: 4.606e-03   |deigs|: 4.636e-03  t[s]:      9.11
	FillingsUpdate:  mu: -0.094352319  nElectrons: 9.000000
SCF: Cycle:  2   F: -28.398434035469659   dF: -8.694e-05   |Residual|: 1.611e-03   |deigs|: 4.600e-03  t[s]:     10.71
	FillingsUpdate:  mu: -0.094168469  nElectrons: 9.000000
SCF: Cycle:  3   F: -28.398490169808031   dF: -5.613e-05   |Residual|: 1.171e-03   |deigs|: 5.076e-03  t[s]:     12.36
	FillingsUpdate:  mu: -0.094016839  nElectrons: 9.000000
SCF: Cycle:  4   F: -28.398536985145512   dF: -4.682e-05   |Residual|: 6.410e-04   |deigs|: 2.108e-03  t[s]:     14.02
	FillingsUpdate:  mu: -0.093939390  nElectrons: 9.000000
SCF: Cycle:  5   F: -28.398581374911785   dF: -4.439e-05   |Residual|: 4.546e-04   |deigs|: 3.955e-03  t[s]:     15.72
	FillingsUpdate:  mu: -0.093447057  nElectrons: 9.000000
SCF: Cycle:  6   F: -28.398597107786159   dF: -1.573e-05   |Residual|: 4.172e-04   |deigs|: 8.885e-04  t[s]:     17.43
	FillingsUpdate:  mu: -0.092760055  nElectrons: 9.000000
SCF: Cycle:  7   F: -28.398600698827263   dF: -3.591e-06   |Residual|: 4.357e-04   |deigs|: 8.745e-04  t[s]:     19.16
	FillingsUpdate:  mu: -0.092704822  nElectrons: 9.000000
SCF: Cycle:  8   F: -28.398605772938829   dF: -5.074e-06   |Residual|: 2.839e-04   |deigs|: 9.955e-05  t[s]:     20.93
	FillingsUpdate:  mu: -0.092686524  nElectrons: 9.000000
SCF: Cycle:  9   F: -28.398607870450849   dF: -2.098e-06   |Residual|: 4.357e-04   |deigs|: 1.610e-04  t[s]:     22.75
	FillingsUpdate:  mu: -0.092437436  nElectrons: 9.000000
SCF: Cycle: 10   F: -28.398609578324841   dF: -1.708e-06   |Residual|: 3.617e-04   |deigs|: 2.986e-04  t[s]:     24.56
	FillingsUpdate:  mu: -0.091812821  nElectrons: 9.000000
SCF: Cycle: 11   F: -28.398610388037721   dF: -8.097e-07   |Residual|: 1.695e-04   |deigs|: 7.019e-04  t[s]:     26.42
	FillingsUpdate:  mu: -0.091651446  nElectrons: 9.000000
SCF: Cycle: 12   F: -28.398612536189397   dF: -2.148e-06   |Residual|: 3.772e-04   |deigs|: 2.224e-04  t[s]:     28.26
	FillingsUpdate:  mu: -0.091057871  nElectrons: 9.000000
SCF: Cycle: 13   F: -28.398615340711885   dF: -2.805e-06   |Residual|: 1.674e-04   |deigs|: 7.214e-04  t[s]:     30.06
	FillingsUpdate:  mu: -0.090702860  nElectrons: 9.000000
SCF: Cycle: 14   F: -28.398616972035985   dF: -1.631e-06   |Residual|: 1.313e-04   |deigs|: 4.820e-04  t[s]:     31.87
	FillingsUpdate:  mu: -0.090742485  nElectrons: 9.000000
SCF: Cycle: 15   F: -28.398618258081100   dF: -1.286e-06   |Residual|: 4.598e-05   |deigs|: 2.491e-04  t[s]:     33.81
	FillingsUpdate:  mu: -0.090844935  nElectrons: 9.000000
SCF: Cycle: 16   F: -28.398619184191300   dF: -9.261e-07   |Residual|: 3.568e-05   |deigs|: 4.900e-04  t[s]:     35.56
	FillingsUpdate:  mu: -0.090819513  nElectrons: 9.000000
SCF: Cycle: 17   F: -28.398621108378194   dF: -1.924e-06   |Residual|: 2.013e-05   |deigs|: 8.687e-04  t[s]:     37.29
	FillingsUpdate:  mu: -0.090821537  nElectrons: 9.000000
SCF: Cycle: 18   F: -28.398622706399959   dF: -1.598e-06   |Residual|: 1.329e-05   |deigs|: 3.938e-04  t[s]:     38.93
	FillingsUpdate:  mu: -0.090843311  nElectrons: 9.000000
SCF: Cycle: 19   F: -28.398623530441718   dF: -8.240e-07   |Residual|: 1.425e-05   |deigs|: 1.433e-04  t[s]:     40.55
	FillingsUpdate:  mu: -0.090863479  nElectrons: 9.000000
SCF: Cycle: 20   F: -28.398623870251580   dF: -3.398e-07   |Residual|: 1.111e-05   |deigs|: 4.649e-05  t[s]:     42.25
	FillingsUpdate:  mu: -0.090850715  nElectrons: 9.000000
SCF: Cycle: 21   F: -28.398624087110846   dF: -2.169e-07   |Residual|: 6.882e-06   |deigs|: 2.100e-05  t[s]:     43.94
	FillingsUpdate:  mu: -0.090855084  nElectrons: 9.000000
SCF: Cycle: 22   F: -28.398624232407752   dF: -1.453e-07   |Residual|: 4.201e-06   |deigs|: 1.463e-05  t[s]:     45.62
	FillingsUpdate:  mu: -0.090863149  nElectrons: 9.000000
SCF: Cycle: 23   F: -28.398624338007419   dF: -1.056e-07   |Residual|: 3.511e-06   |deigs|: 1.018e-05  t[s]:     47.34
	FillingsUpdate:  mu: -0.090860259  nElectrons: 9.000000
SCF: Cycle: 24   F: -28.398624406863306   dF: -6.886e-08   |Residual|: 2.458e-06   |deigs|: 5.062e-06  t[s]:     48.95
	FillingsUpdate:  mu: -0.090860420  nElectrons: 9.000000
SCF: Cycle: 25   F: -28.398624521916577   dF: -1.151e-07   |Residual|: 1.355e-06   |deigs|: 1.098e-05  t[s]:     50.61
	FillingsUpdate:  mu: -0.090857463  nElectrons: 9.000000
SCF: Cycle: 26   F: -28.398624577592997   dF: -5.568e-08   |Residual|: 1.021e-06   |deigs|: 5.433e-06  t[s]:     52.23
	FillingsUpdate:  mu: -0.090857878  nElectrons: 9.000000
SCF: Cycle: 27   F: -28.398624605422153   dF: -2.783e-08   |Residual|: 7.695e-07   |deigs|: 2.146e-06  t[s]:     53.95
	FillingsUpdate:  mu: -0.090858210  nElectrons: 9.000000
SCF: Cycle: 28   F: -28.398624627464891   dF: -2.204e-08   |Residual|: 1.335e-06   |deigs|: 1.582e-06  t[s]:     55.62
	FillingsUpdate:  mu: -0.090858123  nElectrons: 9.000000
SCF: Cycle: 29   F: -28.398624646074165   dF: -1.861e-08   |Residual|: 9.839e-07   |deigs|: 1.507e-06  t[s]:     57.30
	FillingsUpdate:  mu: -0.090858221  nElectrons: 9.000000
SCF: Cycle: 30   F: -28.398624662496232   dF: -1.642e-08   |Residual|: 1.336e-06   |deigs|: 1.430e-06  t[s]:     58.89
	FillingsUpdate:  mu: -0.090858182  nElectrons: 9.000000
SCF: Cycle: 31   F: -28.398624672833268   dF: -1.034e-08   |Residual|: 1.341e-06   |deigs|: 9.118e-07  t[s]:     60.52
	FillingsUpdate:  mu: -0.090857916  nElectrons: 9.000000
SCF: Cycle: 32   F: -28.398624679926723   dF: -7.093e-09   |Residual|: 1.721e-06   |deigs|: 6.802e-07  t[s]:     62.14
	FillingsUpdate:  mu: -0.090858297  nElectrons: 9.000000
SCF: Cycle: 33   F: -28.398624685483959   dF: -5.557e-09   |Residual|: 1.399e-06   |deigs|: 7.168e-07  t[s]:     63.88
SCF: Converged (|Delta E|<1.000000e-08 for 2 iters).


# Ionic positions in lattice coordinates:
ion K   0.000000000000000   0.000000000000000   0.000000000000000 0

# Forces in Lattice coordinates:
force K  -0.000000000000000   0.000000000000000   0.000000000000000 0

# Energy components:
   Eewald =      -14.0451564983133537
       EH =        8.7277108239964427
     Eloc =      -25.9101001800589437
      Enl =       -2.7745238417893758
   Epulay =        0.0000000067773287
      Exc =       -4.2421944774278613
       KE =        9.8574630335468640
-------------------------------------
     Etot =      -28.3868011332688965
       TS =        0.0118235522150610
-------------------------------------
        F =      -28.3986246854839592

IonicMinimize: Iter:   0  F: -28.398624685483959  |grad|_K:  0.000e+00  t[s]:     64.01
IonicMinimize: Converged (|grad|_K<1.000000e-04).

#--- Lowdin population analysis ---
# oxidation-state K +0.081

End date and time: Sun Jan 16 14:53:21 2022  (Duration: 0-0:01:04.03)
Done!
