2.45
--------------------------------------------------------------------------
The library attempted to open the following supporting CUDA libraries,
but each of them failed.  CUDA-aware support is disabled.
libcuda.so.1: cannot open shared object file: No such file or directory
libcuda.dylib: cannot open shared object file: No such file or directory
/usr/lib64/libcuda.so.1: cannot open shared object file: No such file or directory
/usr/lib64/libcuda.dylib: cannot open shared object file: No such file or directory
If you are not interested in CUDA-aware support, then run with
--mca opal_warn_on_missing_libcuda 0 to suppress this message.  If you are interested
in CUDA-aware support, then try setting LD_LIBRARY_PATH to the location
of libcuda.so.1 to get passed this issue.
--------------------------------------------------------------------------
--------------------------------------------------------------------------
No OpenFabrics connection schemes reported that they were able to be
used on a specific port.  As such, the openib BTL (OpenFabrics
support) will be disabled for this port.

  Local host:           d-3-3-4
  Local device:         mlx5_1
  Local port:           1
  CPCs attempted:       rdmacm, udcm
--------------------------------------------------------------------------

*************** JDFTx 1.6.0 (git hash 42ebbcc2) ***************

Start date and time: Sun Jan 16 14:52:17 2022
Executable jdftx with command-line: -i Potassium.in
Running on hosts (process indices):  d-3-3-4 (0-18)
Divided in process groups (process indices):  0 (0)  1 (1)  2 (2)  3 (3)  4 (4)  5 (5)  6 (6)  7 (7)  8 (8)  9 (9)  10 (10)  11 (11)  12 (12)  13 (13)  14 (14)  15 (15)  16 (16)  17 (17)  18 (18)
Resource initialization completed at t[s]:      0.00
Run totals: 19 processes, 48 threads, 0 GPUs


Input parsed successfully to the following command list (including defaults):

basis kpoint-dependent
coords-type Lattice
core-overlap-check vector
coulomb-interaction Slab 001
davidson-band-ratio 1.1
dump End None
dump-name $INPUT.$VAR
elec-cutoff 20
elec-eigen-algo Davidson
elec-ex-corr gga-PBE
elec-smearing Fermi 0.01
electronic-minimize  \
	dirUpdateScheme      FletcherReeves \
	linminMethod         DirUpdateRecommended \
	nIterations          100 \
	history              15 \
	knormThreshold       0 \
	energyDiffThreshold  1e-08 \
	nEnergyDiff          2 \
	alphaTstart          1 \
	alphaTmin            1e-10 \
	updateTestStepSize   yes \
	alphaTreduceFactor   0.1 \
	alphaTincreaseFactor 3 \
	nAlphaAdjustMax      3 \
	wolfeEnergy          0.0001 \
	wolfeGradient        0.9 \
	fdTest               no
electronic-scf  \
	nIterations	10000 \
	energyDiffThreshold	1e-08 \
	residualThreshold	1e-07 \
	mixFraction	0.5 \
	qMetric	0.8 \
	history	10 \
	nEigSteps	2 \
	eigDiffThreshold	1e-08 \
	mixedVariable	Density \
	qKerker	0.8 \
	qKappa	-1 \
	verbose	no \
	mixFractionMag	1.5
exchange-regularization WignerSeitzTruncated
fluid None
fluid-ex-corr (null) lda-PZ
fluid-gummel-loop 10 1.000000e-05
fluid-minimize  \
	dirUpdateScheme      PolakRibiere \
	linminMethod         DirUpdateRecommended \
	nIterations          100 \
	history              15 \
	knormThreshold       0 \
	energyDiffThreshold  0 \
	nEnergyDiff          2 \
	alphaTstart          1 \
	alphaTmin            1e-10 \
	updateTestStepSize   yes \
	alphaTreduceFactor   0.1 \
	alphaTincreaseFactor 3 \
	nAlphaAdjustMax      3 \
	wolfeEnergy          0.0001 \
	wolfeGradient        0.9 \
	fdTest               no
fluid-solvent H2O 55.338 ScalarEOS \
	epsBulk 78.4 \
	pMol 0.92466 \
	epsInf 1.77 \
	Pvap 1.06736e-10 \
	sigmaBulk 4.62e-05 \
	Rvdw 2.61727 \
	Res 1.42 \
	tauNuc 343133 \
	poleEl 15 7 1
forces-output-coords Positions
ion K   0.000000000000000   0.000000000000000   0.000000000000000 0
ion-species SG15/$ID_ONCV_PBE.upf
ion-width 0
ionic-minimize  \
	dirUpdateScheme      L-BFGS \
	linminMethod         DirUpdateRecommended \
	nIterations          0 \
	history              15 \
	knormThreshold       0.0001 \
	energyDiffThreshold  1e-06 \
	nEnergyDiff          2 \
	alphaTstart          1 \
	alphaTmin            1e-10 \
	updateTestStepSize   yes \
	alphaTreduceFactor   0.1 \
	alphaTincreaseFactor 3 \
	nAlphaAdjustMax      3 \
	wolfeEnergy          0.0001 \
	wolfeGradient        0.9 \
	fdTest               no
kpoint   0.000000000000   0.000000000000   0.000000000000  1.00000000000000
kpoint-folding 12 12 1 
latt-move-scale 1 1 1
latt-scale 2.45 2.45 1 
lattice  \
	   4.727486978767153   -2.363743489383575    0.000000000000000  \
	  -0.000000000000000    4.094123819672498    0.000000000000000  \
	   0.000000000000000    0.000000000000000   40.000000000000000 
lattice-minimize  \
	dirUpdateScheme      L-BFGS \
	linminMethod         DirUpdateRecommended \
	nIterations          0 \
	history              15 \
	knormThreshold       0 \
	energyDiffThreshold  1e-06 \
	nEnergyDiff          2 \
	alphaTstart          1 \
	alphaTmin            1e-10 \
	updateTestStepSize   yes \
	alphaTreduceFactor   0.1 \
	alphaTincreaseFactor 3 \
	nAlphaAdjustMax      3 \
	wolfeEnergy          0.0001 \
	wolfeGradient        0.9 \
	fdTest               no
lcao-params -1 1e-06 0.01
pcm-variant GLSSA13
spintype no-spin
subspace-rotation-factor 1 yes
symmetries automatic
symmetry-threshold 0.0001



---------- Setting up symmetries ----------

Found 24 point-group symmetries of the bravais lattice
Found 24 space-group symmetries with basis
Applied RMS atom displacement 0 bohrs to make symmetries exact.

---------- Initializing the Grid ----------
R = 
[      11.5823     -5.79117            0  ]
[            0      10.0306            0  ]
[            0            0           40  ]
unit cell volume = 4647.12
G =
[    0.54248   0.313201         -0  ]
[          0   0.626402         -0  ]
[         -0         -0    0.15708  ]
Minimum fftbox size, Smin = [  48  48  164  ]
Chosen fftbox size, S = [  48  48  168  ]

---------- Exchange Correlation functional ----------
Initalized PBE GGA exchange.
Initalized PBE GGA correlation.

---------- Setting up pseudopotentials ----------
Width of ionic core gaussian charges (only for fluid interactions / plotting) set to 0

Reading pseudopotential file '/home/gridsan/aligho/DFT/build-Nov24/pseudopotentials/SG15/K_ONCV_PBE.upf':
  'K' pseudopotential, 'PBE' functional
  Generated using ONCVPSP code by D. R. Hamann
  Author: Martin Schlipf and Francois Gygi  Date: 150915.
  9 valence electrons, 3 orbitals, 6 projectors, 2222 radial grid points, with lMax = 2
  Transforming local potential to a uniform radial grid of dG=0.02 with 1465 points.
  Transforming nonlocal projectors to a uniform radial grid of dG=0.02 with 432 points.
    3S    l: 0   occupation:  2.0   eigenvalue: -1.298836
    3P    l: 1   occupation:  6.0   eigenvalue: -0.691386
    4S    l: 0   occupation:  1.0   eigenvalue: -0.085223
  Transforming atomic orbitals to a uniform radial grid of dG=0.02 with 432 points.
  Core radius for overlap checks: 2.06 bohrs.
  Reading pulay file /home/gridsan/aligho/DFT/build-Nov24/pseudopotentials/SG15/K_ONCV_PBE.pulay ... using dE_dnG = -1.597219e-05 computed for Ecut = 20.

Initialized 1 species with 1 total atoms.

Folded 1 k-points by 12x12x1 to 144 k-points.

---------- Setting up k-points, bands, fillings ----------
Reduced to 19 k-points under symmetry. 
Computing the number of bands and number of electrons
Calculating initial fillings.
nElectrons:   9.000000   nBands: 6   nStates: 19

----- Setting up reduced wavefunction bases (one per k-point) -----
average nbasis = 19853.729 , ideal nbasis = 19852.832

---------- Setting up coulomb interaction ----------
Initialized slab truncation along lattice direction 001

---------- Setting up 2D ewald sum ----------
Optimum gaussian width for ewald sums = 6.430049 bohr.
Real space sums over 289 unit cells with max indices [  8  8  0  ]
Reciprocal space sums over 81 terms with max indices [  4  4  0  ]

---------- Allocating electronic variables ----------
Initializing wave functions:  linear combination of atomic orbitals
Note: number of bands (6) exceeds available atomic orbitals (5)
K pseudo-atom occupations:   s ( 2 1 )  p ( 6 )
	FillingsUpdate:  mu: -0.089772175  nElectrons: 9.000000
LCAOMinimize: Iter:   0  F: -28.3962973270051648  |grad|_K:  2.096e-05  alpha:  1.000e+00
	FillingsUpdate:  mu: -0.089777049  nElectrons: 9.000000
LCAOMinimize: Iter:   1  F: -28.3962974781358568  |grad|_K:  1.540e-07  alpha:  1.006e+00  linmin: -1.471e-02  cgtest:  3.701e-01  t[s]:      3.44
LCAOMinimize: Encountered beta<0, resetting CG.
	FillingsUpdate:  mu: -0.089777106  nElectrons: 9.000000
LCAOMinimize: Iter:   2  F: -28.3962974781430084  |grad|_K:  6.004e-09  alpha:  9.566e-01  linmin: -4.516e-02  cgtest:  9.496e-01  t[s]:      4.30
LCAOMinimize: Encountered beta<0, resetting CG.
LCAOMinimize: Converged (|Delta F|<1.000000e-06 for 2 iters).


---- Citations for features of the code used in this run ----

   Software package:
      R. Sundararaman, K. Letchworth-Weaver, K.A. Schwarz, D. Gunceler, Y. Ozhabes and T.A. Arias, 'JDFTx: software for joint density-functional theory', SoftwareX 6, 278 (2017)

   gga-PBE exchange-correlation functional:
      J.P. Perdew, K. Burke and M. Ernzerhof, Phys. Rev. Lett. 77, 3865 (1996)

   Pseudopotentials:
      M Schlipf and F Gygi, Comput. Phys. Commun. 196, 36 (2015)

   Truncated Coulomb potentials:
      R. Sundararaman and T.A. Arias, Phys. Rev. B 87, 165122 (2013)

This list may not be complete. Please suggest additional citations or
report any other bugs at https://github.com/shankar1729/jdftx/issues

Initialization completed successfully at t[s]:      4.37


-------- Electronic minimization -----------
Will mix electronic density at each iteration.
	FillingsUpdate:  mu: -0.089777106  nElectrons: 9.000000
[d-3-3-4:85030] 18 more processes have sent help message help-mpi-common-cuda.txt / dlopen failed
[d-3-3-4:85030] Set MCA parameter "orte_base_help_aggregate" to 0 to see all help / error messages
[d-3-3-4:85030] 18 more processes have sent help message help-mpi-btl-openib-cpc-base.txt / no cpcs for port
	FillingsUpdate:  mu: -0.095037582  nElectrons: 9.000000
SCF: Cycle:  0   F: -28.400186895688044   dF: -3.889e-03   |Residual|: 5.912e-03   |deigs|: 1.708e-01  t[s]:      6.07
	FillingsUpdate:  mu: -0.095603991  nElectrons: 9.000000
SCF: Cycle:  1   F: -28.400356771951305   dF: -1.699e-04   |Residual|: 5.052e-03   |deigs|: 4.848e-03  t[s]:      7.34
	FillingsUpdate:  mu: -0.096131415  nElectrons: 9.000000
SCF: Cycle:  2   F: -28.400467247825262   dF: -1.105e-04   |Residual|: 1.587e-03   |deigs|: 6.336e-03  t[s]:      8.64
	FillingsUpdate:  mu: -0.096093340  nElectrons: 9.000000
SCF: Cycle:  3   F: -28.400557355764168   dF: -9.011e-05   |Residual|: 1.120e-03   |deigs|: 4.511e-03  t[s]:      9.96
	FillingsUpdate:  mu: -0.095694809  nElectrons: 9.000000
SCF: Cycle:  4   F: -28.400591694770085   dF: -3.434e-05   |Residual|: 7.234e-04   |deigs|: 8.171e-04  t[s]:     11.26
	FillingsUpdate:  mu: -0.095546238  nElectrons: 9.000000
SCF: Cycle:  5   F: -28.400604741153870   dF: -1.305e-05   |Residual|: 6.195e-04   |deigs|: 7.631e-04  t[s]:     12.61
	FillingsUpdate:  mu: -0.094692735  nElectrons: 9.000000
SCF: Cycle:  6   F: -28.400613904001165   dF: -9.163e-06   |Residual|: 5.922e-04   |deigs|: 1.923e-03  t[s]:     13.96
	FillingsUpdate:  mu: -0.094198556  nElectrons: 9.000000
SCF: Cycle:  7   F: -28.400623206200191   dF: -9.302e-06   |Residual|: 3.262e-04   |deigs|: 2.132e-03  t[s]:     15.36
	FillingsUpdate:  mu: -0.093807155  nElectrons: 9.000000
SCF: Cycle:  8   F: -28.400633346844689   dF: -1.014e-05   |Residual|: 3.060e-04   |deigs|: 8.682e-04  t[s]:     16.76
	FillingsUpdate:  mu: -0.093414796  nElectrons: 9.000000
SCF: Cycle:  9   F: -28.400635909210411   dF: -2.562e-06   |Residual|: 4.857e-04   |deigs|: 5.804e-04  t[s]:     18.20
	FillingsUpdate:  mu: -0.092674083  nElectrons: 9.000000
SCF: Cycle: 10   F: -28.400635314421692   dF: +5.948e-07   |Residual|: 2.813e-04   |deigs|: 5.835e-04  t[s]:     19.64
	FillingsUpdate:  mu: -0.092216701  nElectrons: 9.000000
SCF: Cycle: 11   F: -28.400639428552520   dF: -4.114e-06   |Residual|: 3.378e-04   |deigs|: 6.539e-04  t[s]:     21.11
	FillingsUpdate:  mu: -0.092655955  nElectrons: 9.000000
SCF: Cycle: 12   F: -28.400643169886923   dF: -3.741e-06   |Residual|: 4.632e-04   |deigs|: 4.685e-04  t[s]:     22.61
	FillingsUpdate:  mu: -0.091699412  nElectrons: 9.000000
SCF: Cycle: 13   F: -28.400644661150828   dF: -1.491e-06   |Residual|: 1.606e-04   |deigs|: 8.429e-04  t[s]:     24.05
	FillingsUpdate:  mu: -0.091438062  nElectrons: 9.000000
SCF: Cycle: 14   F: -28.400645417733053   dF: -7.566e-07   |Residual|: 9.677e-05   |deigs|: 2.344e-04  t[s]:     25.49
	FillingsUpdate:  mu: -0.091347560  nElectrons: 9.000000
SCF: Cycle: 15   F: -28.400646229279495   dF: -8.115e-07   |Residual|: 4.030e-05   |deigs|: 1.102e-04  t[s]:     26.92
	FillingsUpdate:  mu: -0.091335352  nElectrons: 9.000000
SCF: Cycle: 16   F: -28.400646632704941   dF: -4.034e-07   |Residual|: 2.118e-05   |deigs|: 3.146e-05  t[s]:     28.23
	FillingsUpdate:  mu: -0.091333406  nElectrons: 9.000000
SCF: Cycle: 17   F: -28.400646971026401   dF: -3.383e-07   |Residual|: 1.439e-05   |deigs|: 1.537e-05  t[s]:     29.58
	FillingsUpdate:  mu: -0.091329779  nElectrons: 9.000000
SCF: Cycle: 18   F: -28.400647230132030   dF: -2.591e-07   |Residual|: 7.510e-06   |deigs|: 1.663e-05  t[s]:     30.94
	FillingsUpdate:  mu: -0.091344666  nElectrons: 9.000000
SCF: Cycle: 19   F: -28.400647435096033   dF: -2.050e-07   |Residual|: 4.494e-06   |deigs|: 2.141e-05  t[s]:     32.20
	FillingsUpdate:  mu: -0.091344076  nElectrons: 9.000000
SCF: Cycle: 20   F: -28.400647726704378   dF: -2.916e-07   |Residual|: 3.541e-06   |deigs|: 2.344e-05  t[s]:     33.53
	FillingsUpdate:  mu: -0.091349703  nElectrons: 9.000000
SCF: Cycle: 21   F: -28.400647901008067   dF: -1.743e-07   |Residual|: 2.942e-06   |deigs|: 1.808e-05  t[s]:     34.78
	FillingsUpdate:  mu: -0.091351394  nElectrons: 9.000000
SCF: Cycle: 22   F: -28.400648016712996   dF: -1.157e-07   |Residual|: 2.711e-06   |deigs|: 1.663e-05  t[s]:     36.13
	FillingsUpdate:  mu: -0.091354674  nElectrons: 9.000000
SCF: Cycle: 23   F: -28.400648141770617   dF: -1.251e-07   |Residual|: 1.711e-06   |deigs|: 1.825e-05  t[s]:     37.39
	FillingsUpdate:  mu: -0.091355606  nElectrons: 9.000000
SCF: Cycle: 24   F: -28.400648254944588   dF: -1.132e-07   |Residual|: 1.276e-06   |deigs|: 2.058e-05  t[s]:     38.64
	FillingsUpdate:  mu: -0.091356339  nElectrons: 9.000000
SCF: Cycle: 25   F: -28.400648366533300   dF: -1.116e-07   |Residual|: 1.198e-06   |deigs|: 2.329e-05  t[s]:     39.90
	FillingsUpdate:  mu: -0.091357293  nElectrons: 9.000000
SCF: Cycle: 26   F: -28.400648486783762   dF: -1.203e-07   |Residual|: 1.763e-06   |deigs|: 2.741e-05  t[s]:     41.13
	FillingsUpdate:  mu: -0.091354311  nElectrons: 9.000000
SCF: Cycle: 27   F: -28.400648613137765   dF: -1.264e-07   |Residual|: 3.064e-06   |deigs|: 2.950e-05  t[s]:     42.37
	FillingsUpdate:  mu: -0.091358277  nElectrons: 9.000000
SCF: Cycle: 28   F: -28.400648753680350   dF: -1.405e-07   |Residual|: 3.415e-06   |deigs|: 3.460e-05  t[s]:     43.61
	FillingsUpdate:  mu: -0.091352828  nElectrons: 9.000000
SCF: Cycle: 29   F: -28.400648893616307   dF: -1.399e-07   |Residual|: 4.809e-06   |deigs|: 3.337e-05  t[s]:     44.84
	FillingsUpdate:  mu: -0.091353635  nElectrons: 9.000000
SCF: Cycle: 30   F: -28.400649036540173   dF: -1.429e-07   |Residual|: 6.151e-06   |deigs|: 3.438e-05  t[s]:     46.12
	FillingsUpdate:  mu: -0.091352175  nElectrons: 9.000000
SCF: Cycle: 31   F: -28.400649178871884   dF: -1.423e-07   |Residual|: 7.311e-06   |deigs|: 3.351e-05  t[s]:     47.37
	FillingsUpdate:  mu: -0.091350515  nElectrons: 9.000000
SCF: Cycle: 32   F: -28.400649317248622   dF: -1.384e-07   |Residual|: 9.048e-06   |deigs|: 3.191e-05  t[s]:     48.66
	FillingsUpdate:  mu: -0.091352059  nElectrons: 9.000000
SCF: Cycle: 33   F: -28.400649449835800   dF: -1.326e-07   |Residual|: 9.273e-06   |deigs|: 3.069e-05  t[s]:     49.92
	FillingsUpdate:  mu: -0.091351426  nElectrons: 9.000000
SCF: Cycle: 34   F: -28.400649572686209   dF: -1.229e-07   |Residual|: 1.059e-05   |deigs|: 2.781e-05  t[s]:     51.16
	FillingsUpdate:  mu: -0.091357468  nElectrons: 9.000000
SCF: Cycle: 35   F: -28.400649688044979   dF: -1.154e-07   |Residual|: 9.879e-06   |deigs|: 2.748e-05  t[s]:     52.39
	FillingsUpdate:  mu: -0.091359929  nElectrons: 9.000000
SCF: Cycle: 36   F: -28.400649792463373   dF: -1.044e-07   |Residual|: 1.020e-05   |deigs|: 2.410e-05  t[s]:     53.65
	FillingsUpdate:  mu: -0.091364983  nElectrons: 9.000000
SCF: Cycle: 37   F: -28.400649885780229   dF: -9.332e-08   |Residual|: 9.531e-06   |deigs|: 2.235e-05  t[s]:     54.90
	FillingsUpdate:  mu: -0.091362901  nElectrons: 9.000000
SCF: Cycle: 38   F: -28.400649967582325   dF: -8.180e-08   |Residual|: 1.069e-05   |deigs|: 1.823e-05  t[s]:     56.15
	FillingsUpdate:  mu: -0.091358670  nElectrons: 9.000000
SCF: Cycle: 39   F: -28.400650040200631   dF: -7.262e-08   |Residual|: 1.227e-05   |deigs|: 1.655e-05  t[s]:     57.42
	FillingsUpdate:  mu: -0.091362329  nElectrons: 9.000000
SCF: Cycle: 40   F: -28.400650103734730   dF: -6.353e-08   |Residual|: 1.207e-05   |deigs|: 1.520e-05  t[s]:     58.68
	FillingsUpdate:  mu: -0.091360534  nElectrons: 9.000000
SCF: Cycle: 41   F: -28.400650160236413   dF: -5.650e-08   |Residual|: 1.299e-05   |deigs|: 1.258e-05  t[s]:     59.99
	FillingsUpdate:  mu: -0.091361532  nElectrons: 9.000000
SCF: Cycle: 42   F: -28.400650209760212   dF: -4.952e-08   |Residual|: 1.334e-05   |deigs|: 1.125e-05  t[s]:     61.21
	FillingsUpdate:  mu: -0.091363331  nElectrons: 9.000000
SCF: Cycle: 43   F: -28.400650250568070   dF: -4.081e-08   |Residual|: 1.326e-05   |deigs|: 9.650e-06  t[s]:     62.42
	FillingsUpdate:  mu: -0.091365456  nElectrons: 9.000000
SCF: Cycle: 44   F: -28.400650285186920   dF: -3.462e-08   |Residual|: 1.285e-05   |deigs|: 8.426e-06  t[s]:     63.65
	FillingsUpdate:  mu: -0.091372372  nElectrons: 9.000000
SCF: Cycle: 45   F: -28.400650312174381   dF: -2.699e-08   |Residual|: 1.137e-05   |deigs|: 1.035e-05  t[s]:     65.01
	FillingsUpdate:  mu: -0.091365862  nElectrons: 9.000000
SCF: Cycle: 46   F: -28.400650340902462   dF: -2.873e-08   |Residual|: 1.327e-05   |deigs|: 9.319e-06  t[s]:     66.30
	FillingsUpdate:  mu: -0.091395838  nElectrons: 9.000000
SCF: Cycle: 47   F: -28.400650370115454   dF: -2.921e-08   |Residual|: 5.518e-06   |deigs|: 3.627e-05  t[s]:     67.69
	FillingsUpdate:  mu: -0.091402574  nElectrons: 9.000000
SCF: Cycle: 48   F: -28.400650387038759   dF: -1.692e-08   |Residual|: 3.329e-06   |deigs|: 8.847e-06  t[s]:     69.01
	FillingsUpdate:  mu: -0.091409135  nElectrons: 9.000000
SCF: Cycle: 49   F: -28.400650417001970   dF: -2.996e-08   |Residual|: 1.972e-06   |deigs|: 1.012e-05  t[s]:     70.35
	FillingsUpdate:  mu: -0.091409887  nElectrons: 9.000000
SCF: Cycle: 50   F: -28.400650438908606   dF: -2.191e-08   |Residual|: 1.665e-06   |deigs|: 4.680e-06  t[s]:     71.59
	FillingsUpdate:  mu: -0.091410814  nElectrons: 9.000000
SCF: Cycle: 51   F: -28.400650450387786   dF: -1.148e-08   |Residual|: 1.121e-06   |deigs|: 2.926e-06  t[s]:     72.81
	FillingsUpdate:  mu: -0.091419983  nElectrons: 9.000000
SCF: Cycle: 52   F: -28.400650460163515   dF: -9.776e-09   |Residual|: 2.083e-06   |deigs|: 1.133e-05  t[s]:     74.18
	FillingsUpdate:  mu: -0.091411569  nElectrons: 9.000000
SCF: Cycle: 53   F: -28.400650471371605   dF: -1.121e-08   |Residual|: 9.400e-07   |deigs|: 9.910e-06  t[s]:     75.49
	FillingsUpdate:  mu: -0.091410518  nElectrons: 9.000000
SCF: Cycle: 54   F: -28.400650480185885   dF: -8.814e-09   |Residual|: 1.430e-06   |deigs|: 2.238e-06  t[s]:     76.75
	FillingsUpdate:  mu: -0.091412421  nElectrons: 9.000000
SCF: Cycle: 55   F: -28.400650484285002   dF: -4.099e-09   |Residual|: 7.447e-07   |deigs|: 2.241e-06  t[s]:     78.01
SCF: Converged (|Delta E|<1.000000e-08 for 2 iters).


# Ionic positions in lattice coordinates:
ion K   0.000000000000000   0.000000000000000   0.000000000000000 0

# Forces in Lattice coordinates:
force K   0.000000000000000   0.000000000000000   0.000000000000000 0

# Energy components:
   Eewald =      -14.7330825308838058
       EH =        8.0575480489628060
     Eloc =      -24.5529917226791206
      Enl =       -2.7752435724807332
   Epulay =        0.0000000030838686
      Exc =       -4.2448972305104213
       KE =        9.8591095743811064
-------------------------------------
     Etot =      -28.3895574301263025
       TS =        0.0110930541586990
-------------------------------------
        F =      -28.4006504842850021

IonicMinimize: Iter:   0  F: -28.400650484285002  |grad|_K:  0.000e+00  t[s]:     78.13
IonicMinimize: Converged (|grad|_K<1.000000e-04).

#--- Lowdin population analysis ---
# oxidation-state K +0.086

End date and time: Sun Jan 16 14:53:35 2022  (Duration: 0-0:01:18.14)
Done!
