0.77
--------------------------------------------------------------------------
The library attempted to open the following supporting CUDA libraries,
but each of them failed.  CUDA-aware support is disabled.
libcuda.so.1: cannot open shared object file: No such file or directory
libcuda.dylib: cannot open shared object file: No such file or directory
/usr/lib64/libcuda.so.1: cannot open shared object file: No such file or directory
/usr/lib64/libcuda.dylib: cannot open shared object file: No such file or directory
If you are not interested in CUDA-aware support, then run with
--mca opal_warn_on_missing_libcuda 0 to suppress this message.  If you are interested
in CUDA-aware support, then try setting LD_LIBRARY_PATH to the location
of libcuda.so.1 to get passed this issue.
--------------------------------------------------------------------------
--------------------------------------------------------------------------
No OpenFabrics connection schemes reported that they were able to be
used on a specific port.  As such, the openib BTL (OpenFabrics
support) will be disabled for this port.

  Local host:           d-4-7-2
  Local device:         mlx5_1
  Local port:           1
  CPCs attempted:       rdmacm, udcm
--------------------------------------------------------------------------

*************** JDFTx 1.6.0 (git hash 42ebbcc2) ***************

Start date and time: Sun Jan 16 14:50:04 2022
Executable jdftx with command-line: -i Potassium.in
Running on hosts (process indices):  d-4-7-2 (0-18)
Divided in process groups (process indices):  0 (0)  1 (1)  2 (2)  3 (3)  4 (4)  5 (5)  6 (6)  7 (7)  8 (8)  9 (9)  10 (10)  11 (11)  12 (12)  13 (13)  14 (14)  15 (15)  16 (16)  17 (17)  18 (18)
Resource initialization completed at t[s]:      0.00
Run totals: 19 processes, 48 threads, 0 GPUs


Input parsed successfully to the following command list (including defaults):

basis kpoint-dependent
coords-type Lattice
core-overlap-check vector
coulomb-interaction Slab 001
davidson-band-ratio 1.1
dump End None
dump-name $INPUT.$VAR
elec-cutoff 20
elec-eigen-algo Davidson
elec-ex-corr gga-PBE
elec-smearing Fermi 0.01
electronic-minimize  \
	dirUpdateScheme      FletcherReeves \
	linminMethod         DirUpdateRecommended \
	nIterations          100 \
	history              15 \
	knormThreshold       0 \
	energyDiffThreshold  1e-08 \
	nEnergyDiff          2 \
	alphaTstart          1 \
	alphaTmin            1e-10 \
	updateTestStepSize   yes \
	alphaTreduceFactor   0.1 \
	alphaTincreaseFactor 3 \
	nAlphaAdjustMax      3 \
	wolfeEnergy          0.0001 \
	wolfeGradient        0.9 \
	fdTest               no
electronic-scf  \
	nIterations	10000 \
	energyDiffThreshold	1e-08 \
	residualThreshold	1e-07 \
	mixFraction	0.5 \
	qMetric	0.8 \
	history	10 \
	nEigSteps	2 \
	eigDiffThreshold	1e-08 \
	mixedVariable	Density \
	qKerker	0.8 \
	qKappa	-1 \
	verbose	no \
	mixFractionMag	1.5
exchange-regularization WignerSeitzTruncated
fluid None
fluid-ex-corr (null) lda-PZ
fluid-gummel-loop 10 1.000000e-05
fluid-minimize  \
	dirUpdateScheme      PolakRibiere \
	linminMethod         DirUpdateRecommended \
	nIterations          100 \
	history              15 \
	knormThreshold       0 \
	energyDiffThreshold  0 \
	nEnergyDiff          2 \
	alphaTstart          1 \
	alphaTmin            1e-10 \
	updateTestStepSize   yes \
	alphaTreduceFactor   0.1 \
	alphaTincreaseFactor 3 \
	nAlphaAdjustMax      3 \
	wolfeEnergy          0.0001 \
	wolfeGradient        0.9 \
	fdTest               no
fluid-solvent H2O 55.338 ScalarEOS \
	epsBulk 78.4 \
	pMol 0.92466 \
	epsInf 1.77 \
	Pvap 1.06736e-10 \
	sigmaBulk 4.62e-05 \
	Rvdw 2.61727 \
	Res 1.42 \
	tauNuc 343133 \
	poleEl 15 7 1
forces-output-coords Positions
ion K   0.000000000000000   0.000000000000000   0.000000000000000 0
ion-species SG15/$ID_ONCV_PBE.upf
ion-width 0
ionic-minimize  \
	dirUpdateScheme      L-BFGS \
	linminMethod         DirUpdateRecommended \
	nIterations          0 \
	history              15 \
	knormThreshold       0.0001 \
	energyDiffThreshold  1e-06 \
	nEnergyDiff          2 \
	alphaTstart          1 \
	alphaTmin            1e-10 \
	updateTestStepSize   yes \
	alphaTreduceFactor   0.1 \
	alphaTincreaseFactor 3 \
	nAlphaAdjustMax      3 \
	wolfeEnergy          0.0001 \
	wolfeGradient        0.9 \
	fdTest               no
kpoint   0.000000000000   0.000000000000   0.000000000000  1.00000000000000
kpoint-folding 12 12 1 
latt-move-scale 1 1 1
latt-scale 0.77 0.77 1 
lattice  \
	   4.727486978767153   -2.363743489383575    0.000000000000000  \
	  -0.000000000000000    4.094123819672498    0.000000000000000  \
	   0.000000000000000    0.000000000000000   40.000000000000000 
lattice-minimize  \
	dirUpdateScheme      L-BFGS \
	linminMethod         DirUpdateRecommended \
	nIterations          0 \
	history              15 \
	knormThreshold       0 \
	energyDiffThreshold  1e-06 \
	nEnergyDiff          2 \
	alphaTstart          1 \
	alphaTmin            1e-10 \
	updateTestStepSize   yes \
	alphaTreduceFactor   0.1 \
	alphaTincreaseFactor 3 \
	nAlphaAdjustMax      3 \
	wolfeEnergy          0.0001 \
	wolfeGradient        0.9 \
	fdTest               no
lcao-params -1 1e-06 0.01
pcm-variant GLSSA13
spintype no-spin
subspace-rotation-factor 1 yes
symmetries automatic
symmetry-threshold 0.0001



---------- Setting up symmetries ----------

Found 24 point-group symmetries of the bravais lattice
Found 24 space-group symmetries with basis
Applied RMS atom displacement 0 bohrs to make symmetries exact.

---------- Initializing the Grid ----------
R = 
[      3.64016     -1.82008            0  ]
[            0      3.15248            0  ]
[            0            0           40  ]
unit cell volume = 459.021
G =
[    1.72607   0.996548         -0  ]
[          0     1.9931         -0  ]
[         -0         -0    0.15708  ]
Minimum fftbox size, Smin = [  16  16  164  ]
Chosen fftbox size, S = [  16  16  168  ]

---------- Exchange Correlation functional ----------
Initalized PBE GGA exchange.
Initalized PBE GGA correlation.

---------- Setting up pseudopotentials ----------
Width of ionic core gaussian charges (only for fluid interactions / plotting) set to 0

Reading pseudopotential file '/home/gridsan/aligho/DFT/build-Nov24/pseudopotentials/SG15/K_ONCV_PBE.upf':
  'K' pseudopotential, 'PBE' functional
  Generated using ONCVPSP code by D. R. Hamann
  Author: Martin Schlipf and Francois Gygi  Date: 150915.
  9 valence electrons, 3 orbitals, 6 projectors, 2222 radial grid points, with lMax = 2
  Transforming local potential to a uniform radial grid of dG=0.02 with 1536 points.
  Transforming nonlocal projectors to a uniform radial grid of dG=0.02 with 432 points.
    3S    l: 0   occupation:  2.0   eigenvalue: -1.298836
    3P    l: 1   occupation:  6.0   eigenvalue: -0.691386
    4S    l: 0   occupation:  1.0   eigenvalue: -0.085223
  Transforming atomic orbitals to a uniform radial grid of dG=0.02 with 432 points.
  Core radius for overlap checks: 2.06 bohrs.
  Reading pulay file /home/gridsan/aligho/DFT/build-Nov24/pseudopotentials/SG15/K_ONCV_PBE.pulay ... using dE_dnG = -1.597219e-05 computed for Ecut = 20.

Initialized 1 species with 1 total atoms.

Folded 1 k-points by 12x12x1 to 144 k-points.

---------- Setting up k-points, bands, fillings ----------
Reduced to 19 k-points under symmetry. 
Computing the number of bands and number of electrons
Calculating initial fillings.
nElectrons:   9.000000   nBands: 6   nStates: 19

----- Setting up reduced wavefunction bases (one per k-point) -----
average nbasis = 1960.688 , ideal nbasis = 1960.974

---------- Setting up coulomb interaction ----------
Initialized slab truncation along lattice direction 001

---------- Setting up 2D ewald sum ----------
Optimum gaussian width for ewald sums = 2.020873 bohr.
Real space sums over 289 unit cells with max indices [  8  8  0  ]
Reciprocal space sums over 81 terms with max indices [  4  4  0  ]

---------- Allocating electronic variables ----------
Initializing wave functions:  linear combination of atomic orbitals
Note: number of bands (6) exceeds available atomic orbitals (5)
K pseudo-atom occupations:   s ( 2 1 )  p ( 6 )
	FillingsUpdate:  mu: -0.223412992  nElectrons: 9.000000
LCAOMinimize: Iter:   0  F: -27.5390543822871550  |grad|_K:  9.852e-04  alpha:  1.000e+00
	FillingsUpdate:  mu: -0.223574357  nElectrons: 9.000000
LCAOMinimize: Iter:   1  F: -27.5393277767439884  |grad|_K:  1.058e-04  alpha:  8.582e-01  linmin: -3.561e-02  cgtest:  1.242e+00  t[s]:      0.86
LCAOMinimize: Encountered beta<0, resetting CG.
	FillingsUpdate:  mu: -0.223680357  nElectrons: 9.000000
LCAOMinimize: Iter:   2  F: -27.5393314980804149  |grad|_K:  2.536e-06  alpha:  9.688e-01  linmin: -3.560e-02  cgtest:  9.960e-01  t[s]:      1.02
LCAOMinimize: Encountered beta<0, resetting CG.
	FillingsUpdate:  mu: -0.223682454  nElectrons: 9.000000
LCAOMinimize: Iter:   3  F: -27.5393315002674868  |grad|_K:  1.441e-08  alpha:  9.951e-01  linmin: -5.218e-03  cgtest:  1.182e-01  t[s]:      1.19
LCAOMinimize: Encountered beta<0, resetting CG.
LCAOMinimize: 	Wrong curvature in test step, increasing alphaT to 2.985215e+00.
	FillingsUpdate:  mu: -0.223682434  nElectrons: 9.000000
LCAOMinimize: Iter:   4  F: -27.5393315002679024  |grad|_K:  1.137e-10  alpha: -2.571e-01  linmin:  2.445e-02  cgtest: -3.378e-01  t[s]:      1.36
LCAOMinimize: Converged (|Delta F|<1.000000e-06 for 2 iters).


---- Citations for features of the code used in this run ----

   Software package:
      R. Sundararaman, K. Letchworth-Weaver, K.A. Schwarz, D. Gunceler, Y. Ozhabes and T.A. Arias, 'JDFTx: software for joint density-functional theory', SoftwareX 6, 278 (2017)

   gga-PBE exchange-correlation functional:
      J.P. Perdew, K. Burke and M. Ernzerhof, Phys. Rev. Lett. 77, 3865 (1996)

   Pseudopotentials:
      M Schlipf and F Gygi, Comput. Phys. Commun. 196, 36 (2015)

   Truncated Coulomb potentials:
      R. Sundararaman and T.A. Arias, Phys. Rev. B 87, 165122 (2013)

This list may not be complete. Please suggest additional citations or
report any other bugs at https://github.com/shankar1729/jdftx/issues

Initialization completed successfully at t[s]:      1.39


-------- Electronic minimization -----------
Will mix electronic density at each iteration.
	FillingsUpdate:  mu: -0.223682434  nElectrons: 9.000000
	FillingsUpdate:  mu: -0.691410334  nElectrons: 9.000000
SCF: Cycle:  0   F: -27.689995717915679   dF: -1.507e-01   |Residual|: 2.552e-01   |deigs|: 6.401e-01  t[s]:      1.66
	FillingsUpdate:  mu: -0.668429398  nElectrons: 9.000000
SCF: Cycle:  1   F: -27.824808951410592   dF: -1.348e-01   |Residual|: 1.323e-01   |deigs|: 1.039e-01  t[s]:      1.86
	FillingsUpdate:  mu: -0.574211323  nElectrons: 9.000000
SCF: Cycle:  2   F: -27.890892604600989   dF: -6.608e-02   |Residual|: 6.367e-02   |deigs|: 1.174e-01  t[s]:      2.04
	FillingsUpdate:  mu: -0.507193012  nElectrons: 9.000000
SCF: Cycle:  3   F: -27.908621566918598   dF: -1.773e-02   |Residual|: 3.359e-02   |deigs|: 7.888e-02  t[s]:      2.23
	FillingsUpdate:  mu: -0.439189690  nElectrons: 9.000000
SCF: Cycle:  4   F: -27.923085424145171   dF: -1.446e-02   |Residual|: 2.275e-02   |deigs|: 8.553e-02  t[s]:      2.42
	FillingsUpdate:  mu: -0.405999608  nElectrons: 9.000000
SCF: Cycle:  5   F: -27.928272129724697   dF: -5.187e-03   |Residual|: 1.444e-02   |deigs|: 3.422e-02  t[s]:      2.62
	FillingsUpdate:  mu: -0.375904731  nElectrons: 9.000000
SCF: Cycle:  6   F: -27.931567215041849   dF: -3.295e-03   |Residual|: 1.201e-02   |deigs|: 3.253e-02  t[s]:      2.80
	FillingsUpdate:  mu: -0.337799214  nElectrons: 9.000000
SCF: Cycle:  7   F: -27.935046884074712   dF: -3.480e-03   |Residual|: 8.168e-03   |deigs|: 4.189e-02  t[s]:      3.00
	FillingsUpdate:  mu: -0.312198707  nElectrons: 9.000000
SCF: Cycle:  8   F: -27.936992558504965   dF: -1.946e-03   |Residual|: 7.144e-03   |deigs|: 2.431e-02  t[s]:      3.19
	FillingsUpdate:  mu: -0.261826531  nElectrons: 9.000000
SCF: Cycle:  9   F: -27.938869372214473   dF: -1.877e-03   |Residual|: 8.352e-03   |deigs|: 5.329e-02  t[s]:      3.39
	FillingsUpdate:  mu: -0.261840923  nElectrons: 9.000000
SCF: Cycle: 10   F: -27.940454526633811   dF: -1.585e-03   |Residual|: 8.092e-03   |deigs|: 7.802e-03  t[s]:      3.58
	FillingsUpdate:  mu: -0.214530249  nElectrons: 9.000000
SCF: Cycle: 11   F: -27.942525639550425   dF: -2.071e-03   |Residual|: 5.045e-03   |deigs|: 4.934e-02  t[s]:      3.79
	FillingsUpdate:  mu: -0.193347999  nElectrons: 9.000000
SCF: Cycle: 12   F: -27.943565587465258   dF: -1.040e-03   |Residual|: 5.783e-03   |deigs|: 2.138e-02  t[s]:      3.98
	FillingsUpdate:  mu: -0.160103250  nElectrons: 9.000000
SCF: Cycle: 13   F: -27.943899184921364   dF: -3.336e-04   |Residual|: 5.719e-03   |deigs|: 3.214e-02  t[s]:      4.18
	FillingsUpdate:  mu: -0.135261310  nElectrons: 9.000000
SCF: Cycle: 14   F: -27.944511448985303   dF: -6.123e-04   |Residual|: 3.025e-03   |deigs|: 2.611e-02  t[s]:      4.37
	FillingsUpdate:  mu: -0.123603314  nElectrons: 9.000000
SCF: Cycle: 15   F: -27.944741430804260   dF: -2.300e-04   |Residual|: 2.148e-03   |deigs|: 1.191e-02  t[s]:      4.57
	FillingsUpdate:  mu: -0.117295325  nElectrons: 9.000000
SCF: Cycle: 16   F: -27.944858315952722   dF: -1.169e-04   |Residual|: 1.163e-03   |deigs|: 6.316e-03  t[s]:      4.76
[d-4-7-2:91871] 18 more processes have sent help message help-mpi-common-cuda.txt / dlopen failed
[d-4-7-2:91871] Set MCA parameter "orte_base_help_aggregate" to 0 to see all help / error messages
[d-4-7-2:91871] 18 more processes have sent help message help-mpi-btl-openib-cpc-base.txt / no cpcs for port
	FillingsUpdate:  mu: -0.114877038  nElectrons: 9.000000
SCF: Cycle: 17   F: -27.944918574493123   dF: -6.026e-05   |Residual|: 5.121e-04   |deigs|: 2.631e-03  t[s]:      4.95
	FillingsUpdate:  mu: -0.117811716  nElectrons: 9.000000
SCF: Cycle: 18   F: -27.944947515866296   dF: -2.894e-05   |Residual|: 5.625e-04   |deigs|: 5.064e-03  t[s]:      5.14
	FillingsUpdate:  mu: -0.117040193  nElectrons: 9.000000
SCF: Cycle: 19   F: -27.944961870704251   dF: -1.435e-05   |Residual|: 1.537e-04   |deigs|: 4.487e-03  t[s]:      5.34
	FillingsUpdate:  mu: -0.117779429  nElectrons: 9.000000
SCF: Cycle: 20   F: -27.944968754414525   dF: -6.884e-06   |Residual|: 4.604e-05   |deigs|: 1.121e-02  t[s]:      5.51
	FillingsUpdate:  mu: -0.118088136  nElectrons: 9.000000
SCF: Cycle: 21   F: -27.944973537911739   dF: -4.783e-06   |Residual|: 4.066e-05   |deigs|: 1.559e-02  t[s]:      5.69
	FillingsUpdate:  mu: -0.117898631  nElectrons: 9.000000
SCF: Cycle: 22   F: -27.944976649409146   dF: -3.111e-06   |Residual|: 3.075e-05   |deigs|: 2.655e-03  t[s]:      5.87
	FillingsUpdate:  mu: -0.117946472  nElectrons: 9.000000
SCF: Cycle: 23   F: -27.944978554743361   dF: -1.905e-06   |Residual|: 2.986e-05   |deigs|: 7.156e-04  t[s]:      6.05
	FillingsUpdate:  mu: -0.117898516  nElectrons: 9.000000
SCF: Cycle: 24   F: -27.944980333527933   dF: -1.779e-06   |Residual|: 4.781e-05   |deigs|: 2.985e-04  t[s]:      6.23
	FillingsUpdate:  mu: -0.117968350  nElectrons: 9.000000
SCF: Cycle: 25   F: -27.944981049290284   dF: -7.158e-07   |Residual|: 1.368e-05   |deigs|: 2.576e-04  t[s]:      6.41
	FillingsUpdate:  mu: -0.117996610  nElectrons: 9.000000
SCF: Cycle: 26   F: -27.944981818183624   dF: -7.689e-07   |Residual|: 6.328e-06   |deigs|: 2.313e-04  t[s]:      6.59
	FillingsUpdate:  mu: -0.117989700  nElectrons: 9.000000
SCF: Cycle: 27   F: -27.944982225466443   dF: -4.073e-07   |Residual|: 1.249e-05   |deigs|: 1.808e-04  t[s]:      6.77
	FillingsUpdate:  mu: -0.118003658  nElectrons: 9.000000
SCF: Cycle: 28   F: -27.944982591708857   dF: -3.662e-07   |Residual|: 5.559e-06   |deigs|: 1.625e-04  t[s]:      6.95
	FillingsUpdate:  mu: -0.118008953  nElectrons: 9.000000
SCF: Cycle: 29   F: -27.944982767525175   dF: -1.758e-07   |Residual|: 4.305e-06   |deigs|: 1.406e-04  t[s]:      7.14
	FillingsUpdate:  mu: -0.118022478  nElectrons: 9.000000
SCF: Cycle: 30   F: -27.944982957037855   dF: -1.895e-07   |Residual|: 6.245e-06   |deigs|: 1.334e-04  t[s]:      7.32
	FillingsUpdate:  mu: -0.118035965  nElectrons: 9.000000
SCF: Cycle: 31   F: -27.944983044196547   dF: -8.716e-08   |Residual|: 4.532e-06   |deigs|: 1.670e-04  t[s]:      7.49
	FillingsUpdate:  mu: -0.118028692  nElectrons: 9.000000
SCF: Cycle: 32   F: -27.944983150481402   dF: -1.063e-07   |Residual|: 1.851e-06   |deigs|: 1.555e-04  t[s]:      7.69
	FillingsUpdate:  mu: -0.118031219  nElectrons: 9.000000
SCF: Cycle: 33   F: -27.944983206932367   dF: -5.645e-08   |Residual|: 1.412e-06   |deigs|: 1.048e-04  t[s]:      7.86
	FillingsUpdate:  mu: -0.118034477  nElectrons: 9.000000
SCF: Cycle: 34   F: -27.944983257636533   dF: -5.070e-08   |Residual|: 7.206e-07   |deigs|: 1.048e-04  t[s]:      8.04
	FillingsUpdate:  mu: -0.118039428  nElectrons: 9.000000
SCF: Cycle: 35   F: -27.944983294628880   dF: -3.699e-08   |Residual|: 8.462e-07   |deigs|: 1.053e-04  t[s]:      8.22
	FillingsUpdate:  mu: -0.118038936  nElectrons: 9.000000
SCF: Cycle: 36   F: -27.944983317961626   dF: -2.333e-08   |Residual|: 3.842e-07   |deigs|: 1.217e-04  t[s]:      8.41
	FillingsUpdate:  mu: -0.118040150  nElectrons: 9.000000
SCF: Cycle: 37   F: -27.944983338518320   dF: -2.056e-08   |Residual|: 6.376e-07   |deigs|: 1.292e-04  t[s]:      8.59
	FillingsUpdate:  mu: -0.118042157  nElectrons: 9.000000
SCF: Cycle: 38   F: -27.944983354079667   dF: -1.556e-08   |Residual|: 2.625e-07   |deigs|: 1.283e-04  t[s]:      8.76
	FillingsUpdate:  mu: -0.118043463  nElectrons: 9.000000
SCF: Cycle: 39   F: -27.944983366120027   dF: -1.204e-08   |Residual|: 3.719e-07   |deigs|: 1.345e-04  t[s]:      8.94
	FillingsUpdate:  mu: -0.118044997  nElectrons: 9.000000
SCF: Cycle: 40   F: -27.944983375081119   dF: -8.961e-09   |Residual|: 4.906e-07   |deigs|: 1.060e-04  t[s]:      9.11
	FillingsUpdate:  mu: -0.118043538  nElectrons: 9.000000
SCF: Cycle: 41   F: -27.944983386441901   dF: -1.136e-08   |Residual|: 5.435e-07   |deigs|: 9.320e-05  t[s]:      9.30
	FillingsUpdate:  mu: -0.118043243  nElectrons: 9.000000
SCF: Cycle: 42   F: -27.944983392330229   dF: -5.888e-09   |Residual|: 6.409e-07   |deigs|: 1.333e-04  t[s]:      9.48
	FillingsUpdate:  mu: -0.118042618  nElectrons: 9.000000
SCF: Cycle: 43   F: -27.944983396955521   dF: -4.625e-09   |Residual|: 5.142e-07   |deigs|: 1.238e-04  t[s]:      9.65
SCF: Converged (|Delta E|<1.000000e-08 for 2 iters).


# Ionic positions in lattice coordinates:
ion K   0.000000000000000   0.000000000000000   0.000000000000000 0

# Forces in Lattice coordinates:
force K  -0.000000000000000   0.000000000000000   0.000000000000000 0

# Energy components:
   Eewald =      -46.8779898709939147
       EH =      -24.7852069288601200
     Eloc =       39.9640869332792761
      Enl =       -3.1971004008187212
   Epulay =       -0.0000000099552350
      Exc =       -4.7637157381399922
       KE =       11.7206732915283318
-------------------------------------
     Etot =      -27.9392527239603758
       TS =        0.0057306729951450
-------------------------------------
        F =      -27.9449833969555215

IonicMinimize: Iter:   0  F: -27.944983396955521  |grad|_K:  0.000e+00  t[s]:      9.67
IonicMinimize: Converged (|grad|_K<1.000000e-04).

#--- Lowdin population analysis ---
# oxidation-state K +0.814

End date and time: Sun Jan 16 14:50:13 2022  (Duration: 0-0:00:09.68)
Done!
