0.62
--------------------------------------------------------------------------
The library attempted to open the following supporting CUDA libraries,
but each of them failed.  CUDA-aware support is disabled.
libcuda.so.1: cannot open shared object file: No such file or directory
libcuda.dylib: cannot open shared object file: No such file or directory
/usr/lib64/libcuda.so.1: cannot open shared object file: No such file or directory
/usr/lib64/libcuda.dylib: cannot open shared object file: No such file or directory
If you are not interested in CUDA-aware support, then run with
--mca opal_warn_on_missing_libcuda 0 to suppress this message.  If you are interested
in CUDA-aware support, then try setting LD_LIBRARY_PATH to the location
of libcuda.so.1 to get passed this issue.
--------------------------------------------------------------------------
--------------------------------------------------------------------------
No OpenFabrics connection schemes reported that they were able to be
used on a specific port.  As such, the openib BTL (OpenFabrics
support) will be disabled for this port.

  Local host:           d-3-11-2
  Local device:         mlx5_1
  Local port:           1
  CPCs attempted:       rdmacm, udcm
--------------------------------------------------------------------------

*************** JDFTx 1.6.0 (git hash 42ebbcc2) ***************

Start date and time: Sun Jan 16 14:50:04 2022
Executable jdftx with command-line: -i Potassium.in
Running on hosts (process indices):  d-3-11-2 (0-18)
Divided in process groups (process indices):  0 (0)  1 (1)  2 (2)  3 (3)  4 (4)  5 (5)  6 (6)  7 (7)  8 (8)  9 (9)  10 (10)  11 (11)  12 (12)  13 (13)  14 (14)  15 (15)  16 (16)  17 (17)  18 (18)
Resource initialization completed at t[s]:      0.00
Run totals: 19 processes, 48 threads, 0 GPUs


Input parsed successfully to the following command list (including defaults):

basis kpoint-dependent
coords-type Lattice
core-overlap-check vector
coulomb-interaction Slab 001
davidson-band-ratio 1.1
dump End None
dump-name $INPUT.$VAR
elec-cutoff 20
elec-eigen-algo Davidson
elec-ex-corr gga-PBE
elec-smearing Fermi 0.01
electronic-minimize  \
	dirUpdateScheme      FletcherReeves \
	linminMethod         DirUpdateRecommended \
	nIterations          100 \
	history              15 \
	knormThreshold       0 \
	energyDiffThreshold  1e-08 \
	nEnergyDiff          2 \
	alphaTstart          1 \
	alphaTmin            1e-10 \
	updateTestStepSize   yes \
	alphaTreduceFactor   0.1 \
	alphaTincreaseFactor 3 \
	nAlphaAdjustMax      3 \
	wolfeEnergy          0.0001 \
	wolfeGradient        0.9 \
	fdTest               no
electronic-scf  \
	nIterations	10000 \
	energyDiffThreshold	1e-08 \
	residualThreshold	1e-07 \
	mixFraction	0.5 \
	qMetric	0.8 \
	history	10 \
	nEigSteps	2 \
	eigDiffThreshold	1e-08 \
	mixedVariable	Density \
	qKerker	0.8 \
	qKappa	-1 \
	verbose	no \
	mixFractionMag	1.5
exchange-regularization WignerSeitzTruncated
fluid None
fluid-ex-corr (null) lda-PZ
fluid-gummel-loop 10 1.000000e-05
fluid-minimize  \
	dirUpdateScheme      PolakRibiere \
	linminMethod         DirUpdateRecommended \
	nIterations          100 \
	history              15 \
	knormThreshold       0 \
	energyDiffThreshold  0 \
	nEnergyDiff          2 \
	alphaTstart          1 \
	alphaTmin            1e-10 \
	updateTestStepSize   yes \
	alphaTreduceFactor   0.1 \
	alphaTincreaseFactor 3 \
	nAlphaAdjustMax      3 \
	wolfeEnergy          0.0001 \
	wolfeGradient        0.9 \
	fdTest               no
fluid-solvent H2O 55.338 ScalarEOS \
	epsBulk 78.4 \
	pMol 0.92466 \
	epsInf 1.77 \
	Pvap 1.06736e-10 \
	sigmaBulk 4.62e-05 \
	Rvdw 2.61727 \
	Res 1.42 \
	tauNuc 343133 \
	poleEl 15 7 1
forces-output-coords Positions
ion K   0.000000000000000   0.000000000000000   0.000000000000000 0
ion-species SG15/$ID_ONCV_PBE.upf
ion-width 0
ionic-minimize  \
	dirUpdateScheme      L-BFGS \
	linminMethod         DirUpdateRecommended \
	nIterations          0 \
	history              15 \
	knormThreshold       0.0001 \
	energyDiffThreshold  1e-06 \
	nEnergyDiff          2 \
	alphaTstart          1 \
	alphaTmin            1e-10 \
	updateTestStepSize   yes \
	alphaTreduceFactor   0.1 \
	alphaTincreaseFactor 3 \
	nAlphaAdjustMax      3 \
	wolfeEnergy          0.0001 \
	wolfeGradient        0.9 \
	fdTest               no
kpoint   0.000000000000   0.000000000000   0.000000000000  1.00000000000000
kpoint-folding 12 12 1 
latt-move-scale 1 1 1
latt-scale 0.62 0.62 1 
lattice  \
	   4.727486978767153   -2.363743489383575    0.000000000000000  \
	  -0.000000000000000    4.094123819672498    0.000000000000000  \
	   0.000000000000000    0.000000000000000   40.000000000000000 
lattice-minimize  \
	dirUpdateScheme      L-BFGS \
	linminMethod         DirUpdateRecommended \
	nIterations          0 \
	history              15 \
	knormThreshold       0 \
	energyDiffThreshold  1e-06 \
	nEnergyDiff          2 \
	alphaTstart          1 \
	alphaTmin            1e-10 \
	updateTestStepSize   yes \
	alphaTreduceFactor   0.1 \
	alphaTincreaseFactor 3 \
	nAlphaAdjustMax      3 \
	wolfeEnergy          0.0001 \
	wolfeGradient        0.9 \
	fdTest               no
lcao-params -1 1e-06 0.01
pcm-variant GLSSA13
spintype no-spin
subspace-rotation-factor 1 yes
symmetries automatic
symmetry-threshold 0.0001



---------- Setting up symmetries ----------

Found 24 point-group symmetries of the bravais lattice
Found 24 space-group symmetries with basis
Applied RMS atom displacement 0 bohrs to make symmetries exact.

---------- Initializing the Grid ----------
R = 
[      2.93104     -1.46552            0  ]
[            0      2.53836            0  ]
[            0            0           40  ]
unit cell volume = 297.601
G =
[    2.14367    1.23765         -0  ]
[          0     2.4753         -0  ]
[         -0         -0    0.15708  ]
Minimum fftbox size, Smin = [  12  12  164  ]
Chosen fftbox size, S = [  12  12  168  ]

---------- Exchange Correlation functional ----------
Initalized PBE GGA exchange.
Initalized PBE GGA correlation.

---------- Setting up pseudopotentials ----------
Width of ionic core gaussian charges (only for fluid interactions / plotting) set to 0

Reading pseudopotential file '/home/gridsan/aligho/DFT/build-Nov24/pseudopotentials/SG15/K_ONCV_PBE.upf':
  'K' pseudopotential, 'PBE' functional
  Generated using ONCVPSP code by D. R. Hamann
  Author: Martin Schlipf and Francois Gygi  Date: 150915.
  9 valence electrons, 3 orbitals, 6 projectors, 2222 radial grid points, with lMax = 2
  Transforming local potential to a uniform radial grid of dG=0.02 with 1451 points.
  Transforming nonlocal projectors to a uniform radial grid of dG=0.02 with 432 points.
    3S    l: 0   occupation:  2.0   eigenvalue: -1.298836
    3P    l: 1   occupation:  6.0   eigenvalue: -0.691386
    4S    l: 0   occupation:  1.0   eigenvalue: -0.085223
  Transforming atomic orbitals to a uniform radial grid of dG=0.02 with 432 points.
  Core radius for overlap checks: 2.06 bohrs.
  Reading pulay file /home/gridsan/aligho/DFT/build-Nov24/pseudopotentials/SG15/K_ONCV_PBE.pulay ... using dE_dnG = -1.597219e-05 computed for Ecut = 20.

Initialized 1 species with 1 total atoms.

Folded 1 k-points by 12x12x1 to 144 k-points.

---------- Setting up k-points, bands, fillings ----------
Reduced to 19 k-points under symmetry. 
Computing the number of bands and number of electrons
Calculating initial fillings.
nElectrons:   9.000000   nBands: 6   nStates: 19

----- Setting up reduced wavefunction bases (one per k-point) -----
average nbasis = 1271.438 , ideal nbasis = 1271.375

---------- Setting up coulomb interaction ----------
Initialized slab truncation along lattice direction 001

---------- Setting up 2D ewald sum ----------
Optimum gaussian width for ewald sums = 1.627196 bohr.
Real space sums over 289 unit cells with max indices [  8  8  0  ]
Reciprocal space sums over 81 terms with max indices [  4  4  0  ]

---------- Allocating electronic variables ----------
Initializing wave functions:  linear combination of atomic orbitals
Note: number of bands (6) exceeds available atomic orbitals (5)
K pseudo-atom occupations:   s ( 2 1 )  p ( 6 )
	FillingsUpdate:  mu: -0.175002985  nElectrons: 9.000000
LCAOMinimize: Iter:   0  F: -25.6491129684237968  |grad|_K:  2.113e-03  alpha:  1.000e+00
	FillingsUpdate:  mu: -0.173785883  nElectrons: 9.000000
LCAOMinimize: Iter:   1  F: -25.6496734268137097  |grad|_K:  1.277e-03  alpha:  2.594e-01  linmin: -1.708e-02  cgtest:  1.223e+00  t[s]:      0.72
LCAOMinimize: Encountered beta<0, resetting CG.
LCAOMinimize: 	Predicted alpha/alphaT>3.000000, increasing alphaT to 7.782704e-01.
	FillingsUpdate:  mu: -0.173552331  nElectrons: 9.000000
LCAOMinimize: Iter:   2  F: -25.6497863384089939  |grad|_K:  1.091e-03  alpha:  1.117e-01  linmin: -1.716e-02  cgtest:  1.039e+00  t[s]:      0.92
LCAOMinimize: Encountered beta<0, resetting CG.
LCAOMinimize: 	Predicted alpha/alphaT>3.000000, increasing alphaT to 3.351596e-01.
LCAOMinimize: 	Wrong curvature in test step, increasing alphaT to 1.005479e+00.
	FillingsUpdate:  mu: -0.093956395  nElectrons: 9.000000
LCAOMinimize: Iter:   3  F: -25.6556509746454573  |grad|_K:  8.048e-03  alpha: -8.173e-03  linmin: -4.004e-02  cgtest:  8.471e-02  t[s]:      1.12
LCAOMinimize: 	Step increased F by 1.363988e+00, reducing alpha to 3.660357e-02.
LCAOMinimize: 	Step increased F by 1.392993e-02, reducing alpha to 3.660357e-03.
	FillingsUpdate:  mu: +0.107948358  nElectrons: 9.000000
LCAOMinimize: Iter:   4  F: -25.6576944579641513  |grad|_K:  6.991e-03  alpha:  3.660e-03  linmin:  4.169e-02  cgtest: -9.841e-01  t[s]:      1.42
LCAOMinimize: 	Bad step direction: g.d > 0.
LCAOMinimize: 	Undoing step.
LCAOMinimize: 	Step failed: resetting search direction.
	FillingsUpdate:  mu: +0.107948358  nElectrons: 9.000000
LCAOMinimize: Iter:   5  F: -25.6576944579641513  |grad|_K:  6.991e-03  alpha:  0.000e+00
LCAOMinimize: 	Predicted alpha/alphaT>3.000000, increasing alphaT to 1.098107e-02.
LCAOMinimize: 	Predicted alpha/alphaT>3.000000, increasing alphaT to 3.294322e-02.
LCAOMinimize: 	Predicted alpha/alphaT>3.000000, increasing alphaT to 9.882965e-02.
	FillingsUpdate:  mu: +0.056397597  nElectrons: 9.000000
LCAOMinimize: Iter:   6  F: -25.6610989996228547  |grad|_K:  6.731e-04  alpha:  2.400e-01  linmin:  1.949e-01  cgtest: -1.195e+00  t[s]:      1.77
	FillingsUpdate:  mu: +0.054755002  nElectrons: 9.000000
LCAOMinimize: Iter:   7  F: -25.6611009591289942  |grad|_K:  7.414e-04  alpha:  8.012e-02  linmin: -1.300e-04  cgtest:  9.832e-01  t[s]:      1.91
LCAOMinimize: 	Predicted alpha/alphaT>3.000000, increasing alphaT to 2.403502e-01.
	FillingsUpdate:  mu: +0.069546786  nElectrons: 9.000000
LCAOMinimize: Iter:   8  F: -25.6611619893602345  |grad|_K:  4.053e-04  alpha:  3.497e-01  linmin:  6.634e-03  cgtest: -4.044e-01  t[s]:      2.11
	FillingsUpdate:  mu: +0.070500983  nElectrons: 9.000000
LCAOMinimize: Iter:   9  F: -25.6611794845638848  |grad|_K:  4.246e-04  alpha:  4.755e-01  linmin:  1.955e-04  cgtest:  7.592e-01  t[s]:      2.26
	FillingsUpdate:  mu: +0.065071607  nElectrons: 9.000000
LCAOMinimize: Iter:  10  F: -25.6611910447614910  |grad|_K:  3.184e-05  alpha:  1.768e-01  linmin: -2.681e-02  cgtest:  8.035e-01  t[s]:      2.41
LCAOMinimize: Encountered beta<0, resetting CG.
	FillingsUpdate:  mu: +0.064582771  nElectrons: 9.000000
LCAOMinimize: Iter:  11  F: -25.6611911325836495  |grad|_K:  1.676e-05  alpha:  2.532e-01  linmin: -2.123e-05  cgtest:  1.809e-03  t[s]:      2.56
	FillingsUpdate:  mu: +0.064716094  nElectrons: 9.000000
LCAOMinimize: Iter:  12  F: -25.6611912020595803  |grad|_K:  9.961e-08  alpha:  7.215e-01  linmin: -3.827e-03  cgtest: -4.445e-02  t[s]:      2.72
LCAOMinimize: Converged (|Delta F|<1.000000e-06 for 2 iters).


---- Citations for features of the code used in this run ----

   Software package:
      R. Sundararaman, K. Letchworth-Weaver, K.A. Schwarz, D. Gunceler, Y. Ozhabes and T.A. Arias, 'JDFTx: software for joint density-functional theory', SoftwareX 6, 278 (2017)

   gga-PBE exchange-correlation functional:
      J.P. Perdew, K. Burke and M. Ernzerhof, Phys. Rev. Lett. 77, 3865 (1996)

   Pseudopotentials:
      M Schlipf and F Gygi, Comput. Phys. Commun. 196, 36 (2015)

   Truncated Coulomb potentials:
      R. Sundararaman and T.A. Arias, Phys. Rev. B 87, 165122 (2013)

This list may not be complete. Please suggest additional citations or
report any other bugs at https://github.com/shankar1729/jdftx/issues

Initialization completed successfully at t[s]:      2.75


-------- Electronic minimization -----------
Will mix electronic density at each iteration.
	FillingsUpdate:  mu: +0.064716094  nElectrons: 9.000000
	FillingsUpdate:  mu: -1.780621170  nElectrons: 9.000000
SCF: Cycle:  0   F: -26.583578841129491   dF: -9.224e-01   |Residual|: 4.211e-01   |deigs|: 1.292e+00  t[s]:      3.02
	FillingsUpdate:  mu: -1.744025641  nElectrons: 9.000000
SCF: Cycle:  1   F: -26.855185572079499   dF: -2.716e-01   |Residual|: 2.601e-01   |deigs|: 1.843e-01  t[s]:      3.16
	FillingsUpdate:  mu: -1.496794718  nElectrons: 9.000000
SCF: Cycle:  2   F: -26.950290276460137   dF: -9.510e-02   |Residual|: 9.565e-02   |deigs|: 2.688e-01  t[s]:      3.31
	FillingsUpdate:  mu: -1.363754936  nElectrons: 9.000000
SCF: Cycle:  3   F: -26.986002808558634   dF: -3.571e-02   |Residual|: 6.350e-02   |deigs|: 1.390e-01  t[s]:      3.46
	FillingsUpdate:  mu: -1.135963946  nElectrons: 9.000000
SCF: Cycle:  4   F: -27.010120753814554   dF: -2.412e-02   |Residual|: 4.630e-02   |deigs|: 2.335e-01  t[s]:      3.62
	FillingsUpdate:  mu: -0.955474571  nElectrons: 9.000000
SCF: Cycle:  5   F: -27.023764504517679   dF: -1.364e-02   |Residual|: 3.523e-02   |deigs|: 1.844e-01  t[s]:      3.76
	FillingsUpdate:  mu: -0.913090251  nElectrons: 9.000000
SCF: Cycle:  6   F: -27.027845199836694   dF: -4.081e-03   |Residual|: 2.655e-02   |deigs|: 4.369e-02  t[s]:      3.93
	FillingsUpdate:  mu: -0.748662760  nElectrons: 9.000000
SCF: Cycle:  7   F: -27.033153366357762   dF: -5.308e-03   |Residual|: 4.079e-02   |deigs|: 1.652e-01  t[s]:      4.08
	FillingsUpdate:  mu: -0.739133205  nElectrons: 9.000000
SCF: Cycle:  8   F: -27.040657244885377   dF: -7.504e-03   |Residual|: 3.190e-02   |deigs|: 1.440e-02  t[s]:      4.23
	FillingsUpdate:  mu: -0.525026336  nElectrons: 9.000000
SCF: Cycle:  9   F: -27.044799581879424   dF: -4.142e-03   |Residual|: 2.109e-02   |deigs|: 2.152e-01  t[s]:      4.37
	FillingsUpdate:  mu: -0.598758124  nElectrons: 9.000000
SCF: Cycle: 10   F: -27.037152991363193   dF: +7.647e-03   |Residual|: 5.169e-02   |deigs|: 8.108e-02  t[s]:      4.52
	FillingsUpdate:  mu: -0.396376070  nElectrons: 9.000000
SCF: Cycle: 11   F: -27.043477030450262   dF: -6.324e-03   |Residual|: 2.209e-02   |deigs|: 2.043e-01  t[s]:      4.66
[d-3-11-2:12185] 18 more processes have sent help message help-mpi-common-cuda.txt / dlopen failed
[d-3-11-2:12185] Set MCA parameter "orte_base_help_aggregate" to 0 to see all help / error messages
[d-3-11-2:12185] 18 more processes have sent help message help-mpi-btl-openib-cpc-base.txt / no cpcs for port
	FillingsUpdate:  mu: -0.252580840  nElectrons: 9.000000
SCF: Cycle: 12   F: -27.046791342382797   dF: -3.314e-03   |Residual|: 1.633e-02   |deigs|: 1.442e-01  t[s]:      4.81
	FillingsUpdate:  mu: -0.140687074  nElectrons: 9.000000
SCF: Cycle: 13   F: -27.047560083602775   dF: -7.687e-04   |Residual|: 1.328e-02   |deigs|: 1.109e-01  t[s]:      4.95
	FillingsUpdate:  mu: -0.077454027  nElectrons: 9.000000
SCF: Cycle: 14   F: -27.057854801325060   dF: -1.029e-02   |Residual|: 2.180e-02   |deigs|: 7.524e-02  t[s]:      5.09
	FillingsUpdate:  mu: -0.113786363  nElectrons: 9.000000
SCF: Cycle: 15   F: -27.061444815935779   dF: -3.590e-03   |Residual|: 5.430e-03   |deigs|: 4.233e-02  t[s]:      5.23
	FillingsUpdate:  mu: -0.058234684  nElectrons: 9.000000
SCF: Cycle: 16   F: -27.062987149116765   dF: -1.542e-03   |Residual|: 7.685e-03   |deigs|: 5.765e-02  t[s]:      5.37
	FillingsUpdate:  mu: -0.072989733  nElectrons: 9.000000
SCF: Cycle: 17   F: -27.063924260623669   dF: -9.371e-04   |Residual|: 3.888e-03   |deigs|: 1.578e-02  t[s]:      5.51
	FillingsUpdate:  mu: -0.084139427  nElectrons: 9.000000
SCF: Cycle: 18   F: -27.064413879183718   dF: -4.896e-04   |Residual|: 1.691e-03   |deigs|: 1.220e-02  t[s]:      5.64
	FillingsUpdate:  mu: -0.104648903  nElectrons: 9.000000
SCF: Cycle: 19   F: -27.064583011362295   dF: -1.691e-04   |Residual|: 2.192e-03   |deigs|: 2.185e-02  t[s]:      5.79
	FillingsUpdate:  mu: -0.091986238  nElectrons: 9.000000
SCF: Cycle: 20   F: -27.064772193373610   dF: -1.892e-04   |Residual|: 3.450e-04   |deigs|: 1.507e-02  t[s]:      5.92
	FillingsUpdate:  mu: -0.093957132  nElectrons: 9.000000
SCF: Cycle: 21   F: -27.064861568506206   dF: -8.938e-05   |Residual|: 3.767e-04   |deigs|: 1.475e-02  t[s]:      6.06
	FillingsUpdate:  mu: -0.092914561  nElectrons: 9.000000
SCF: Cycle: 22   F: -27.064998682743731   dF: -1.371e-04   |Residual|: 1.149e-03   |deigs|: 1.957e-03  t[s]:      6.20
	FillingsUpdate:  mu: -0.093339276  nElectrons: 9.000000
SCF: Cycle: 23   F: -27.065089494016419   dF: -9.081e-05   |Residual|: 1.745e-03   |deigs|: 3.501e-04  t[s]:      6.33
	FillingsUpdate:  mu: -0.093550324  nElectrons: 9.000000
SCF: Cycle: 24   F: -27.065130366939254   dF: -4.087e-05   |Residual|: 1.889e-03   |deigs|: 2.088e-04  t[s]:      6.46
	FillingsUpdate:  mu: -0.093600409  nElectrons: 9.000000
SCF: Cycle: 25   F: -27.065166296732528   dF: -3.593e-05   |Residual|: 2.056e-03   |deigs|: 1.418e-04  t[s]:      6.59
	FillingsUpdate:  mu: -0.093724801  nElectrons: 9.000000
SCF: Cycle: 26   F: -27.065172061011797   dF: -5.764e-06   |Residual|: 2.151e-03   |deigs|: 1.868e-04  t[s]:      6.72
	FillingsUpdate:  mu: -0.093475060  nElectrons: 9.000000
SCF: Cycle: 27   F: -27.065173500429545   dF: -1.439e-06   |Residual|: 2.011e-03   |deigs|: 2.671e-04  t[s]:      6.85
	FillingsUpdate:  mu: -0.093686881  nElectrons: 9.000000
SCF: Cycle: 28   F: -27.065173942840207   dF: -4.424e-07   |Residual|: 2.063e-03   |deigs|: 2.285e-04  t[s]:      6.99
	FillingsUpdate:  mu: -0.093890556  nElectrons: 9.000000
SCF: Cycle: 29   F: -27.065173824402013   dF: +1.184e-07   |Residual|: 2.185e-03   |deigs|: 2.264e-04  t[s]:      7.12
	FillingsUpdate:  mu: -0.094038180  nElectrons: 9.000000
SCF: Cycle: 30   F: -27.065173829642550   dF: -5.241e-09   |Residual|: 2.265e-03   |deigs|: 1.601e-04  t[s]:      7.26
	FillingsUpdate:  mu: -0.094020793  nElectrons: 9.000000
SCF: Cycle: 31   F: -27.065174054577493   dF: -2.249e-07   |Residual|: 2.253e-03   |deigs|: 3.354e-05  t[s]:      7.39
	FillingsUpdate:  mu: -0.093925796  nElectrons: 9.000000
SCF: Cycle: 32   F: -27.065174284579964   dF: -2.300e-07   |Residual|: 2.243e-03   |deigs|: 9.929e-05  t[s]:      7.52
	FillingsUpdate:  mu: -0.093440006  nElectrons: 9.000000
SCF: Cycle: 33   F: -27.065173817119891   dF: +4.675e-07   |Residual|: 1.903e-03   |deigs|: 5.916e-04  t[s]:      7.66
	FillingsUpdate:  mu: -0.091640857  nElectrons: 9.000000
SCF: Cycle: 34   F: -27.065177072599731   dF: -3.255e-06   |Residual|: 1.287e-03   |deigs|: 1.888e-03  t[s]:      7.80
	FillingsUpdate:  mu: -0.088353587  nElectrons: 9.000000
SCF: Cycle: 35   F: -27.065172712285143   dF: +4.360e-06   |Residual|: 6.197e-04   |deigs|: 3.448e-03  t[s]:      7.94
	FillingsUpdate:  mu: -0.088484773  nElectrons: 9.000000
SCF: Cycle: 36   F: -27.065173035845664   dF: -3.236e-07   |Residual|: 6.104e-04   |deigs|: 1.416e-04  t[s]:      8.08
	FillingsUpdate:  mu: -0.088440775  nElectrons: 9.000000
SCF: Cycle: 37   F: -27.065173287002722   dF: -2.512e-07   |Residual|: 6.393e-04   |deigs|: 8.815e-05  t[s]:      8.21
	FillingsUpdate:  mu: -0.090661769  nElectrons: 9.000000
SCF: Cycle: 38   F: -27.065176755070524   dF: -3.468e-06   |Residual|: 2.734e-04   |deigs|: 2.331e-03  t[s]:      8.35
	FillingsUpdate:  mu: -0.091642135  nElectrons: 9.000000
SCF: Cycle: 39   F: -27.065177311523996   dF: -5.565e-07   |Residual|: 2.115e-04   |deigs|: 1.046e-03  t[s]:      8.48
	FillingsUpdate:  mu: -0.091246169  nElectrons: 9.000000
SCF: Cycle: 40   F: -27.065177335103403   dF: -2.358e-08   |Residual|: 8.361e-05   |deigs|: 4.878e-04  t[s]:      8.61
	FillingsUpdate:  mu: -0.092009040  nElectrons: 9.000000
SCF: Cycle: 41   F: -27.065177420826128   dF: -8.572e-08   |Residual|: 6.462e-05   |deigs|: 7.812e-04  t[s]:      8.75
	FillingsUpdate:  mu: -0.092391039  nElectrons: 9.000000
SCF: Cycle: 42   F: -27.065177454112796   dF: -3.329e-08   |Residual|: 3.911e-05   |deigs|: 3.917e-04  t[s]:      8.89
	FillingsUpdate:  mu: -0.092577393  nElectrons: 9.000000
SCF: Cycle: 43   F: -27.065177473940672   dF: -1.983e-08   |Residual|: 2.192e-05   |deigs|: 1.909e-04  t[s]:      9.03
	FillingsUpdate:  mu: -0.092839513  nElectrons: 9.000000
SCF: Cycle: 44   F: -27.065177488721783   dF: -1.478e-08   |Residual|: 1.619e-05   |deigs|: 2.738e-04  t[s]:      9.16
	FillingsUpdate:  mu: -0.092857380  nElectrons: 9.000000
SCF: Cycle: 45   F: -27.065177503191880   dF: -1.447e-08   |Residual|: 6.789e-06   |deigs|: 5.458e-05  t[s]:      9.29
	FillingsUpdate:  mu: -0.092969141  nElectrons: 9.000000
SCF: Cycle: 46   F: -27.065177506216095   dF: -3.024e-09   |Residual|: 6.647e-06   |deigs|: 1.191e-04  t[s]:      9.43
	FillingsUpdate:  mu: -0.092918616  nElectrons: 9.000000
SCF: Cycle: 47   F: -27.065177509200531   dF: -2.984e-09   |Residual|: 3.219e-06   |deigs|: 5.296e-05  t[s]:      9.57
SCF: Converged (|Delta E|<1.000000e-08 for 2 iters).


# Ionic positions in lattice coordinates:
ion K   0.000000000000000   0.000000000000000   0.000000000000000 0

# Forces in Lattice coordinates:
force K   0.000000000000000   0.000000000000000   0.000000000000000 0

# Energy components:
   Eewald =      -58.2194390333311631
       EH =      -37.2042056901671714
     Eloc =       63.5096489776727609
      Enl =       -4.1429252139560351
   Epulay =        0.0000000033530185
      Exc =       -5.2631101979861104
       KE =       14.2588180106659959
-------------------------------------
     Etot =      -27.0612131437487093
       TS =        0.0039643654518218
-------------------------------------
        F =      -27.0651775092005309

IonicMinimize: Iter:   0  F: -27.065177509200531  |grad|_K:  0.000e+00  t[s]:      9.58
IonicMinimize: Converged (|grad|_K<1.000000e-04).

#--- Lowdin population analysis ---
# oxidation-state K +1.568

End date and time: Sun Jan 16 14:50:13 2022  (Duration: 0-0:00:09.59)
Done!
