1.19
--------------------------------------------------------------------------
The library attempted to open the following supporting CUDA libraries,
but each of them failed.  CUDA-aware support is disabled.
libcuda.so.1: cannot open shared object file: No such file or directory
libcuda.dylib: cannot open shared object file: No such file or directory
/usr/lib64/libcuda.so.1: cannot open shared object file: No such file or directory
/usr/lib64/libcuda.dylib: cannot open shared object file: No such file or directory
If you are not interested in CUDA-aware support, then run with
--mca opal_warn_on_missing_libcuda 0 to suppress this message.  If you are interested
in CUDA-aware support, then try setting LD_LIBRARY_PATH to the location
of libcuda.so.1 to get passed this issue.
--------------------------------------------------------------------------
--------------------------------------------------------------------------
No OpenFabrics connection schemes reported that they were able to be
used on a specific port.  As such, the openib BTL (OpenFabrics
support) will be disabled for this port.

  Local host:           d-17-12-4
  Local device:         mlx5_1
  Local port:           1
  CPCs attempted:       rdmacm, udcm
--------------------------------------------------------------------------

*************** JDFTx 1.6.0 (git hash 42ebbcc2) ***************

Start date and time: Sun Jan 16 14:50:04 2022
Executable jdftx with command-line: -i Potassium.in
Running on hosts (process indices):  d-17-12-4 (0-18)
Divided in process groups (process indices):  0 (0)  1 (1)  2 (2)  3 (3)  4 (4)  5 (5)  6 (6)  7 (7)  8 (8)  9 (9)  10 (10)  11 (11)  12 (12)  13 (13)  14 (14)  15 (15)  16 (16)  17 (17)  18 (18)
Resource initialization completed at t[s]:      0.00
Run totals: 19 processes, 48 threads, 0 GPUs


Input parsed successfully to the following command list (including defaults):

basis kpoint-dependent
coords-type Lattice
core-overlap-check vector
coulomb-interaction Slab 001
davidson-band-ratio 1.1
dump End None
dump-name $INPUT.$VAR
elec-cutoff 20
elec-eigen-algo Davidson
elec-ex-corr gga-PBE
elec-smearing Fermi 0.01
electronic-minimize  \
	dirUpdateScheme      FletcherReeves \
	linminMethod         DirUpdateRecommended \
	nIterations          100 \
	history              15 \
	knormThreshold       0 \
	energyDiffThreshold  1e-08 \
	nEnergyDiff          2 \
	alphaTstart          1 \
	alphaTmin            1e-10 \
	updateTestStepSize   yes \
	alphaTreduceFactor   0.1 \
	alphaTincreaseFactor 3 \
	nAlphaAdjustMax      3 \
	wolfeEnergy          0.0001 \
	wolfeGradient        0.9 \
	fdTest               no
electronic-scf  \
	nIterations	10000 \
	energyDiffThreshold	1e-08 \
	residualThreshold	1e-07 \
	mixFraction	0.5 \
	qMetric	0.8 \
	history	10 \
	nEigSteps	2 \
	eigDiffThreshold	1e-08 \
	mixedVariable	Density \
	qKerker	0.8 \
	qKappa	-1 \
	verbose	no \
	mixFractionMag	1.5
exchange-regularization WignerSeitzTruncated
fluid None
fluid-ex-corr (null) lda-PZ
fluid-gummel-loop 10 1.000000e-05
fluid-minimize  \
	dirUpdateScheme      PolakRibiere \
	linminMethod         DirUpdateRecommended \
	nIterations          100 \
	history              15 \
	knormThreshold       0 \
	energyDiffThreshold  0 \
	nEnergyDiff          2 \
	alphaTstart          1 \
	alphaTmin            1e-10 \
	updateTestStepSize   yes \
	alphaTreduceFactor   0.1 \
	alphaTincreaseFactor 3 \
	nAlphaAdjustMax      3 \
	wolfeEnergy          0.0001 \
	wolfeGradient        0.9 \
	fdTest               no
fluid-solvent H2O 55.338 ScalarEOS \
	epsBulk 78.4 \
	pMol 0.92466 \
	epsInf 1.77 \
	Pvap 1.06736e-10 \
	sigmaBulk 4.62e-05 \
	Rvdw 2.61727 \
	Res 1.42 \
	tauNuc 343133 \
	poleEl 15 7 1
forces-output-coords Positions
ion K   0.000000000000000   0.000000000000000   0.000000000000000 0
ion-species SG15/$ID_ONCV_PBE.upf
ion-width 0
ionic-minimize  \
	dirUpdateScheme      L-BFGS \
	linminMethod         DirUpdateRecommended \
	nIterations          0 \
	history              15 \
	knormThreshold       0.0001 \
	energyDiffThreshold  1e-06 \
	nEnergyDiff          2 \
	alphaTstart          1 \
	alphaTmin            1e-10 \
	updateTestStepSize   yes \
	alphaTreduceFactor   0.1 \
	alphaTincreaseFactor 3 \
	nAlphaAdjustMax      3 \
	wolfeEnergy          0.0001 \
	wolfeGradient        0.9 \
	fdTest               no
kpoint   0.000000000000   0.000000000000   0.000000000000  1.00000000000000
kpoint-folding 12 12 1 
latt-move-scale 1 1 1
latt-scale 1.19 1.19 1 
lattice  \
	   4.727486978767153   -2.363743489383575    0.000000000000000  \
	  -0.000000000000000    4.094123819672498    0.000000000000000  \
	   0.000000000000000    0.000000000000000   40.000000000000000 
lattice-minimize  \
	dirUpdateScheme      L-BFGS \
	linminMethod         DirUpdateRecommended \
	nIterations          0 \
	history              15 \
	knormThreshold       0 \
	energyDiffThreshold  1e-06 \
	nEnergyDiff          2 \
	alphaTstart          1 \
	alphaTmin            1e-10 \
	updateTestStepSize   yes \
	alphaTreduceFactor   0.1 \
	alphaTincreaseFactor 3 \
	nAlphaAdjustMax      3 \
	wolfeEnergy          0.0001 \
	wolfeGradient        0.9 \
	fdTest               no
lcao-params -1 1e-06 0.01
pcm-variant GLSSA13
spintype no-spin
subspace-rotation-factor 1 yes
symmetries automatic
symmetry-threshold 0.0001



---------- Setting up symmetries ----------

Found 24 point-group symmetries of the bravais lattice
Found 24 space-group symmetries with basis
Applied RMS atom displacement 0 bohrs to make symmetries exact.

---------- Initializing the Grid ----------
R = 
[      5.62571     -2.81285            0  ]
[            0      4.87201            0  ]
[            0            0           40  ]
unit cell volume = 1096.34
G =
[    1.11687   0.644825         -0  ]
[          0    1.28965         -0  ]
[         -0         -0    0.15708  ]
Minimum fftbox size, Smin = [  24  24  164  ]
Chosen fftbox size, S = [  24  24  168  ]

---------- Exchange Correlation functional ----------
Initalized PBE GGA exchange.
Initalized PBE GGA correlation.

---------- Setting up pseudopotentials ----------
Width of ionic core gaussian charges (only for fluid interactions / plotting) set to 0

Reading pseudopotential file '/home/gridsan/aligho/DFT/build-Nov24/pseudopotentials/SG15/K_ONCV_PBE.upf':
  'K' pseudopotential, 'PBE' functional
  Generated using ONCVPSP code by D. R. Hamann
  Author: Martin Schlipf and Francois Gygi  Date: 150915.
  9 valence electrons, 3 orbitals, 6 projectors, 2222 radial grid points, with lMax = 2
  Transforming local potential to a uniform radial grid of dG=0.02 with 1499 points.
  Transforming nonlocal projectors to a uniform radial grid of dG=0.02 with 432 points.
    3S    l: 0   occupation:  2.0   eigenvalue: -1.298836
    3P    l: 1   occupation:  6.0   eigenvalue: -0.691386
    4S    l: 0   occupation:  1.0   eigenvalue: -0.085223
  Transforming atomic orbitals to a uniform radial grid of dG=0.02 with 432 points.
  Core radius for overlap checks: 2.06 bohrs.
  Reading pulay file /home/gridsan/aligho/DFT/build-Nov24/pseudopotentials/SG15/K_ONCV_PBE.pulay ... using dE_dnG = -1.597219e-05 computed for Ecut = 20.

Initialized 1 species with 1 total atoms.

Folded 1 k-points by 12x12x1 to 144 k-points.

---------- Setting up k-points, bands, fillings ----------
Reduced to 19 k-points under symmetry. 
Computing the number of bands and number of electrons
Calculating initial fillings.
nElectrons:   9.000000   nBands: 6   nStates: 19

----- Setting up reduced wavefunction bases (one per k-point) -----
average nbasis = 4682.438 , ideal nbasis = 4683.648

---------- Setting up coulomb interaction ----------
Initialized slab truncation along lattice direction 001

---------- Setting up 2D ewald sum ----------
Optimum gaussian width for ewald sums = 3.123167 bohr.
Real space sums over 289 unit cells with max indices [  8  8  0  ]
Reciprocal space sums over 81 terms with max indices [  4  4  0  ]

---------- Allocating electronic variables ----------
Initializing wave functions:  linear combination of atomic orbitals
Note: number of bands (6) exceeds available atomic orbitals (5)
K pseudo-atom occupations:   s ( 2 1 )  p ( 6 )
	FillingsUpdate:  mu: -0.125290169  nElectrons: 9.000000
LCAOMinimize: Iter:   0  F: -28.3180792532282730  |grad|_K:  1.426e-04  alpha:  1.000e+00
	FillingsUpdate:  mu: -0.125072694  nElectrons: 9.000000
LCAOMinimize: Iter:   1  F: -28.3180858126868102  |grad|_K:  5.859e-06  alpha:  9.480e-01  linmin: -4.248e-02  cgtest:  9.902e-01  t[s]:      1.33
LCAOMinimize: Encountered beta<0, resetting CG.
	FillingsUpdate:  mu: -0.125066066  nElectrons: 9.000000
LCAOMinimize: Iter:   2  F: -28.3180858243646192  |grad|_K:  2.015e-08  alpha:  9.946e-01  linmin: -3.414e-02  cgtest:  5.673e-01  t[s]:      1.60
LCAOMinimize: Encountered beta<0, resetting CG.
LCAOMinimize: 	Step increased F by 7.176482e-13, reducing alpha to 1.963698e-02.
	FillingsUpdate:  mu: -0.125066066  nElectrons: 9.000000
LCAOMinimize: Iter:   3  F: -28.3180858243647293  |grad|_K:  1.975e-08  alpha:  1.964e-02  linmin: -3.746e-02  cgtest:  1.000e+00  t[s]:      2.04
LCAOMinimize: Encountered beta<0, resetting CG.
LCAOMinimize: Converged (|Delta F|<1.000000e-06 for 2 iters).


---- Citations for features of the code used in this run ----

   Software package:
      R. Sundararaman, K. Letchworth-Weaver, K.A. Schwarz, D. Gunceler, Y. Ozhabes and T.A. Arias, 'JDFTx: software for joint density-functional theory', SoftwareX 6, 278 (2017)

   gga-PBE exchange-correlation functional:
      J.P. Perdew, K. Burke and M. Ernzerhof, Phys. Rev. Lett. 77, 3865 (1996)

   Pseudopotentials:
      M Schlipf and F Gygi, Comput. Phys. Commun. 196, 36 (2015)

   Truncated Coulomb potentials:
      R. Sundararaman and T.A. Arias, Phys. Rev. B 87, 165122 (2013)

This list may not be complete. Please suggest additional citations or
report any other bugs at https://github.com/shankar1729/jdftx/issues

Initialization completed successfully at t[s]:      2.07


-------- Electronic minimization -----------
Will mix electronic density at each iteration.
	FillingsUpdate:  mu: -0.125066066  nElectrons: 9.000000
	FillingsUpdate:  mu: -0.160403138  nElectrons: 9.000000
SCF: Cycle:  0   F: -28.328136974804263   dF: -1.005e-02   |Residual|: 4.117e-02   |deigs|: 2.198e-01  t[s]:      2.62
	FillingsUpdate:  mu: -0.165457489  nElectrons: 9.000000
SCF: Cycle:  1   F: -28.331084218844822   dF: -2.947e-03   |Residual|: 3.077e-02   |deigs|: 8.977e-03  t[s]:      2.99
	FillingsUpdate:  mu: -0.151061007  nElectrons: 9.000000
SCF: Cycle:  2   F: -28.336209347079418   dF: -5.125e-03   |Residual|: 1.015e-02   |deigs|: 1.804e-02  t[s]:      3.36
	FillingsUpdate:  mu: -0.148974286  nElectrons: 9.000000
SCF: Cycle:  3   F: -28.337306919472720   dF: -1.098e-03   |Residual|: 8.339e-03   |deigs|: 5.544e-03  t[s]:      3.75
	FillingsUpdate:  mu: -0.134973963  nElectrons: 9.000000
SCF: Cycle:  4   F: -28.338836864162872   dF: -1.530e-03   |Residual|: 5.941e-03   |deigs|: 1.765e-02  t[s]:      4.14
	FillingsUpdate:  mu: -0.130166514  nElectrons: 9.000000
SCF: Cycle:  5   F: -28.339273139104900   dF: -4.363e-04   |Residual|: 5.470e-03   |deigs|: 4.262e-03  t[s]:      4.53
[d-17-12-4:11819] 18 more processes have sent help message help-mpi-common-cuda.txt / dlopen failed
[d-17-12-4:11819] Set MCA parameter "orte_base_help_aggregate" to 0 to see all help / error messages
[d-17-12-4:11819] 18 more processes have sent help message help-mpi-btl-openib-cpc-base.txt / no cpcs for port
	FillingsUpdate:  mu: -0.132520559  nElectrons: 9.000000
SCF: Cycle:  6   F: -28.339468425741842   dF: -1.953e-04   |Residual|: 4.203e-03   |deigs|: 2.539e-03  t[s]:      4.92
	FillingsUpdate:  mu: -0.128698829  nElectrons: 9.000000
SCF: Cycle:  7   F: -28.339877405974594   dF: -4.090e-04   |Residual|: 3.817e-03   |deigs|: 6.312e-03  t[s]:      5.32
	FillingsUpdate:  mu: -0.126983971  nElectrons: 9.000000
SCF: Cycle:  8   F: -28.340298622641996   dF: -4.212e-04   |Residual|: 2.351e-03   |deigs|: 6.796e-03  t[s]:      5.72
	FillingsUpdate:  mu: -0.126655669  nElectrons: 9.000000
SCF: Cycle:  9   F: -28.340559750860233   dF: -2.611e-04   |Residual|: 3.369e-03   |deigs|: 1.823e-03  t[s]:      6.12
	FillingsUpdate:  mu: -0.124576384  nElectrons: 9.000000
SCF: Cycle: 10   F: -28.341026405259420   dF: -4.667e-04   |Residual|: 1.696e-03   |deigs|: 3.638e-03  t[s]:      6.53
	FillingsUpdate:  mu: -0.124011128  nElectrons: 9.000000
SCF: Cycle: 11   F: -28.341375679690909   dF: -3.493e-04   |Residual|: 3.189e-03   |deigs|: 2.301e-03  t[s]:      6.94
	FillingsUpdate:  mu: -0.121546555  nElectrons: 9.000000
SCF: Cycle: 12   F: -28.341579146993141   dF: -2.035e-04   |Residual|: 1.534e-03   |deigs|: 1.866e-03  t[s]:      7.35
	FillingsUpdate:  mu: -0.119293975  nElectrons: 9.000000
SCF: Cycle: 13   F: -28.342045528953136   dF: -4.664e-04   |Residual|: 1.307e-03   |deigs|: 3.276e-03  t[s]:      7.76
	FillingsUpdate:  mu: -0.123195066  nElectrons: 9.000000
SCF: Cycle: 14   F: -28.342367421998564   dF: -3.219e-04   |Residual|: 2.049e-03   |deigs|: 4.161e-03  t[s]:      8.18
	FillingsUpdate:  mu: -0.122358076  nElectrons: 9.000000
SCF: Cycle: 15   F: -28.342553410763500   dF: -1.860e-04   |Residual|: 7.006e-04   |deigs|: 1.403e-03  t[s]:      8.59
	FillingsUpdate:  mu: -0.121082505  nElectrons: 9.000000
SCF: Cycle: 16   F: -28.342671997709523   dF: -1.186e-04   |Residual|: 4.880e-04   |deigs|: 2.984e-03  t[s]:      8.99
	FillingsUpdate:  mu: -0.120804482  nElectrons: 9.000000
SCF: Cycle: 17   F: -28.342751655009568   dF: -7.966e-05   |Residual|: 5.610e-04   |deigs|: 2.844e-03  t[s]:      9.39
	FillingsUpdate:  mu: -0.121593841  nElectrons: 9.000000
SCF: Cycle: 18   F: -28.342844504548445   dF: -9.285e-05   |Residual|: 4.541e-04   |deigs|: 1.655e-03  t[s]:      9.80
	FillingsUpdate:  mu: -0.122060968  nElectrons: 9.000000
SCF: Cycle: 19   F: -28.342932893887092   dF: -8.839e-05   |Residual|: 3.207e-04   |deigs|: 1.215e-03  t[s]:     10.20
	FillingsUpdate:  mu: -0.121992032  nElectrons: 9.000000
SCF: Cycle: 20   F: -28.343013892904381   dF: -8.100e-05   |Residual|: 3.685e-04   |deigs|: 8.657e-04  t[s]:     10.58
	FillingsUpdate:  mu: -0.122315951  nElectrons: 9.000000
SCF: Cycle: 21   F: -28.343087069384268   dF: -7.318e-05   |Residual|: 6.136e-04   |deigs|: 9.862e-04  t[s]:     10.94
	FillingsUpdate:  mu: -0.122552529  nElectrons: 9.000000
SCF: Cycle: 22   F: -28.343138365425901   dF: -5.130e-05   |Residual|: 7.182e-04   |deigs|: 7.116e-04  t[s]:     11.33
	FillingsUpdate:  mu: -0.122623240  nElectrons: 9.000000
SCF: Cycle: 23   F: -28.343180642263942   dF: -4.228e-05   |Residual|: 7.218e-04   |deigs|: 5.184e-04  t[s]:     11.71
	FillingsUpdate:  mu: -0.122661588  nElectrons: 9.000000
SCF: Cycle: 24   F: -28.343238519881304   dF: -5.788e-05   |Residual|: 9.059e-04   |deigs|: 7.722e-04  t[s]:     12.07
	FillingsUpdate:  mu: -0.122912618  nElectrons: 9.000000
SCF: Cycle: 25   F: -28.343274357472470   dF: -3.584e-05   |Residual|: 1.032e-03   |deigs|: 9.971e-04  t[s]:     12.43
	FillingsUpdate:  mu: -0.122806221  nElectrons: 9.000000
SCF: Cycle: 26   F: -28.343293574649017   dF: -1.922e-05   |Residual|: 1.072e-03   |deigs|: 5.424e-04  t[s]:     12.79
	FillingsUpdate:  mu: -0.122920724  nElectrons: 9.000000
SCF: Cycle: 27   F: -28.343327588233475   dF: -3.401e-05   |Residual|: 1.247e-03   |deigs|: 5.167e-04  t[s]:     13.15
	FillingsUpdate:  mu: -0.123100462  nElectrons: 9.000000
SCF: Cycle: 28   F: -28.343347642543236   dF: -2.005e-05   |Residual|: 1.333e-03   |deigs|: 4.806e-04  t[s]:     13.50
	FillingsUpdate:  mu: -0.123054220  nElectrons: 9.000000
SCF: Cycle: 29   F: -28.343362725117238   dF: -1.508e-05   |Residual|: 1.399e-03   |deigs|: 3.559e-04  t[s]:     13.85
	FillingsUpdate:  mu: -0.123119120  nElectrons: 9.000000
SCF: Cycle: 30   F: -28.343374113324671   dF: -1.139e-05   |Residual|: 1.455e-03   |deigs|: 2.780e-04  t[s]:     14.20
	FillingsUpdate:  mu: -0.123029721  nElectrons: 9.000000
SCF: Cycle: 31   F: -28.343383672266896   dF: -9.559e-06   |Residual|: 1.481e-03   |deigs|: 2.501e-04  t[s]:     14.58
	FillingsUpdate:  mu: -0.122991477  nElectrons: 9.000000
SCF: Cycle: 32   F: -28.343393300541933   dF: -9.628e-06   |Residual|: 1.495e-03   |deigs|: 3.131e-04  t[s]:     14.92
	FillingsUpdate:  mu: -0.122908125  nElectrons: 9.000000
SCF: Cycle: 33   F: -28.343402848769546   dF: -9.548e-06   |Residual|: 1.438e-03   |deigs|: 2.953e-04  t[s]:     15.29
	FillingsUpdate:  mu: -0.122770711  nElectrons: 9.000000
SCF: Cycle: 34   F: -28.343412538689631   dF: -9.690e-06   |Residual|: 1.515e-03   |deigs|: 3.063e-04  t[s]:     15.66
	FillingsUpdate:  mu: -0.122947360  nElectrons: 9.000000
SCF: Cycle: 35   F: -28.343421944427533   dF: -9.406e-06   |Residual|: 1.616e-03   |deigs|: 4.764e-04  t[s]:     16.02
	FillingsUpdate:  mu: -0.122881408  nElectrons: 9.000000
SCF: Cycle: 36   F: -28.343429519832178   dF: -7.575e-06   |Residual|: 1.707e-03   |deigs|: 4.172e-04  t[s]:     16.38
	FillingsUpdate:  mu: -0.122295442  nElectrons: 9.000000
SCF: Cycle: 37   F: -28.343439647661928   dF: -1.013e-05   |Residual|: 1.194e-03   |deigs|: 6.321e-04  t[s]:     16.77
	FillingsUpdate:  mu: -0.122349567  nElectrons: 9.000000
SCF: Cycle: 38   F: -28.343447082712963   dF: -7.435e-06   |Residual|: 1.127e-03   |deigs|: 3.571e-04  t[s]:     17.13
	FillingsUpdate:  mu: -0.122351929  nElectrons: 9.000000
SCF: Cycle: 39   F: -28.343454525895485   dF: -7.443e-06   |Residual|: 1.220e-03   |deigs|: 9.865e-04  t[s]:     17.49
	FillingsUpdate:  mu: -0.122623459  nElectrons: 9.000000
SCF: Cycle: 40   F: -28.343462664894115   dF: -8.139e-06   |Residual|: 9.996e-04   |deigs|: 5.202e-04  t[s]:     17.87
	FillingsUpdate:  mu: -0.122657392  nElectrons: 9.000000
SCF: Cycle: 41   F: -28.343469446458670   dF: -6.782e-06   |Residual|: 6.587e-04   |deigs|: 2.899e-04  t[s]:     18.26
	FillingsUpdate:  mu: -0.122611561  nElectrons: 9.000000
SCF: Cycle: 42   F: -28.343475500598071   dF: -6.054e-06   |Residual|: 1.178e-04   |deigs|: 2.409e-04  t[s]:     18.65
	FillingsUpdate:  mu: -0.122856437  nElectrons: 9.000000
SCF: Cycle: 43   F: -28.343480687781323   dF: -5.187e-06   |Residual|: 5.219e-05   |deigs|: 3.225e-04  t[s]:     19.02
	FillingsUpdate:  mu: -0.122906162  nElectrons: 9.000000
SCF: Cycle: 44   F: -28.343486129563043   dF: -5.442e-06   |Residual|: 3.026e-05   |deigs|: 2.130e-04  t[s]:     19.40
	FillingsUpdate:  mu: -0.122871842  nElectrons: 9.000000
SCF: Cycle: 45   F: -28.343491530891363   dF: -5.401e-06   |Residual|: 7.502e-05   |deigs|: 1.992e-04  t[s]:     19.77
	FillingsUpdate:  mu: -0.122945196  nElectrons: 9.000000
SCF: Cycle: 46   F: -28.343513466925220   dF: -2.194e-05   |Residual|: 8.129e-05   |deigs|: 7.488e-04  t[s]:     20.14
	FillingsUpdate:  mu: -0.122983191  nElectrons: 9.000000
SCF: Cycle: 47   F: -28.343529018109042   dF: -1.555e-05   |Residual|: 1.431e-04   |deigs|: 3.421e-04  t[s]:     20.49
	FillingsUpdate:  mu: -0.122984964  nElectrons: 9.000000
SCF: Cycle: 48   F: -28.343533853341331   dF: -4.835e-06   |Residual|: 1.488e-04   |deigs|: 1.031e-04  t[s]:     20.84
	FillingsUpdate:  mu: -0.123024978  nElectrons: 9.000000
SCF: Cycle: 49   F: -28.343537435925427   dF: -3.583e-06   |Residual|: 2.057e-04   |deigs|: 7.970e-05  t[s]:     21.18
	FillingsUpdate:  mu: -0.122966512  nElectrons: 9.000000
SCF: Cycle: 50   F: -28.343539714070271   dF: -2.278e-06   |Residual|: 1.261e-04   |deigs|: 7.744e-05  t[s]:     21.56
	FillingsUpdate:  mu: -0.122982501  nElectrons: 9.000000
SCF: Cycle: 51   F: -28.343541880954007   dF: -2.167e-06   |Residual|: 1.408e-04   |deigs|: 4.553e-05  t[s]:     21.91
	FillingsUpdate:  mu: -0.122954327  nElectrons: 9.000000
SCF: Cycle: 52   F: -28.343543796983475   dF: -1.916e-06   |Residual|: 6.372e-05   |deigs|: 4.469e-05  t[s]:     22.29
	FillingsUpdate:  mu: -0.123035060  nElectrons: 9.000000
SCF: Cycle: 53   F: -28.343545312689049   dF: -1.516e-06   |Residual|: 1.319e-04   |deigs|: 8.784e-05  t[s]:     22.65
	FillingsUpdate:  mu: -0.123070111  nElectrons: 9.000000
SCF: Cycle: 54   F: -28.343546901150678   dF: -1.588e-06   |Residual|: 1.927e-04   |deigs|: 5.812e-05  t[s]:     23.03
	FillingsUpdate:  mu: -0.123086365  nElectrons: 9.000000
SCF: Cycle: 55   F: -28.343548490870909   dF: -1.590e-06   |Residual|: 2.170e-04   |deigs|: 4.268e-05  t[s]:     23.39
	FillingsUpdate:  mu: -0.123055751  nElectrons: 9.000000
SCF: Cycle: 56   F: -28.343549728453166   dF: -1.238e-06   |Residual|: 1.395e-04   |deigs|: 3.611e-05  t[s]:     23.77
	FillingsUpdate:  mu: -0.123054303  nElectrons: 9.000000
SCF: Cycle: 57   F: -28.343551715709800   dF: -1.987e-06   |Residual|: 1.459e-04   |deigs|: 3.031e-05  t[s]:     24.12
	FillingsUpdate:  mu: -0.123023678  nElectrons: 9.000000
SCF: Cycle: 58   F: -28.343552954544009   dF: -1.239e-06   |Residual|: 1.188e-04   |deigs|: 3.871e-05  t[s]:     24.47
	FillingsUpdate:  mu: -0.123003340  nElectrons: 9.000000
SCF: Cycle: 59   F: -28.343553584281299   dF: -6.297e-07   |Residual|: 1.134e-04   |deigs|: 2.710e-05  t[s]:     24.84
	FillingsUpdate:  mu: -0.122988088  nElectrons: 9.000000
SCF: Cycle: 60   F: -28.343554147246092   dF: -5.630e-07   |Residual|: 1.025e-04   |deigs|: 2.111e-05  t[s]:     25.21
	FillingsUpdate:  mu: -0.122931066  nElectrons: 9.000000
SCF: Cycle: 61   F: -28.343554664977965   dF: -5.177e-07   |Residual|: 4.500e-05   |deigs|: 6.543e-05  t[s]:     25.62
	FillingsUpdate:  mu: -0.122976189  nElectrons: 9.000000
SCF: Cycle: 62   F: -28.343555101779881   dF: -4.368e-07   |Residual|: 9.683e-05   |deigs|: 5.216e-05  t[s]:     25.99
	FillingsUpdate:  mu: -0.122959510  nElectrons: 9.000000
SCF: Cycle: 63   F: -28.343555537691454   dF: -4.359e-07   |Residual|: 5.507e-05   |deigs|: 2.201e-05  t[s]:     26.37
	FillingsUpdate:  mu: -0.122991733  nElectrons: 9.000000
SCF: Cycle: 64   F: -28.343555882018304   dF: -3.443e-07   |Residual|: 1.083e-04   |deigs|: 3.741e-05  t[s]:     26.74
	FillingsUpdate:  mu: -0.122956064  nElectrons: 9.000000
SCF: Cycle: 65   F: -28.343556196179705   dF: -3.142e-07   |Residual|: 5.461e-05   |deigs|: 4.043e-05  t[s]:     27.12
	FillingsUpdate:  mu: -0.122922582  nElectrons: 9.000000
SCF: Cycle: 66   F: -28.343556475495038   dF: -2.793e-07   |Residual|: 2.796e-05   |deigs|: 4.034e-05  t[s]:     27.51
	FillingsUpdate:  mu: -0.122921764  nElectrons: 9.000000
SCF: Cycle: 67   F: -28.343556770923843   dF: -2.954e-07   |Residual|: 2.767e-05   |deigs|: 9.599e-06  t[s]:     27.87
	FillingsUpdate:  mu: -0.122917478  nElectrons: 9.000000
SCF: Cycle: 68   F: -28.343557005381900   dF: -2.345e-07   |Residual|: 4.273e-05   |deigs|: 3.567e-05  t[s]:     28.27
	FillingsUpdate:  mu: -0.122901952  nElectrons: 9.000000
SCF: Cycle: 69   F: -28.343557207859519   dF: -2.025e-07   |Residual|: 3.737e-05   |deigs|: 4.016e-05  t[s]:     28.64
	FillingsUpdate:  mu: -0.122883349  nElectrons: 9.000000
SCF: Cycle: 70   F: -28.343557381179782   dF: -1.733e-07   |Residual|: 1.955e-05   |deigs|: 2.637e-05  t[s]:     28.99
	FillingsUpdate:  mu: -0.122883734  nElectrons: 9.000000
SCF: Cycle: 71   F: -28.343557538456039   dF: -1.573e-07   |Residual|: 1.670e-05   |deigs|: 1.302e-05  t[s]:     29.35
	FillingsUpdate:  mu: -0.122914385  nElectrons: 9.000000
SCF: Cycle: 72   F: -28.343557696224785   dF: -1.578e-07   |Residual|: 1.444e-05   |deigs|: 4.590e-05  t[s]:     29.72
	FillingsUpdate:  mu: -0.122916429  nElectrons: 9.000000
SCF: Cycle: 73   F: -28.343557817878231   dF: -1.217e-07   |Residual|: 2.028e-05   |deigs|: 8.680e-06  t[s]:     30.09
	FillingsUpdate:  mu: -0.122914163  nElectrons: 9.000000
SCF: Cycle: 74   F: -28.343557926377887   dF: -1.085e-07   |Residual|: 1.437e-05   |deigs|: 1.035e-05  t[s]:     30.47
	FillingsUpdate:  mu: -0.122931560  nElectrons: 9.000000
SCF: Cycle: 75   F: -28.343558029225839   dF: -1.028e-07   |Residual|: 1.004e-05   |deigs|: 4.105e-05  t[s]:     30.85
	FillingsUpdate:  mu: -0.122918744  nElectrons: 9.000000
SCF: Cycle: 76   F: -28.343558131838257   dF: -1.026e-07   |Residual|: 3.086e-06   |deigs|: 2.921e-05  t[s]:     31.22
	FillingsUpdate:  mu: -0.122903880  nElectrons: 9.000000
SCF: Cycle: 77   F: -28.343558206137402   dF: -7.430e-08   |Residual|: 7.234e-06   |deigs|: 3.170e-05  t[s]:     31.60
	FillingsUpdate:  mu: -0.122905421  nElectrons: 9.000000
SCF: Cycle: 78   F: -28.343558278199005   dF: -7.206e-08   |Residual|: 1.023e-05   |deigs|: 4.189e-06  t[s]:     31.95
	FillingsUpdate:  mu: -0.122908561  nElectrons: 9.000000
SCF: Cycle: 79   F: -28.343558341973470   dF: -6.377e-08   |Residual|: 8.631e-06   |deigs|: 5.604e-06  t[s]:     32.29
	FillingsUpdate:  mu: -0.122910058  nElectrons: 9.000000
SCF: Cycle: 80   F: -28.343558434692827   dF: -9.272e-08   |Residual|: 5.749e-06   |deigs|: 5.200e-06  t[s]:     32.66
	FillingsUpdate:  mu: -0.122913762  nElectrons: 9.000000
SCF: Cycle: 81   F: -28.343558493637513   dF: -5.894e-08   |Residual|: 3.462e-06   |deigs|: 6.269e-06  t[s]:     33.00
	FillingsUpdate:  mu: -0.122914959  nElectrons: 9.000000
SCF: Cycle: 82   F: -28.343558531371947   dF: -3.773e-08   |Residual|: 3.354e-06   |deigs|: 3.280e-06  t[s]:     33.37
	FillingsUpdate:  mu: -0.122914906  nElectrons: 9.000000
SCF: Cycle: 83   F: -28.343558574145199   dF: -4.277e-08   |Residual|: 2.677e-06   |deigs|: 2.737e-06  t[s]:     33.73
	FillingsUpdate:  mu: -0.122914953  nElectrons: 9.000000
SCF: Cycle: 84   F: -28.343558607247115   dF: -3.310e-08   |Residual|: 3.595e-06   |deigs|: 3.339e-06  t[s]:     34.11
	FillingsUpdate:  mu: -0.122916709  nElectrons: 9.000000
SCF: Cycle: 85   F: -28.343558632871897   dF: -2.562e-08   |Residual|: 3.652e-06   |deigs|: 5.043e-06  t[s]:     34.55
	FillingsUpdate:  mu: -0.122916993  nElectrons: 9.000000
SCF: Cycle: 86   F: -28.343558655853872   dF: -2.298e-08   |Residual|: 2.896e-06   |deigs|: 2.518e-06  t[s]:     34.93
	FillingsUpdate:  mu: -0.122910770  nElectrons: 9.000000
SCF: Cycle: 87   F: -28.343558676416219   dF: -2.056e-08   |Residual|: 6.495e-06   |deigs|: 2.202e-05  t[s]:     35.31
	FillingsUpdate:  mu: -0.122912301  nElectrons: 9.000000
SCF: Cycle: 88   F: -28.343558697551160   dF: -2.113e-08   |Residual|: 4.795e-06   |deigs|: 5.129e-06  t[s]:     35.69
	FillingsUpdate:  mu: -0.122909167  nElectrons: 9.000000
SCF: Cycle: 89   F: -28.343558712672785   dF: -1.512e-08   |Residual|: 8.927e-06   |deigs|: 9.060e-06  t[s]:     36.03
	FillingsUpdate:  mu: -0.122908990  nElectrons: 9.000000
SCF: Cycle: 90   F: -28.343558729342629   dF: -1.667e-08   |Residual|: 8.537e-06   |deigs|: 3.722e-06  t[s]:     36.39
	FillingsUpdate:  mu: -0.122908773  nElectrons: 9.000000
SCF: Cycle: 91   F: -28.343558742055411   dF: -1.271e-08   |Residual|: 8.529e-06   |deigs|: 2.044e-06  t[s]:     36.74
	FillingsUpdate:  mu: -0.122908918  nElectrons: 9.000000
SCF: Cycle: 92   F: -28.343558754213444   dF: -1.216e-08   |Residual|: 7.810e-06   |deigs|: 2.232e-06  t[s]:     37.10
	FillingsUpdate:  mu: -0.122911315  nElectrons: 9.000000
SCF: Cycle: 93   F: -28.343558766626039   dF: -1.241e-08   |Residual|: 4.765e-06   |deigs|: 9.083e-06  t[s]:     37.46
	FillingsUpdate:  mu: -0.122911348  nElectrons: 9.000000
SCF: Cycle: 94   F: -28.343558776629635   dF: -1.000e-08   |Residual|: 4.541e-06   |deigs|: 3.524e-06  t[s]:     37.80
	FillingsUpdate:  mu: -0.122911352  nElectrons: 9.000000
SCF: Cycle: 95   F: -28.343558787028616   dF: -1.040e-08   |Residual|: 6.303e-06   |deigs|: 2.285e-06  t[s]:     38.16
	FillingsUpdate:  mu: -0.122910206  nElectrons: 9.000000
SCF: Cycle: 96   F: -28.343558793443869   dF: -6.415e-09   |Residual|: 5.660e-06   |deigs|: 3.573e-06  t[s]:     38.51
	FillingsUpdate:  mu: -0.122909576  nElectrons: 9.000000
SCF: Cycle: 97   F: -28.343558800693348   dF: -7.249e-09   |Residual|: 6.132e-06   |deigs|: 1.911e-06  t[s]:     38.88
SCF: Converged (|Delta E|<1.000000e-08 for 2 iters).


# Ionic positions in lattice coordinates:
ion K   0.000000000000000   0.000000000000000   0.000000000000000 0

# Forces in Lattice coordinates:
force K   0.000000000000000   0.000000000000000   0.000000000000000 0

# Energy components:
   Eewald =      -30.3328169753490151
       EH =       -8.0535958752084298
     Eloc =        7.0810555164968223
      Enl =       -2.7843289714217558
   Epulay =       -0.0000000176308656
      Exc =       -4.3489249994220112
       KE =       10.1065195103205667
-------------------------------------
     Etot =      -28.3320918122146921
       TS =        0.0114669884786572
-------------------------------------
        F =      -28.3435588006933479

IonicMinimize: Iter:   0  F: -28.343558800693348  |grad|_K:  0.000e+00  t[s]:     38.90
IonicMinimize: Converged (|grad|_K<1.000000e-04).

#--- Lowdin population analysis ---
# oxidation-state K +0.323

End date and time: Sun Jan 16 14:50:43 2022  (Duration: 0-0:00:38.91)
Done!
