1.1
--------------------------------------------------------------------------
The library attempted to open the following supporting CUDA libraries,
but each of them failed.  CUDA-aware support is disabled.
libcuda.so.1: cannot open shared object file: No such file or directory
libcuda.dylib: cannot open shared object file: No such file or directory
/usr/lib64/libcuda.so.1: cannot open shared object file: No such file or directory
/usr/lib64/libcuda.dylib: cannot open shared object file: No such file or directory
If you are not interested in CUDA-aware support, then run with
--mca opal_warn_on_missing_libcuda 0 to suppress this message.  If you are interested
in CUDA-aware support, then try setting LD_LIBRARY_PATH to the location
of libcuda.so.1 to get passed this issue.
--------------------------------------------------------------------------
--------------------------------------------------------------------------
No OpenFabrics connection schemes reported that they were able to be
used on a specific port.  As such, the openib BTL (OpenFabrics
support) will be disabled for this port.

  Local host:           d-16-11-3
  Local device:         mlx5_1
  Local port:           1
  CPCs attempted:       rdmacm, udcm
--------------------------------------------------------------------------

*************** JDFTx 1.6.0 (git hash 42ebbcc2) ***************

Start date and time: Sun Jan 16 14:50:04 2022
Executable jdftx with command-line: -i Potassium.in
Running on hosts (process indices):  d-16-11-3 (0-18)
Divided in process groups (process indices):  0 (0)  1 (1)  2 (2)  3 (3)  4 (4)  5 (5)  6 (6)  7 (7)  8 (8)  9 (9)  10 (10)  11 (11)  12 (12)  13 (13)  14 (14)  15 (15)  16 (16)  17 (17)  18 (18)
Resource initialization completed at t[s]:      0.00
Run totals: 19 processes, 48 threads, 0 GPUs


Input parsed successfully to the following command list (including defaults):

basis kpoint-dependent
coords-type Lattice
core-overlap-check vector
coulomb-interaction Slab 001
davidson-band-ratio 1.1
dump End None
dump-name $INPUT.$VAR
elec-cutoff 20
elec-eigen-algo Davidson
elec-ex-corr gga-PBE
elec-smearing Fermi 0.01
electronic-minimize  \
	dirUpdateScheme      FletcherReeves \
	linminMethod         DirUpdateRecommended \
	nIterations          100 \
	history              15 \
	knormThreshold       0 \
	energyDiffThreshold  1e-08 \
	nEnergyDiff          2 \
	alphaTstart          1 \
	alphaTmin            1e-10 \
	updateTestStepSize   yes \
	alphaTreduceFactor   0.1 \
	alphaTincreaseFactor 3 \
	nAlphaAdjustMax      3 \
	wolfeEnergy          0.0001 \
	wolfeGradient        0.9 \
	fdTest               no
electronic-scf  \
	nIterations	10000 \
	energyDiffThreshold	1e-08 \
	residualThreshold	1e-07 \
	mixFraction	0.5 \
	qMetric	0.8 \
	history	10 \
	nEigSteps	2 \
	eigDiffThreshold	1e-08 \
	mixedVariable	Density \
	qKerker	0.8 \
	qKappa	-1 \
	verbose	no \
	mixFractionMag	1.5
exchange-regularization WignerSeitzTruncated
fluid None
fluid-ex-corr (null) lda-PZ
fluid-gummel-loop 10 1.000000e-05
fluid-minimize  \
	dirUpdateScheme      PolakRibiere \
	linminMethod         DirUpdateRecommended \
	nIterations          100 \
	history              15 \
	knormThreshold       0 \
	energyDiffThreshold  0 \
	nEnergyDiff          2 \
	alphaTstart          1 \
	alphaTmin            1e-10 \
	updateTestStepSize   yes \
	alphaTreduceFactor   0.1 \
	alphaTincreaseFactor 3 \
	nAlphaAdjustMax      3 \
	wolfeEnergy          0.0001 \
	wolfeGradient        0.9 \
	fdTest               no
fluid-solvent H2O 55.338 ScalarEOS \
	epsBulk 78.4 \
	pMol 0.92466 \
	epsInf 1.77 \
	Pvap 1.06736e-10 \
	sigmaBulk 4.62e-05 \
	Rvdw 2.61727 \
	Res 1.42 \
	tauNuc 343133 \
	poleEl 15 7 1
forces-output-coords Positions
ion K   0.000000000000000   0.000000000000000   0.000000000000000 0
ion-species SG15/$ID_ONCV_PBE.upf
ion-width 0
ionic-minimize  \
	dirUpdateScheme      L-BFGS \
	linminMethod         DirUpdateRecommended \
	nIterations          0 \
	history              15 \
	knormThreshold       0.0001 \
	energyDiffThreshold  1e-06 \
	nEnergyDiff          2 \
	alphaTstart          1 \
	alphaTmin            1e-10 \
	updateTestStepSize   yes \
	alphaTreduceFactor   0.1 \
	alphaTincreaseFactor 3 \
	nAlphaAdjustMax      3 \
	wolfeEnergy          0.0001 \
	wolfeGradient        0.9 \
	fdTest               no
kpoint   0.000000000000   0.000000000000   0.000000000000  1.00000000000000
kpoint-folding 12 12 1 
latt-move-scale 1 1 1
latt-scale 1.1 1.1 1 
lattice  \
	   4.727486978767153   -2.363743489383575    0.000000000000000  \
	  -0.000000000000000    4.094123819672498    0.000000000000000  \
	   0.000000000000000    0.000000000000000   40.000000000000000 
lattice-minimize  \
	dirUpdateScheme      L-BFGS \
	linminMethod         DirUpdateRecommended \
	nIterations          0 \
	history              15 \
	knormThreshold       0 \
	energyDiffThreshold  1e-06 \
	nEnergyDiff          2 \
	alphaTstart          1 \
	alphaTmin            1e-10 \
	updateTestStepSize   yes \
	alphaTreduceFactor   0.1 \
	alphaTincreaseFactor 3 \
	nAlphaAdjustMax      3 \
	wolfeEnergy          0.0001 \
	wolfeGradient        0.9 \
	fdTest               no
lcao-params -1 1e-06 0.01
pcm-variant GLSSA13
spintype no-spin
subspace-rotation-factor 1 yes
symmetries automatic
symmetry-threshold 0.0001



---------- Setting up symmetries ----------

Found 24 point-group symmetries of the bravais lattice
Found 24 space-group symmetries with basis
Applied RMS atom displacement 0 bohrs to make symmetries exact.

---------- Initializing the Grid ----------
R = 
[      5.20024     -2.60012            0  ]
[            0      4.50354            0  ]
[            0            0           40  ]
unit cell volume = 936.778
G =
[    1.20825   0.697584         -0  ]
[          0    1.39517         -0  ]
[         -0         -0    0.15708  ]
Minimum fftbox size, Smin = [  24  24  164  ]
Chosen fftbox size, S = [  24  24  168  ]

---------- Exchange Correlation functional ----------
Initalized PBE GGA exchange.
Initalized PBE GGA correlation.

---------- Setting up pseudopotentials ----------
Width of ionic core gaussian charges (only for fluid interactions / plotting) set to 0

Reading pseudopotential file '/home/gridsan/aligho/DFT/build-Nov24/pseudopotentials/SG15/K_ONCV_PBE.upf':
  'K' pseudopotential, 'PBE' functional
  Generated using ONCVPSP code by D. R. Hamann
  Author: Martin Schlipf and Francois Gygi  Date: 150915.
  9 valence electrons, 3 orbitals, 6 projectors, 2222 radial grid points, with lMax = 2
  Transforming local potential to a uniform radial grid of dG=0.02 with 1598 points.
  Transforming nonlocal projectors to a uniform radial grid of dG=0.02 with 432 points.
    3S    l: 0   occupation:  2.0   eigenvalue: -1.298836
    3P    l: 1   occupation:  6.0   eigenvalue: -0.691386
    4S    l: 0   occupation:  1.0   eigenvalue: -0.085223
  Transforming atomic orbitals to a uniform radial grid of dG=0.02 with 432 points.
  Core radius for overlap checks: 2.06 bohrs.
  Reading pulay file /home/gridsan/aligho/DFT/build-Nov24/pseudopotentials/SG15/K_ONCV_PBE.pulay ... using dE_dnG = -1.597219e-05 computed for Ecut = 20.

Initialized 1 species with 1 total atoms.

Folded 1 k-points by 12x12x1 to 144 k-points.

---------- Setting up k-points, bands, fillings ----------
Reduced to 19 k-points under symmetry. 
Computing the number of bands and number of electrons
Calculating initial fillings.
nElectrons:   9.000000   nBands: 6   nStates: 19

----- Setting up reduced wavefunction bases (one per k-point) -----
average nbasis = 4001.104 , ideal nbasis = 4001.987

---------- Setting up coulomb interaction ----------
Initialized slab truncation along lattice direction 001

---------- Setting up 2D ewald sum ----------
Optimum gaussian width for ewald sums = 2.886961 bohr.
Real space sums over 289 unit cells with max indices [  8  8  0  ]
Reciprocal space sums over 81 terms with max indices [  4  4  0  ]

---------- Allocating electronic variables ----------
Initializing wave functions:  linear combination of atomic orbitals
Note: number of bands (6) exceeds available atomic orbitals (5)
K pseudo-atom occupations:   s ( 2 1 )  p ( 6 )
	FillingsUpdate:  mu: -0.131897026  nElectrons: 9.000000
LCAOMinimize: Iter:   0  F: -28.2678709403163779  |grad|_K:  2.731e-04  alpha:  1.000e+00
	FillingsUpdate:  mu: -0.131362402  nElectrons: 9.000000
LCAOMinimize: Iter:   1  F: -28.2678944139938224  |grad|_K:  1.483e-05  alpha:  9.280e-01  linmin: -5.138e-02  cgtest:  1.051e+00  t[s]:      1.29
LCAOMinimize: Encountered beta<0, resetting CG.
	FillingsUpdate:  mu: -0.131338268  nElectrons: 9.000000
LCAOMinimize: Iter:   2  F: -28.2678944884224350  |grad|_K:  1.447e-07  alpha:  9.892e-01  linmin: -3.052e-02  cgtest:  4.200e-01  t[s]:      1.56
LCAOMinimize: Encountered beta<0, resetting CG.
	FillingsUpdate:  mu: -0.131338354  nElectrons: 9.000000
LCAOMinimize: Iter:   3  F: -28.2678944884277676  |grad|_K:  4.625e-08  alpha:  1.280e+00  linmin:  1.403e-01  cgtest: -9.965e-01  t[s]:      1.83
LCAOMinimize: Converged (|Delta F|<1.000000e-06 for 2 iters).


---- Citations for features of the code used in this run ----

   Software package:
      R. Sundararaman, K. Letchworth-Weaver, K.A. Schwarz, D. Gunceler, Y. Ozhabes and T.A. Arias, 'JDFTx: software for joint density-functional theory', SoftwareX 6, 278 (2017)

   gga-PBE exchange-correlation functional:
      J.P. Perdew, K. Burke and M. Ernzerhof, Phys. Rev. Lett. 77, 3865 (1996)

   Pseudopotentials:
      M Schlipf and F Gygi, Comput. Phys. Commun. 196, 36 (2015)

   Truncated Coulomb potentials:
      R. Sundararaman and T.A. Arias, Phys. Rev. B 87, 165122 (2013)

This list may not be complete. Please suggest additional citations or
report any other bugs at https://github.com/shankar1729/jdftx/issues

Initialization completed successfully at t[s]:      1.87


-------- Electronic minimization -----------
Will mix electronic density at each iteration.
	FillingsUpdate:  mu: -0.131338354  nElectrons: 9.000000
	FillingsUpdate:  mu: -0.197231581  nElectrons: 9.000000
SCF: Cycle:  0   F: -28.283502817685985   dF: -1.561e-02   |Residual|: 6.362e-02   |deigs|: 2.255e-01  t[s]:      2.38
	FillingsUpdate:  mu: -0.201421564  nElectrons: 9.000000
SCF: Cycle:  1   F: -28.291900583839180   dF: -8.398e-03   |Residual|: 4.488e-02   |deigs|: 1.170e-02  t[s]:      2.74
	FillingsUpdate:  mu: -0.173689316  nElectrons: 9.000000
SCF: Cycle:  2   F: -28.304909233091433   dF: -1.301e-02   |Residual|: 1.445e-02   |deigs|: 3.432e-02  t[s]:      3.11
	FillingsUpdate:  mu: -0.175919200  nElectrons: 9.000000
SCF: Cycle:  3   F: -28.305592521748483   dF: -6.833e-04   |Residual|: 9.845e-03   |deigs|: 2.683e-03  t[s]:      3.48
	FillingsUpdate:  mu: -0.158369232  nElectrons: 9.000000
SCF: Cycle:  4   F: -28.307940491696030   dF: -2.348e-03   |Residual|: 7.500e-03   |deigs|: 2.244e-02  t[s]:      3.85
	FillingsUpdate:  mu: -0.150859770  nElectrons: 9.000000
SCF: Cycle:  5   F: -28.308572007729087   dF: -6.315e-04   |Residual|: 1.096e-02   |deigs|: 7.306e-03  t[s]:      4.24
	FillingsUpdate:  mu: -0.154338034  nElectrons: 9.000000
SCF: Cycle:  6   F: -28.308985542817506   dF: -4.135e-04   |Residual|: 4.649e-03   |deigs|: 4.052e-03  t[s]:      4.62
[d-16-11-3:44606] 18 more processes have sent help message help-mpi-common-cuda.txt / dlopen failed
[d-16-11-3:44606] Set MCA parameter "orte_base_help_aggregate" to 0 to see all help / error messages
[d-16-11-3:44606] 18 more processes have sent help message help-mpi-btl-openib-cpc-base.txt / no cpcs for port
	FillingsUpdate:  mu: -0.149566257  nElectrons: 9.000000
SCF: Cycle:  7   F: -28.309653984022233   dF: -6.684e-04   |Residual|: 3.632e-03   |deigs|: 7.052e-03  t[s]:      5.00
	FillingsUpdate:  mu: -0.148576920  nElectrons: 9.000000
SCF: Cycle:  8   F: -28.310182659240716   dF: -5.287e-04   |Residual|: 2.272e-03   |deigs|: 2.097e-03  t[s]:      5.39
	FillingsUpdate:  mu: -0.146363117  nElectrons: 9.000000
SCF: Cycle:  9   F: -28.310304599459446   dF: -1.219e-04   |Residual|: 4.281e-03   |deigs|: 1.794e-03  t[s]:      5.79
	FillingsUpdate:  mu: -0.151649922  nElectrons: 9.000000
SCF: Cycle: 10   F: -28.310315994768040   dF: -1.140e-05   |Residual|: 6.788e-03   |deigs|: 6.112e-03  t[s]:      6.19
	FillingsUpdate:  mu: -0.141603060  nElectrons: 9.000000
SCF: Cycle: 11   F: -28.310881187841435   dF: -5.652e-04   |Residual|: 2.893e-03   |deigs|: 1.149e-02  t[s]:      6.58
	FillingsUpdate:  mu: -0.128417680  nElectrons: 9.000000
SCF: Cycle: 12   F: -28.311154382099076   dF: -2.732e-04   |Residual|: 3.482e-03   |deigs|: 1.478e-02  t[s]:      6.98
	FillingsUpdate:  mu: -0.131882564  nElectrons: 9.000000
SCF: Cycle: 13   F: -28.311332894608128   dF: -1.785e-04   |Residual|: 3.856e-03   |deigs|: 6.328e-03  t[s]:      7.37
	FillingsUpdate:  mu: -0.129750282  nElectrons: 9.000000
SCF: Cycle: 14   F: -28.311617423156100   dF: -2.845e-04   |Residual|: 3.241e-03   |deigs|: 5.731e-03  t[s]:      7.77
	FillingsUpdate:  mu: -0.124428669  nElectrons: 9.000000
SCF: Cycle: 15   F: -28.312111176507738   dF: -4.938e-04   |Residual|: 2.961e-03   |deigs|: 7.147e-03  t[s]:      8.16
	FillingsUpdate:  mu: -0.126493369  nElectrons: 9.000000
SCF: Cycle: 16   F: -28.312428404857268   dF: -3.172e-04   |Residual|: 1.878e-03   |deigs|: 3.737e-03  t[s]:      8.56
	FillingsUpdate:  mu: -0.127125820  nElectrons: 9.000000
SCF: Cycle: 17   F: -28.312758413250886   dF: -3.300e-04   |Residual|: 1.585e-03   |deigs|: 2.172e-03  t[s]:      8.95
	FillingsUpdate:  mu: -0.127915537  nElectrons: 9.000000
SCF: Cycle: 18   F: -28.313014258383848   dF: -2.558e-04   |Residual|: 2.245e-03   |deigs|: 1.983e-03  t[s]:      9.34
	FillingsUpdate:  mu: -0.127515470  nElectrons: 9.000000
SCF: Cycle: 19   F: -28.313192672643005   dF: -1.784e-04   |Residual|: 4.685e-03   |deigs|: 1.495e-03  t[s]:      9.73
	FillingsUpdate:  mu: -0.127872386  nElectrons: 9.000000
SCF: Cycle: 20   F: -28.313372959693282   dF: -1.803e-04   |Residual|: 4.718e-03   |deigs|: 1.145e-03  t[s]:     10.12
	FillingsUpdate:  mu: -0.128503275  nElectrons: 9.000000
SCF: Cycle: 21   F: -28.313523168789001   dF: -1.502e-04   |Residual|: 3.461e-03   |deigs|: 1.078e-03  t[s]:     10.51
	FillingsUpdate:  mu: -0.128264124  nElectrons: 9.000000
SCF: Cycle: 22   F: -28.313601912511515   dF: -7.874e-05   |Residual|: 5.734e-03   |deigs|: 8.446e-04  t[s]:     10.91
	FillingsUpdate:  mu: -0.129553780  nElectrons: 9.000000
SCF: Cycle: 23   F: -28.313690501886331   dF: -8.859e-05   |Residual|: 2.000e-03   |deigs|: 1.841e-03  t[s]:     11.31
	FillingsUpdate:  mu: -0.130027431  nElectrons: 9.000000
SCF: Cycle: 24   F: -28.313739897287604   dF: -4.940e-05   |Residual|: 4.384e-04   |deigs|: 8.550e-04  t[s]:     11.70
	FillingsUpdate:  mu: -0.129863181  nElectrons: 9.000000
SCF: Cycle: 25   F: -28.313782504545760   dF: -4.261e-05   |Residual|: 3.433e-04   |deigs|: 7.615e-04  t[s]:     12.09
	FillingsUpdate:  mu: -0.129556449  nElectrons: 9.000000
SCF: Cycle: 26   F: -28.313821319322823   dF: -3.881e-05   |Residual|: 5.559e-04   |deigs|: 7.902e-04  t[s]:     12.48
	FillingsUpdate:  mu: -0.129140742  nElectrons: 9.000000
SCF: Cycle: 27   F: -28.313858448454724   dF: -3.713e-05   |Residual|: 4.690e-04   |deigs|: 7.984e-04  t[s]:     12.87
	FillingsUpdate:  mu: -0.129347268  nElectrons: 9.000000
SCF: Cycle: 28   F: -28.313895509882283   dF: -3.706e-05   |Residual|: 1.151e-04   |deigs|: 7.770e-04  t[s]:     13.23
	FillingsUpdate:  mu: -0.129370513  nElectrons: 9.000000
SCF: Cycle: 29   F: -28.313926331939264   dF: -3.082e-05   |Residual|: 3.998e-05   |deigs|: 1.653e-03  t[s]:     13.59
	FillingsUpdate:  mu: -0.129285512  nElectrons: 9.000000
SCF: Cycle: 30   F: -28.313954146590305   dF: -2.781e-05   |Residual|: 1.323e-04   |deigs|: 3.818e-04  t[s]:     13.97
	FillingsUpdate:  mu: -0.129321702  nElectrons: 9.000000
SCF: Cycle: 31   F: -28.313978077698568   dF: -2.393e-05   |Residual|: 6.464e-05   |deigs|: 3.076e-04  t[s]:     14.33
	FillingsUpdate:  mu: -0.129385886  nElectrons: 9.000000
SCF: Cycle: 32   F: -28.313998618076148   dF: -2.054e-05   |Residual|: 6.922e-05   |deigs|: 2.703e-04  t[s]:     14.69
	FillingsUpdate:  mu: -0.129473633  nElectrons: 9.000000
SCF: Cycle: 33   F: -28.314030970902785   dF: -3.235e-05   |Residual|: 1.282e-04   |deigs|: 8.748e-04  t[s]:     15.03
	FillingsUpdate:  mu: -0.129554135  nElectrons: 9.000000
SCF: Cycle: 34   F: -28.314055539178060   dF: -2.457e-05   |Residual|: 1.874e-04   |deigs|: 3.275e-04  t[s]:     15.38
	FillingsUpdate:  mu: -0.129548812  nElectrons: 9.000000
SCF: Cycle: 35   F: -28.314073433144376   dF: -1.789e-05   |Residual|: 2.587e-04   |deigs|: 1.882e-04  t[s]:     15.72
	FillingsUpdate:  mu: -0.129630082  nElectrons: 9.000000
SCF: Cycle: 36   F: -28.314091288375792   dF: -1.786e-05   |Residual|: 3.219e-04   |deigs|: 2.133e-04  t[s]:     16.05
	FillingsUpdate:  mu: -0.129719215  nElectrons: 9.000000
SCF: Cycle: 37   F: -28.314107991093351   dF: -1.670e-05   |Residual|: 3.779e-04   |deigs|: 2.154e-04  t[s]:     16.39
	FillingsUpdate:  mu: -0.129748676  nElectrons: 9.000000
SCF: Cycle: 38   F: -28.314124353284814   dF: -1.636e-05   |Residual|: 3.933e-04   |deigs|: 2.357e-04  t[s]:     16.74
	FillingsUpdate:  mu: -0.129801092  nElectrons: 9.000000
SCF: Cycle: 39   F: -28.314141145254798   dF: -1.679e-05   |Residual|: 3.856e-04   |deigs|: 2.744e-04  t[s]:     17.10
	FillingsUpdate:  mu: -0.129786103  nElectrons: 9.000000
SCF: Cycle: 40   F: -28.314159005757634   dF: -1.786e-05   |Residual|: 6.956e-04   |deigs|: 2.843e-04  t[s]:     17.46
	FillingsUpdate:  mu: -0.129836713  nElectrons: 9.000000
SCF: Cycle: 41   F: -28.314180237108459   dF: -2.123e-05   |Residual|: 7.279e-04   |deigs|: 3.579e-04  t[s]:     17.80
	FillingsUpdate:  mu: -0.129937109  nElectrons: 9.000000
SCF: Cycle: 42   F: -28.314199664738496   dF: -1.943e-05   |Residual|: 6.312e-04   |deigs|: 2.829e-04  t[s]:     18.15
	FillingsUpdate:  mu: -0.129799954  nElectrons: 9.000000
SCF: Cycle: 43   F: -28.314214741992640   dF: -1.508e-05   |Residual|: 1.089e-03   |deigs|: 2.902e-04  t[s]:     18.53
	FillingsUpdate:  mu: -0.129683303  nElectrons: 9.000000
SCF: Cycle: 44   F: -28.314230314752876   dF: -1.557e-05   |Residual|: 1.147e-03   |deigs|: 1.977e-04  t[s]:     18.87
	FillingsUpdate:  mu: -0.129898112  nElectrons: 9.000000
SCF: Cycle: 45   F: -28.314242021228882   dF: -1.171e-05   |Residual|: 1.117e-03   |deigs|: 2.317e-04  t[s]:     19.22
	FillingsUpdate:  mu: -0.130099331  nElectrons: 9.000000
SCF: Cycle: 46   F: -28.314256815755524   dF: -1.479e-05   |Residual|: 8.408e-04   |deigs|: 2.641e-04  t[s]:     19.60
	FillingsUpdate:  mu: -0.130359267  nElectrons: 9.000000
SCF: Cycle: 47   F: -28.314271321182382   dF: -1.451e-05   |Residual|: 3.880e-04   |deigs|: 3.354e-04  t[s]:     19.99
	FillingsUpdate:  mu: -0.130221844  nElectrons: 9.000000
SCF: Cycle: 48   F: -28.314282469386246   dF: -1.115e-05   |Residual|: 7.073e-04   |deigs|: 2.086e-04  t[s]:     20.36
	FillingsUpdate:  mu: -0.130103903  nElectrons: 9.000000
SCF: Cycle: 49   F: -28.314292800357400   dF: -1.033e-05   |Residual|: 1.003e-03   |deigs|: 2.171e-04  t[s]:     20.73
	FillingsUpdate:  mu: -0.130326896  nElectrons: 9.000000
SCF: Cycle: 50   F: -28.314304836447572   dF: -1.204e-05   |Residual|: 5.807e-04   |deigs|: 3.070e-04  t[s]:     21.11
	FillingsUpdate:  mu: -0.130282058  nElectrons: 9.000000
SCF: Cycle: 51   F: -28.314311763363445   dF: -6.927e-06   |Residual|: 1.056e-03   |deigs|: 2.232e-04  t[s]:     21.50
	FillingsUpdate:  mu: -0.130455876  nElectrons: 9.000000
SCF: Cycle: 52   F: -28.314321177419775   dF: -9.414e-06   |Residual|: 1.285e-04   |deigs|: 3.657e-04  t[s]:     21.89
	FillingsUpdate:  mu: -0.130406722  nElectrons: 9.000000
SCF: Cycle: 53   F: -28.314328411427962   dF: -7.234e-06   |Residual|: 3.291e-04   |deigs|: 1.353e-04  t[s]:     22.29
	FillingsUpdate:  mu: -0.130506352  nElectrons: 9.000000
SCF: Cycle: 54   F: -28.314333986637806   dF: -5.575e-06   |Residual|: 1.140e-04   |deigs|: 1.575e-04  t[s]:     22.66
	FillingsUpdate:  mu: -0.130489791  nElectrons: 9.000000
SCF: Cycle: 55   F: -28.314339739013565   dF: -5.752e-06   |Residual|: 1.023e-04   |deigs|: 1.438e-04  t[s]:     23.03
	FillingsUpdate:  mu: -0.130548924  nElectrons: 9.000000
SCF: Cycle: 56   F: -28.314344538349726   dF: -4.799e-06   |Residual|: 7.875e-05   |deigs|: 1.724e-04  t[s]:     23.40
	FillingsUpdate:  mu: -0.130581793  nElectrons: 9.000000
SCF: Cycle: 57   F: -28.314351741540751   dF: -7.203e-06   |Residual|: 1.119e-04   |deigs|: 1.593e-04  t[s]:     23.79
	FillingsUpdate:  mu: -0.130574603  nElectrons: 9.000000
SCF: Cycle: 58   F: -28.314357421501988   dF: -5.680e-06   |Residual|: 8.111e-05   |deigs|: 1.733e-04  t[s]:     24.16
	FillingsUpdate:  mu: -0.130562351  nElectrons: 9.000000
SCF: Cycle: 59   F: -28.314362068849803   dF: -4.647e-06   |Residual|: 6.200e-05   |deigs|: 1.782e-04  t[s]:     24.52
	FillingsUpdate:  mu: -0.130540847  nElectrons: 9.000000
SCF: Cycle: 60   F: -28.314366264564452   dF: -4.196e-06   |Residual|: 7.304e-05   |deigs|: 2.067e-04  t[s]:     24.89
	FillingsUpdate:  mu: -0.130571469  nElectrons: 9.000000
SCF: Cycle: 61   F: -28.314371016591910   dF: -4.752e-06   |Residual|: 8.778e-05   |deigs|: 2.869e-04  t[s]:     25.26
	FillingsUpdate:  mu: -0.130556973  nElectrons: 9.000000
SCF: Cycle: 62   F: -28.314378792094434   dF: -7.776e-06   |Residual|: 1.348e-04   |deigs|: 4.401e-04  t[s]:     25.62
	FillingsUpdate:  mu: -0.130567062  nElectrons: 9.000000
SCF: Cycle: 63   F: -28.314387847651638   dF: -9.056e-06   |Residual|: 1.128e-04   |deigs|: 3.524e-04  t[s]:     26.00
	FillingsUpdate:  mu: -0.130573953  nElectrons: 9.000000
SCF: Cycle: 64   F: -28.314396172587063   dF: -8.325e-06   |Residual|: 1.578e-04   |deigs|: 2.317e-04  t[s]:     26.36
	FillingsUpdate:  mu: -0.130601961  nElectrons: 9.000000
SCF: Cycle: 65   F: -28.314404572203717   dF: -8.400e-06   |Residual|: 1.039e-04   |deigs|: 2.007e-04  t[s]:     26.71
	FillingsUpdate:  mu: -0.130641136  nElectrons: 9.000000
SCF: Cycle: 66   F: -28.314416637702681   dF: -1.207e-05   |Residual|: 1.203e-04   |deigs|: 2.032e-04  t[s]:     27.07
	FillingsUpdate:  mu: -0.130673147  nElectrons: 9.000000
SCF: Cycle: 67   F: -28.314426930008473   dF: -1.029e-05   |Residual|: 1.305e-04   |deigs|: 1.675e-04  t[s]:     27.43
	FillingsUpdate:  mu: -0.130677045  nElectrons: 9.000000
SCF: Cycle: 68   F: -28.314435490752153   dF: -8.561e-06   |Residual|: 1.629e-04   |deigs|: 1.279e-04  t[s]:     27.80
	FillingsUpdate:  mu: -0.130702364  nElectrons: 9.000000
SCF: Cycle: 69   F: -28.314443922123584   dF: -8.431e-06   |Residual|: 2.050e-04   |deigs|: 1.246e-04  t[s]:     28.14
	FillingsUpdate:  mu: -0.130700291  nElectrons: 9.000000
SCF: Cycle: 70   F: -28.314452668035798   dF: -8.746e-06   |Residual|: 3.289e-04   |deigs|: 1.092e-04  t[s]:     28.49
	FillingsUpdate:  mu: -0.130713189  nElectrons: 9.000000
SCF: Cycle: 71   F: -28.314460375898264   dF: -7.708e-06   |Residual|: 3.434e-04   |deigs|: 9.484e-05  t[s]:     28.83
	FillingsUpdate:  mu: -0.130711738  nElectrons: 9.000000
SCF: Cycle: 72   F: -28.314467490061809   dF: -7.114e-06   |Residual|: 3.419e-04   |deigs|: 8.087e-05  t[s]:     29.17
	FillingsUpdate:  mu: -0.130735510  nElectrons: 9.000000
SCF: Cycle: 73   F: -28.314474583577454   dF: -7.094e-06   |Residual|: 3.729e-04   |deigs|: 8.022e-05  t[s]:     29.52
	FillingsUpdate:  mu: -0.130732712  nElectrons: 9.000000
SCF: Cycle: 74   F: -28.314483496168851   dF: -8.913e-06   |Residual|: 4.011e-04   |deigs|: 8.389e-05  t[s]:     29.89
	FillingsUpdate:  mu: -0.130765326  nElectrons: 9.000000
SCF: Cycle: 75   F: -28.314488899238739   dF: -5.403e-06   |Residual|: 3.372e-04   |deigs|: 8.248e-05  t[s]:     30.27
	FillingsUpdate:  mu: -0.130776222  nElectrons: 9.000000
SCF: Cycle: 76   F: -28.314492548635293   dF: -3.649e-06   |Residual|: 2.490e-04   |deigs|: 1.077e-04  t[s]:     30.64
	FillingsUpdate:  mu: -0.130797181  nElectrons: 9.000000
SCF: Cycle: 77   F: -28.314495422122587   dF: -2.873e-06   |Residual|: 2.760e-04   |deigs|: 7.304e-05  t[s]:     30.99
	FillingsUpdate:  mu: -0.130811297  nElectrons: 9.000000
SCF: Cycle: 78   F: -28.314497336194254   dF: -1.914e-06   |Residual|: 3.121e-04   |deigs|: 4.399e-05  t[s]:     31.36
	FillingsUpdate:  mu: -0.130804626  nElectrons: 9.000000
SCF: Cycle: 79   F: -28.314498651644243   dF: -1.315e-06   |Residual|: 2.324e-04   |deigs|: 8.363e-05  t[s]:     31.75
	FillingsUpdate:  mu: -0.130760037  nElectrons: 9.000000
SCF: Cycle: 80   F: -28.314500652823718   dF: -2.001e-06   |Residual|: 2.474e-04   |deigs|: 1.126e-04  t[s]:     32.14
	FillingsUpdate:  mu: -0.130689765  nElectrons: 9.000000
SCF: Cycle: 81   F: -28.314501490383730   dF: -8.376e-07   |Residual|: 3.392e-04   |deigs|: 1.360e-04  t[s]:     32.54
	FillingsUpdate:  mu: -0.130692359  nElectrons: 9.000000
SCF: Cycle: 82   F: -28.314502682308607   dF: -1.192e-06   |Residual|: 2.891e-04   |deigs|: 5.156e-05  t[s]:     32.93
	FillingsUpdate:  mu: -0.130704187  nElectrons: 9.000000
SCF: Cycle: 83   F: -28.314503293138195   dF: -6.108e-07   |Residual|: 2.879e-04   |deigs|: 7.333e-05  t[s]:     33.31
	FillingsUpdate:  mu: -0.130677816  nElectrons: 9.000000
SCF: Cycle: 84   F: -28.314503848258060   dF: -5.551e-07   |Residual|: 1.826e-04   |deigs|: 6.841e-05  t[s]:     33.69
	FillingsUpdate:  mu: -0.130711667  nElectrons: 9.000000
SCF: Cycle: 85   F: -28.314504631038485   dF: -7.828e-07   |Residual|: 1.564e-04   |deigs|: 1.294e-04  t[s]:     34.07
	FillingsUpdate:  mu: -0.130673341  nElectrons: 9.000000
SCF: Cycle: 86   F: -28.314504507362738   dF: +1.237e-07   |Residual|: 2.789e-04   |deigs|: 1.472e-04  t[s]:     34.48
	FillingsUpdate:  mu: -0.130680015  nElectrons: 9.000000
SCF: Cycle: 87   F: -28.314504433986038   dF: +7.338e-08   |Residual|: 2.483e-04   |deigs|: 1.107e-04  t[s]:     34.88
	FillingsUpdate:  mu: -0.130718212  nElectrons: 9.000000
SCF: Cycle: 88   F: -28.314504774187530   dF: -3.402e-07   |Residual|: 2.428e-04   |deigs|: 1.200e-04  t[s]:     35.27
	FillingsUpdate:  mu: -0.130689427  nElectrons: 9.000000
SCF: Cycle: 89   F: -28.314503774985550   dF: +9.992e-07   |Residual|: 3.513e-04   |deigs|: 1.512e-04  t[s]:     35.65
	FillingsUpdate:  mu: -0.130649114  nElectrons: 9.000000
SCF: Cycle: 90   F: -28.314503975569004   dF: -2.006e-07   |Residual|: 3.019e-04   |deigs|: 8.904e-05  t[s]:     36.04
	FillingsUpdate:  mu: -0.130685537  nElectrons: 9.000000
SCF: Cycle: 91   F: -28.314502949987318   dF: +1.026e-06   |Residual|: 3.698e-04   |deigs|: 1.397e-04  t[s]:     36.43
	FillingsUpdate:  mu: -0.130605093  nElectrons: 9.000000
SCF: Cycle: 92   F: -28.314503419263442   dF: -4.693e-07   |Residual|: 2.214e-04   |deigs|: 1.413e-04  t[s]:     36.78
	FillingsUpdate:  mu: -0.130648146  nElectrons: 9.000000
SCF: Cycle: 93   F: -28.314503735099692   dF: -3.158e-07   |Residual|: 1.856e-04   |deigs|: 7.299e-05  t[s]:     37.15
	FillingsUpdate:  mu: -0.130603845  nElectrons: 9.000000
SCF: Cycle: 94   F: -28.314504541599273   dF: -8.065e-07   |Residual|: 1.468e-04   |deigs|: 9.889e-05  t[s]:     37.53
	FillingsUpdate:  mu: -0.130613175  nElectrons: 9.000000
SCF: Cycle: 95   F: -28.314504802713248   dF: -2.611e-07   |Residual|: 1.167e-04   |deigs|: 6.285e-05  t[s]:     37.92
	FillingsUpdate:  mu: -0.130638145  nElectrons: 9.000000
SCF: Cycle: 96   F: -28.314504712997028   dF: +8.972e-08   |Residual|: 1.749e-04   |deigs|: 6.319e-05  t[s]:     38.31
	FillingsUpdate:  mu: -0.130630429  nElectrons: 9.000000
SCF: Cycle: 97   F: -28.314505042469435   dF: -3.295e-07   |Residual|: 1.918e-04   |deigs|: 1.288e-04  t[s]:     38.70
	FillingsUpdate:  mu: -0.130626940  nElectrons: 9.000000
SCF: Cycle: 98   F: -28.314505153549575   dF: -1.111e-07   |Residual|: 1.487e-04   |deigs|: 4.052e-05  t[s]:     39.09
	FillingsUpdate:  mu: -0.130606263  nElectrons: 9.000000
SCF: Cycle: 99   F: -28.314504819359950   dF: +3.342e-07   |Residual|: 1.448e-04   |deigs|: 6.304e-05  t[s]:     39.48
	FillingsUpdate:  mu: -0.130598456  nElectrons: 9.000000
SCF: Cycle: 100   F: -28.314504371592598   dF: +4.478e-07   |Residual|: 1.401e-04   |deigs|: 8.203e-05  t[s]:     39.86
	FillingsUpdate:  mu: -0.130641322  nElectrons: 9.000000
SCF: Cycle: 101   F: -28.314504448296034   dF: -7.670e-08   |Residual|: 1.671e-04   |deigs|: 1.100e-04  t[s]:     40.19
	FillingsUpdate:  mu: -0.130611557  nElectrons: 9.000000
SCF: Cycle: 102   F: -28.314504740285642   dF: -2.920e-07   |Residual|: 1.624e-04   |deigs|: 1.063e-04  t[s]:     40.58
	FillingsUpdate:  mu: -0.130568195  nElectrons: 9.000000
SCF: Cycle: 103   F: -28.314505062037732   dF: -3.218e-07   |Residual|: 1.458e-04   |deigs|: 9.464e-05  t[s]:     40.91
	FillingsUpdate:  mu: -0.130563177  nElectrons: 9.000000
SCF: Cycle: 104   F: -28.314504982401548   dF: +7.964e-08   |Residual|: 1.129e-04   |deigs|: 1.204e-04  t[s]:     41.23
	FillingsUpdate:  mu: -0.130587474  nElectrons: 9.000000
SCF: Cycle: 105   F: -28.314505136893001   dF: -1.545e-07   |Residual|: 1.714e-04   |deigs|: 1.098e-04  t[s]:     41.63
	FillingsUpdate:  mu: -0.130580428  nElectrons: 9.000000
SCF: Cycle: 106   F: -28.314505048974617   dF: +8.792e-08   |Residual|: 1.709e-04   |deigs|: 5.080e-05  t[s]:     42.00
	FillingsUpdate:  mu: -0.130618928  nElectrons: 9.000000
SCF: Cycle: 107   F: -28.314503696469536   dF: +1.353e-06   |Residual|: 3.403e-04   |deigs|: 1.306e-04  t[s]:     42.39
	FillingsUpdate:  mu: -0.130620703  nElectrons: 9.000000
SCF: Cycle: 108   F: -28.314503351130433   dF: +3.453e-07   |Residual|: 3.232e-04   |deigs|: 8.292e-05  t[s]:     42.71
	FillingsUpdate:  mu: -0.130628327  nElectrons: 9.000000
SCF: Cycle: 109   F: -28.314503240365159   dF: +1.108e-07   |Residual|: 3.605e-04   |deigs|: 9.548e-05  t[s]:     43.04
	FillingsUpdate:  mu: -0.130636792  nElectrons: 9.000000
SCF: Cycle: 110   F: -28.314503721431148   dF: -4.811e-07   |Residual|: 3.747e-04   |deigs|: 1.302e-04  t[s]:     43.43
	FillingsUpdate:  mu: -0.130638872  nElectrons: 9.000000
SCF: Cycle: 111   F: -28.314503916701959   dF: -1.953e-07   |Residual|: 3.375e-04   |deigs|: 1.609e-04  t[s]:     43.75
	FillingsUpdate:  mu: -0.130619320  nElectrons: 9.000000
SCF: Cycle: 112   F: -28.314503715946572   dF: +2.008e-07   |Residual|: 3.413e-04   |deigs|: 1.964e-04  t[s]:     44.13
	FillingsUpdate:  mu: -0.130619017  nElectrons: 9.000000
SCF: Cycle: 113   F: -28.314503634546430   dF: +8.140e-08   |Residual|: 3.654e-04   |deigs|: 7.892e-05  t[s]:     44.46
	FillingsUpdate:  mu: -0.130600699  nElectrons: 9.000000
SCF: Cycle: 114   F: -28.314504076074783   dF: -4.415e-07   |Residual|: 3.147e-04   |deigs|: 7.073e-05  t[s]:     44.81
	FillingsUpdate:  mu: -0.130619697  nElectrons: 9.000000
SCF: Cycle: 115   F: -28.314504030695609   dF: +4.538e-08   |Residual|: 3.431e-04   |deigs|: 8.526e-05  t[s]:     45.14
	FillingsUpdate:  mu: -0.130510851  nElectrons: 9.000000
SCF: Cycle: 116   F: -28.314500262247073   dF: +3.768e-06   |Residual|: 1.535e-04   |deigs|: 3.297e-04  t[s]:     45.53
	FillingsUpdate:  mu: -0.130579266  nElectrons: 9.000000
SCF: Cycle: 117   F: -28.314502847400910   dF: -2.585e-06   |Residual|: 3.133e-04   |deigs|: 3.290e-04  t[s]:     45.85
	FillingsUpdate:  mu: -0.130537253  nElectrons: 9.000000
SCF: Cycle: 118   F: -28.314504217650164   dF: -1.370e-06   |Residual|: 1.847e-04   |deigs|: 1.535e-04  t[s]:     46.18
	FillingsUpdate:  mu: -0.130618617  nElectrons: 9.000000
SCF: Cycle: 119   F: -28.314502505391584   dF: +1.712e-06   |Residual|: 3.524e-04   |deigs|: 1.692e-04  t[s]:     46.50
	FillingsUpdate:  mu: -0.130622396  nElectrons: 9.000000
SCF: Cycle: 120   F: -28.314503163705083   dF: -6.583e-07   |Residual|: 3.259e-04   |deigs|: 1.734e-04  t[s]:     46.82
	FillingsUpdate:  mu: -0.130551374  nElectrons: 9.000000
SCF: Cycle: 121   F: -28.314503109004210   dF: +5.470e-08   |Residual|: 2.389e-04   |deigs|: 1.355e-04  t[s]:     47.15
	FillingsUpdate:  mu: -0.130593129  nElectrons: 9.000000
SCF: Cycle: 122   F: -28.314502538497930   dF: +5.705e-07   |Residual|: 3.056e-04   |deigs|: 7.382e-05  t[s]:     47.52
	FillingsUpdate:  mu: -0.130684016  nElectrons: 9.000000
SCF: Cycle: 123   F: -28.314500806207381   dF: +1.732e-06   |Residual|: 4.966e-04   |deigs|: 1.874e-04  t[s]:     47.84
	FillingsUpdate:  mu: -0.130653552  nElectrons: 9.000000
SCF: Cycle: 124   F: -28.314504077331435   dF: -3.271e-06   |Residual|: 2.872e-04   |deigs|: 4.299e-04  t[s]:     48.17
	FillingsUpdate:  mu: -0.130688883  nElectrons: 9.000000
SCF: Cycle: 125   F: -28.314503002387720   dF: +1.075e-06   |Residual|: 3.970e-04   |deigs|: 1.190e-04  t[s]:     48.49
	FillingsUpdate:  mu: -0.130695948  nElectrons: 9.000000
SCF: Cycle: 126   F: -28.314502546487930   dF: +4.559e-07   |Residual|: 4.622e-04   |deigs|: 1.744e-04  t[s]:     48.81
	FillingsUpdate:  mu: -0.130794160  nElectrons: 9.000000
SCF: Cycle: 127   F: -28.314499411477808   dF: +3.135e-06   |Residual|: 6.161e-04   |deigs|: 2.073e-04  t[s]:     49.14
	FillingsUpdate:  mu: -0.130771279  nElectrons: 9.000000
SCF: Cycle: 128   F: -28.314500130127175   dF: -7.186e-07   |Residual|: 6.122e-04   |deigs|: 2.137e-04  t[s]:     49.46
	FillingsUpdate:  mu: -0.130662960  nElectrons: 9.000000
SCF: Cycle: 129   F: -28.314502718876074   dF: -2.589e-06   |Residual|: 4.195e-04   |deigs|: 1.926e-04  t[s]:     49.79
	FillingsUpdate:  mu: -0.130638459  nElectrons: 9.000000
SCF: Cycle: 130   F: -28.314502366157107   dF: +3.527e-07   |Residual|: 4.016e-04   |deigs|: 1.037e-04  t[s]:     50.12
	FillingsUpdate:  mu: -0.130663998  nElectrons: 9.000000
SCF: Cycle: 131   F: -28.314501489733203   dF: +8.764e-07   |Residual|: 4.370e-04   |deigs|: 2.175e-04  t[s]:     50.44
	FillingsUpdate:  mu: -0.130666643  nElectrons: 9.000000
SCF: Cycle: 132   F: -28.314501647258425   dF: -1.575e-07   |Residual|: 4.601e-04   |deigs|: 1.076e-04  t[s]:     50.77
	FillingsUpdate:  mu: -0.130587000  nElectrons: 9.000000
SCF: Cycle: 133   F: -28.314503643328102   dF: -1.996e-06   |Residual|: 3.114e-04   |deigs|: 1.787e-04  t[s]:     51.09
	FillingsUpdate:  mu: -0.130587878  nElectrons: 9.000000
SCF: Cycle: 134   F: -28.314505113417848   dF: -1.470e-06   |Residual|: 2.577e-04   |deigs|: 1.576e-04  t[s]:     51.42
	FillingsUpdate:  mu: -0.130687476  nElectrons: 9.000000
SCF: Cycle: 135   F: -28.314503306103816   dF: +1.807e-06   |Residual|: 4.447e-04   |deigs|: 1.603e-04  t[s]:     51.74
	FillingsUpdate:  mu: -0.130618021  nElectrons: 9.000000
SCF: Cycle: 136   F: -28.314505092258994   dF: -1.786e-06   |Residual|: 2.887e-04   |deigs|: 1.731e-04  t[s]:     52.06
	FillingsUpdate:  mu: -0.130630739  nElectrons: 9.000000
SCF: Cycle: 137   F: -28.314504913775647   dF: +1.785e-07   |Residual|: 3.077e-04   |deigs|: 8.052e-05  t[s]:     52.39
	FillingsUpdate:  mu: -0.130659730  nElectrons: 9.000000
SCF: Cycle: 138   F: -28.314504007446544   dF: +9.063e-07   |Residual|: 3.893e-04   |deigs|: 9.491e-05  t[s]:     52.71
	FillingsUpdate:  mu: -0.130566659  nElectrons: 9.000000
SCF: Cycle: 139   F: -28.314505795424424   dF: -1.788e-06   |Residual|: 1.291e-04   |deigs|: 2.305e-04  t[s]:     53.04
	FillingsUpdate:  mu: -0.130556643  nElectrons: 9.000000
SCF: Cycle: 140   F: -28.314505276539553   dF: +5.189e-07   |Residual|: 1.443e-04   |deigs|: 1.822e-04  t[s]:     53.36
	FillingsUpdate:  mu: -0.130599073  nElectrons: 9.000000
SCF: Cycle: 141   F: -28.314504714433301   dF: +5.621e-07   |Residual|: 2.532e-04   |deigs|: 1.229e-04  t[s]:     53.69
	FillingsUpdate:  mu: -0.130527429  nElectrons: 9.000000
SCF: Cycle: 142   F: -28.314505664148424   dF: -9.497e-07   |Residual|: 6.646e-05   |deigs|: 1.677e-04  t[s]:     54.02
	FillingsUpdate:  mu: -0.130527897  nElectrons: 9.000000
SCF: Cycle: 143   F: -28.314505872046286   dF: -2.079e-07   |Residual|: 3.946e-05   |deigs|: 5.743e-05  t[s]:     54.35
	FillingsUpdate:  mu: -0.130478646  nElectrons: 9.000000
SCF: Cycle: 144   F: -28.314505782809984   dF: +8.924e-08   |Residual|: 4.115e-05   |deigs|: 1.316e-04  t[s]:     54.67
	FillingsUpdate:  mu: -0.130485570  nElectrons: 9.000000
SCF: Cycle: 145   F: -28.314505613284744   dF: +1.695e-07   |Residual|: 9.879e-05   |deigs|: 1.550e-04  t[s]:     55.06
	FillingsUpdate:  mu: -0.130511631  nElectrons: 9.000000
SCF: Cycle: 146   F: -28.314505910865797   dF: -2.976e-07   |Residual|: 1.905e-05   |deigs|: 9.270e-05  t[s]:     55.39
	FillingsUpdate:  mu: -0.130461740  nElectrons: 9.000000
SCF: Cycle: 147   F: -28.314505530982434   dF: +3.799e-07   |Residual|: 1.246e-04   |deigs|: 1.251e-04  t[s]:     55.72
	FillingsUpdate:  mu: -0.130515716  nElectrons: 9.000000
SCF: Cycle: 148   F: -28.314505877989031   dF: -3.470e-07   |Residual|: 2.036e-05   |deigs|: 1.266e-04  t[s]:     56.05
	FillingsUpdate:  mu: -0.130519621  nElectrons: 9.000000
SCF: Cycle: 149   F: -28.314505903257935   dF: -2.527e-08   |Residual|: 3.617e-05   |deigs|: 4.814e-05  t[s]:     56.37
	FillingsUpdate:  mu: -0.130512419  nElectrons: 9.000000
SCF: Cycle: 150   F: -28.314505923574551   dF: -2.032e-08   |Residual|: 2.046e-05   |deigs|: 4.562e-05  t[s]:     56.70
	FillingsUpdate:  mu: -0.130515091  nElectrons: 9.000000
SCF: Cycle: 151   F: -28.314505771570314   dF: +1.520e-07   |Residual|: 1.236e-05   |deigs|: 7.103e-05  t[s]:     57.10
	FillingsUpdate:  mu: -0.130507199  nElectrons: 9.000000
SCF: Cycle: 152   F: -28.314505707968166   dF: +6.360e-08   |Residual|: 1.680e-05   |deigs|: 4.176e-05  t[s]:     57.42
	FillingsUpdate:  mu: -0.130531049  nElectrons: 9.000000
SCF: Cycle: 153   F: -28.314505775711318   dF: -6.774e-08   |Residual|: 2.003e-05   |deigs|: 1.302e-04  t[s]:     57.75
	FillingsUpdate:  mu: -0.130523411  nElectrons: 9.000000
SCF: Cycle: 154   F: -28.314505737257406   dF: +3.845e-08   |Residual|: 2.237e-05   |deigs|: 1.450e-04  t[s]:     58.14
	FillingsUpdate:  mu: -0.130492928  nElectrons: 9.000000
SCF: Cycle: 155   F: -28.314505771739331   dF: -3.448e-08   |Residual|: 6.236e-05   |deigs|: 8.090e-05  t[s]:     58.53
	FillingsUpdate:  mu: -0.130490646  nElectrons: 9.000000
SCF: Cycle: 156   F: -28.314505830077945   dF: -5.834e-08   |Residual|: 4.665e-05   |deigs|: 6.747e-05  t[s]:     58.91
	FillingsUpdate:  mu: -0.130529584  nElectrons: 9.000000
SCF: Cycle: 157   F: -28.314505899851770   dF: -6.977e-08   |Residual|: 2.518e-05   |deigs|: 8.974e-05  t[s]:     59.23
	FillingsUpdate:  mu: -0.130522657  nElectrons: 9.000000
SCF: Cycle: 158   F: -28.314505824234139   dF: +7.562e-08   |Residual|: 6.190e-06   |deigs|: 2.724e-04  t[s]:     59.62
	FillingsUpdate:  mu: -0.130528941  nElectrons: 9.000000
SCF: Cycle: 159   F: -28.314506051604035   dF: -2.274e-07   |Residual|: 2.056e-05   |deigs|: 2.587e-04  t[s]:     60.00
	FillingsUpdate:  mu: -0.130520806  nElectrons: 9.000000
SCF: Cycle: 160   F: -28.314506161782109   dF: -1.102e-07   |Residual|: 1.888e-05   |deigs|: 1.242e-04  t[s]:     60.32
	FillingsUpdate:  mu: -0.130514098  nElectrons: 9.000000
SCF: Cycle: 161   F: -28.314506195375561   dF: -3.359e-08   |Residual|: 1.781e-05   |deigs|: 4.364e-05  t[s]:     60.65
	FillingsUpdate:  mu: -0.130511918  nElectrons: 9.000000
SCF: Cycle: 162   F: -28.314506123524691   dF: +7.185e-08   |Residual|: 1.710e-05   |deigs|: 7.739e-05  t[s]:     60.98
	FillingsUpdate:  mu: -0.130496652  nElectrons: 9.000000
SCF: Cycle: 163   F: -28.314506271738452   dF: -1.482e-07   |Residual|: 2.524e-05   |deigs|: 8.767e-05  t[s]:     61.30
	FillingsUpdate:  mu: -0.130504895  nElectrons: 9.000000
SCF: Cycle: 164   F: -28.314506180965648   dF: +9.077e-08   |Residual|: 4.302e-05   |deigs|: 7.078e-05  t[s]:     61.63
	FillingsUpdate:  mu: -0.130500154  nElectrons: 9.000000
SCF: Cycle: 165   F: -28.314506153874284   dF: +2.709e-08   |Residual|: 4.198e-05   |deigs|: 7.450e-05  t[s]:     61.96
	FillingsUpdate:  mu: -0.130481076  nElectrons: 9.000000
SCF: Cycle: 166   F: -28.314506009944864   dF: +1.439e-07   |Residual|: 6.267e-05   |deigs|: 9.240e-05  t[s]:     62.35
	FillingsUpdate:  mu: -0.130479194  nElectrons: 9.000000
SCF: Cycle: 167   F: -28.314506075231122   dF: -6.529e-08   |Residual|: 7.079e-05   |deigs|: 7.728e-05  t[s]:     62.68
	FillingsUpdate:  mu: -0.130478225  nElectrons: 9.000000
SCF: Cycle: 168   F: -28.314506028996934   dF: +4.623e-08   |Residual|: 9.191e-05   |deigs|: 1.496e-04  t[s]:     63.06
	FillingsUpdate:  mu: -0.130468167  nElectrons: 9.000000
SCF: Cycle: 169   F: -28.314505875247072   dF: +1.537e-07   |Residual|: 1.042e-04   |deigs|: 4.396e-05  t[s]:     63.44
	FillingsUpdate:  mu: -0.130486776  nElectrons: 9.000000
SCF: Cycle: 170   F: -28.314506147696854   dF: -2.724e-07   |Residual|: 6.525e-05   |deigs|: 6.186e-05  t[s]:     63.78
	FillingsUpdate:  mu: -0.130514694  nElectrons: 9.000000
SCF: Cycle: 171   F: -28.314506190846149   dF: -4.315e-08   |Residual|: 3.325e-05   |deigs|: 1.231e-04  t[s]:     64.10
	FillingsUpdate:  mu: -0.130516907  nElectrons: 9.000000
SCF: Cycle: 172   F: -28.314506313423593   dF: -1.226e-07   |Residual|: 3.581e-05   |deigs|: 6.840e-05  t[s]:     64.43
	FillingsUpdate:  mu: -0.130482943  nElectrons: 9.000000
SCF: Cycle: 173   F: -28.314506130342405   dF: +1.831e-07   |Residual|: 9.611e-05   |deigs|: 7.396e-05  t[s]:     64.77
	FillingsUpdate:  mu: -0.130469440  nElectrons: 9.000000
SCF: Cycle: 174   F: -28.314506033414439   dF: +9.693e-08   |Residual|: 9.714e-05   |deigs|: 5.635e-05  t[s]:     65.09
	FillingsUpdate:  mu: -0.130482721  nElectrons: 9.000000
SCF: Cycle: 175   F: -28.314505891631910   dF: +1.418e-07   |Residual|: 8.751e-05   |deigs|: 4.134e-05  t[s]:     65.42
	FillingsUpdate:  mu: -0.130491776  nElectrons: 9.000000
SCF: Cycle: 176   F: -28.314505869057125   dF: +2.257e-08   |Residual|: 9.220e-05   |deigs|: 6.274e-05  t[s]:     65.75
	FillingsUpdate:  mu: -0.130509778  nElectrons: 9.000000
SCF: Cycle: 177   F: -28.314506156927969   dF: -2.879e-07   |Residual|: 3.262e-05   |deigs|: 6.261e-05  t[s]:     66.08
	FillingsUpdate:  mu: -0.130526064  nElectrons: 9.000000
SCF: Cycle: 178   F: -28.314506129309066   dF: +2.762e-08   |Residual|: 6.404e-05   |deigs|: 1.162e-04  t[s]:     66.41
	FillingsUpdate:  mu: -0.130417468  nElectrons: 9.000000
SCF: Cycle: 179   F: -28.314505472118572   dF: +6.572e-07   |Residual|: 1.805e-04   |deigs|: 1.889e-04  t[s]:     66.79
	FillingsUpdate:  mu: -0.130463162  nElectrons: 9.000000
SCF: Cycle: 180   F: -28.314505953657200   dF: -4.815e-07   |Residual|: 1.054e-04   |deigs|: 9.620e-05  t[s]:     67.12
	FillingsUpdate:  mu: -0.130483545  nElectrons: 9.000000
SCF: Cycle: 181   F: -28.314505895902844   dF: +5.775e-08   |Residual|: 5.242e-05   |deigs|: 8.413e-05  t[s]:     67.45
	FillingsUpdate:  mu: -0.130493298  nElectrons: 9.000000
SCF: Cycle: 182   F: -28.314506077344600   dF: -1.814e-07   |Residual|: 7.259e-05   |deigs|: 1.157e-04  t[s]:     67.78
	FillingsUpdate:  mu: -0.130469824  nElectrons: 9.000000
SCF: Cycle: 183   F: -28.314505957371242   dF: +1.200e-07   |Residual|: 9.419e-05   |deigs|: 6.686e-05  t[s]:     68.11
	FillingsUpdate:  mu: -0.130567136  nElectrons: 9.000000
SCF: Cycle: 184   F: -28.314505942215924   dF: +1.516e-08   |Residual|: 1.510e-04   |deigs|: 2.334e-04  t[s]:     68.50
	FillingsUpdate:  mu: -0.130525676  nElectrons: 9.000000
SCF: Cycle: 185   F: -28.314506195610221   dF: -2.534e-07   |Residual|: 6.396e-05   |deigs|: 8.704e-05  t[s]:     68.89
	FillingsUpdate:  mu: -0.130524210  nElectrons: 9.000000
SCF: Cycle: 186   F: -28.314506004087693   dF: +1.915e-07   |Residual|: 9.105e-05   |deigs|: 7.668e-05  t[s]:     69.22
	FillingsUpdate:  mu: -0.130499935  nElectrons: 9.000000
SCF: Cycle: 187   F: -28.314506047093424   dF: -4.301e-08   |Residual|: 4.052e-05   |deigs|: 7.480e-05  t[s]:     69.55
	FillingsUpdate:  mu: -0.130507366  nElectrons: 9.000000
SCF: Cycle: 188   F: -28.314506099564618   dF: -5.247e-08   |Residual|: 4.503e-05   |deigs|: 4.985e-05  t[s]:     69.89
	FillingsUpdate:  mu: -0.130490833  nElectrons: 9.000000
SCF: Cycle: 189   F: -28.314505957443057   dF: +1.421e-07   |Residual|: 2.603e-05   |deigs|: 6.613e-05  t[s]:     70.22
	FillingsUpdate:  mu: -0.130479156  nElectrons: 9.000000
SCF: Cycle: 190   F: -28.314505853175589   dF: +1.043e-07   |Residual|: 4.881e-05   |deigs|: 2.559e-05  t[s]:     70.55
	FillingsUpdate:  mu: -0.130492506  nElectrons: 9.000000
SCF: Cycle: 191   F: -28.314505906209980   dF: -5.303e-08   |Residual|: 2.485e-05   |deigs|: 5.700e-05  t[s]:     70.88
	FillingsUpdate:  mu: -0.130514254  nElectrons: 9.000000
SCF: Cycle: 192   F: -28.314506227644163   dF: -3.214e-07   |Residual|: 2.009e-05   |deigs|: 6.337e-05  t[s]:     71.21
	FillingsUpdate:  mu: -0.130510847  nElectrons: 9.000000
SCF: Cycle: 193   F: -28.314506069250324   dF: +1.584e-07   |Residual|: 2.825e-05   |deigs|: 1.739e-04  t[s]:     71.54
	FillingsUpdate:  mu: -0.130526455  nElectrons: 9.000000
SCF: Cycle: 194   F: -28.314506127991280   dF: -5.874e-08   |Residual|: 4.083e-05   |deigs|: 5.402e-05  t[s]:     71.87
	FillingsUpdate:  mu: -0.130540075  nElectrons: 9.000000
SCF: Cycle: 195   F: -28.314506289117627   dF: -1.611e-07   |Residual|: 4.200e-05   |deigs|: 9.717e-05  t[s]:     72.19
	FillingsUpdate:  mu: -0.130527212  nElectrons: 9.000000
SCF: Cycle: 196   F: -28.314506238161933   dF: +5.096e-08   |Residual|: 2.577e-05   |deigs|: 1.438e-04  t[s]:     72.52
	FillingsUpdate:  mu: -0.130520017  nElectrons: 9.000000
SCF: Cycle: 197   F: -28.314506155220283   dF: +8.294e-08   |Residual|: 3.255e-05   |deigs|: 6.652e-05  t[s]:     72.85
	FillingsUpdate:  mu: -0.130539550  nElectrons: 9.000000
SCF: Cycle: 198   F: -28.314506261480560   dF: -1.063e-07   |Residual|: 4.421e-05   |deigs|: 7.025e-05  t[s]:     73.24
	FillingsUpdate:  mu: -0.130534939  nElectrons: 9.000000
SCF: Cycle: 199   F: -28.314506161494695   dF: +9.999e-08   |Residual|: 2.484e-05   |deigs|: 6.883e-05  t[s]:     73.57
	FillingsUpdate:  mu: -0.130526353  nElectrons: 9.000000
SCF: Cycle: 200   F: -28.314506245817860   dF: -8.432e-08   |Residual|: 3.198e-05   |deigs|: 8.000e-05  t[s]:     73.90
	FillingsUpdate:  mu: -0.130516788  nElectrons: 9.000000
SCF: Cycle: 201   F: -28.314506330949012   dF: -8.513e-08   |Residual|: 1.545e-05   |deigs|: 6.557e-05  t[s]:     74.22
	FillingsUpdate:  mu: -0.130520987  nElectrons: 9.000000
SCF: Cycle: 202   F: -28.314506296108711   dF: +3.484e-08   |Residual|: 1.867e-05   |deigs|: 7.404e-05  t[s]:     74.55
	FillingsUpdate:  mu: -0.130518850  nElectrons: 9.000000
SCF: Cycle: 203   F: -28.314506332467797   dF: -3.636e-08   |Residual|: 1.673e-05   |deigs|: 3.223e-05  t[s]:     74.88
	FillingsUpdate:  mu: -0.130527563  nElectrons: 9.000000
SCF: Cycle: 204   F: -28.314506365684441   dF: -3.322e-08   |Residual|: 1.737e-05   |deigs|: 6.236e-05  t[s]:     75.22
	FillingsUpdate:  mu: -0.130517050  nElectrons: 9.000000
SCF: Cycle: 205   F: -28.314506381762222   dF: -1.608e-08   |Residual|: 2.781e-05   |deigs|: 3.155e-05  t[s]:     75.55
	FillingsUpdate:  mu: -0.130489741  nElectrons: 9.000000
SCF: Cycle: 206   F: -28.314506395139851   dF: -1.338e-08   |Residual|: 6.714e-05   |deigs|: 6.962e-05  t[s]:     75.94
	FillingsUpdate:  mu: -0.130487585  nElectrons: 9.000000
SCF: Cycle: 207   F: -28.314506420130350   dF: -2.499e-08   |Residual|: 5.549e-05   |deigs|: 2.993e-05  t[s]:     76.32
	FillingsUpdate:  mu: -0.130498962  nElectrons: 9.000000
SCF: Cycle: 208   F: -28.314506456818393   dF: -3.669e-08   |Residual|: 3.120e-05   |deigs|: 6.427e-05  t[s]:     76.71
	FillingsUpdate:  mu: -0.130505895  nElectrons: 9.000000
SCF: Cycle: 209   F: -28.314506506008591   dF: -4.919e-08   |Residual|: 2.588e-05   |deigs|: 7.013e-05  t[s]:     77.03
	FillingsUpdate:  mu: -0.130510610  nElectrons: 9.000000
SCF: Cycle: 210   F: -28.314506493047592   dF: +1.296e-08   |Residual|: 2.736e-05   |deigs|: 4.431e-05  t[s]:     77.36
	FillingsUpdate:  mu: -0.130512406  nElectrons: 9.000000
SCF: Cycle: 211   F: -28.314506482612654   dF: +1.043e-08   |Residual|: 2.457e-05   |deigs|: 4.463e-05  t[s]:     77.69
	FillingsUpdate:  mu: -0.130526179  nElectrons: 9.000000
SCF: Cycle: 212   F: -28.314506453977984   dF: +2.863e-08   |Residual|: 2.590e-05   |deigs|: 4.419e-05  t[s]:     78.08
	FillingsUpdate:  mu: -0.130515346  nElectrons: 9.000000
SCF: Cycle: 213   F: -28.314506405278884   dF: +4.870e-08   |Residual|: 3.375e-05   |deigs|: 8.766e-05  t[s]:     78.48
	FillingsUpdate:  mu: -0.130549869  nElectrons: 9.000000
SCF: Cycle: 214   F: -28.314506288306962   dF: +1.170e-07   |Residual|: 9.400e-05   |deigs|: 1.047e-04  t[s]:     78.88
	FillingsUpdate:  mu: -0.130557964  nElectrons: 9.000000
SCF: Cycle: 215   F: -28.314506235141550   dF: +5.317e-08   |Residual|: 1.098e-04   |deigs|: 2.473e-05  t[s]:     79.22
	FillingsUpdate:  mu: -0.130560037  nElectrons: 9.000000
SCF: Cycle: 216   F: -28.314506229361417   dF: +5.780e-09   |Residual|: 1.027e-04   |deigs|: 6.642e-05  t[s]:     79.54
	FillingsUpdate:  mu: -0.130570405  nElectrons: 9.000000
SCF: Cycle: 217   F: -28.314506080929352   dF: +1.484e-07   |Residual|: 7.678e-05   |deigs|: 8.508e-05  t[s]:     79.93
	FillingsUpdate:  mu: -0.130561265  nElectrons: 9.000000
SCF: Cycle: 218   F: -28.314506167280033   dF: -8.635e-08   |Residual|: 9.718e-05   |deigs|: 7.516e-05  t[s]:     80.26
	FillingsUpdate:  mu: -0.130554813  nElectrons: 9.000000
SCF: Cycle: 219   F: -28.314506057111938   dF: +1.102e-07   |Residual|: 9.007e-05   |deigs|: 3.266e-05  t[s]:     80.60
	FillingsUpdate:  mu: -0.130564525  nElectrons: 9.000000
SCF: Cycle: 220   F: -28.314506110665331   dF: -5.355e-08   |Residual|: 1.124e-04   |deigs|: 3.837e-05  t[s]:     80.93
	FillingsUpdate:  mu: -0.130534742  nElectrons: 9.000000
SCF: Cycle: 221   F: -28.314506133087537   dF: -2.242e-08   |Residual|: 1.129e-04   |deigs|: 8.831e-05  t[s]:     81.32
	FillingsUpdate:  mu: -0.130559235  nElectrons: 9.000000
SCF: Cycle: 222   F: -28.314506041454166   dF: +9.163e-08   |Residual|: 1.293e-04   |deigs|: 9.267e-05  t[s]:     81.72
	FillingsUpdate:  mu: -0.130532506  nElectrons: 9.000000
SCF: Cycle: 223   F: -28.314506126029364   dF: -8.458e-08   |Residual|: 8.551e-05   |deigs|: 6.341e-05  t[s]:     82.04
	FillingsUpdate:  mu: -0.130518340  nElectrons: 9.000000
SCF: Cycle: 224   F: -28.314506147262026   dF: -2.123e-08   |Residual|: 1.054e-04   |deigs|: 1.176e-04  t[s]:     82.42
	FillingsUpdate:  mu: -0.130511611  nElectrons: 9.000000
SCF: Cycle: 225   F: -28.314506065245151   dF: +8.202e-08   |Residual|: 9.399e-05   |deigs|: 6.032e-05  t[s]:     82.81
	FillingsUpdate:  mu: -0.130504293  nElectrons: 9.000000
SCF: Cycle: 226   F: -28.314505980351683   dF: +8.489e-08   |Residual|: 9.510e-05   |deigs|: 1.604e-04  t[s]:     83.19
	FillingsUpdate:  mu: -0.130538599  nElectrons: 9.000000
SCF: Cycle: 227   F: -28.314505880248475   dF: +1.001e-07   |Residual|: 1.346e-04   |deigs|: 8.305e-05  t[s]:     83.52
	FillingsUpdate:  mu: -0.130515608  nElectrons: 9.000000
SCF: Cycle: 228   F: -28.314505990788277   dF: -1.105e-07   |Residual|: 9.807e-05   |deigs|: 9.983e-05  t[s]:     83.85
	FillingsUpdate:  mu: -0.130480643  nElectrons: 9.000000
SCF: Cycle: 229   F: -28.314506316509810   dF: -3.257e-07   |Residual|: 3.966e-05   |deigs|: 8.849e-05  t[s]:     84.18
	FillingsUpdate:  mu: -0.130485137  nElectrons: 9.000000
SCF: Cycle: 230   F: -28.314506333174599   dF: -1.666e-08   |Residual|: 4.942e-05   |deigs|: 4.356e-05  t[s]:     84.51
	FillingsUpdate:  mu: -0.130529777  nElectrons: 9.000000
SCF: Cycle: 231   F: -28.314506447211222   dF: -1.140e-07   |Residual|: 6.150e-05   |deigs|: 7.208e-05  t[s]:     84.84
	FillingsUpdate:  mu: -0.130533450  nElectrons: 9.000000
SCF: Cycle: 232   F: -28.314506421286282   dF: +2.592e-08   |Residual|: 7.315e-05   |deigs|: 2.228e-05  t[s]:     85.17
	FillingsUpdate:  mu: -0.130507891  nElectrons: 9.000000
SCF: Cycle: 233   F: -28.314506409494363   dF: +1.179e-08   |Residual|: 4.197e-05   |deigs|: 7.573e-05  t[s]:     85.50
	FillingsUpdate:  mu: -0.130463942  nElectrons: 9.000000
SCF: Cycle: 234   F: -28.314506459614275   dF: -5.012e-08   |Residual|: 3.197e-05   |deigs|: 8.276e-05  t[s]:     85.89
	FillingsUpdate:  mu: -0.130462668  nElectrons: 9.000000
SCF: Cycle: 235   F: -28.314506430410834   dF: +2.920e-08   |Residual|: 4.577e-05   |deigs|: 1.256e-04  t[s]:     86.29
	FillingsUpdate:  mu: -0.130471203  nElectrons: 9.000000
SCF: Cycle: 236   F: -28.314506460037116   dF: -2.963e-08   |Residual|: 1.831e-05   |deigs|: 5.849e-05  t[s]:     86.68
	FillingsUpdate:  mu: -0.130492434  nElectrons: 9.000000
SCF: Cycle: 237   F: -28.314506433355355   dF: +2.668e-08   |Residual|: 1.177e-05   |deigs|: 6.235e-05  t[s]:     87.01
	FillingsUpdate:  mu: -0.130492210  nElectrons: 9.000000
SCF: Cycle: 238   F: -28.314506458155289   dF: -2.480e-08   |Residual|: 1.813e-05   |deigs|: 6.480e-05  t[s]:     87.34
	FillingsUpdate:  mu: -0.130499486  nElectrons: 9.000000
SCF: Cycle: 239   F: -28.314506399475288   dF: +5.868e-08   |Residual|: 2.284e-05   |deigs|: 2.380e-05  t[s]:     87.68
	FillingsUpdate:  mu: -0.130486029  nElectrons: 9.000000
SCF: Cycle: 240   F: -28.314506340447945   dF: +5.903e-08   |Residual|: 4.191e-05   |deigs|: 4.912e-05  t[s]:     88.01
	FillingsUpdate:  mu: -0.130500129  nElectrons: 9.000000
SCF: Cycle: 241   F: -28.314506044334287   dF: +2.961e-07   |Residual|: 9.602e-05   |deigs|: 6.993e-05  t[s]:     88.34
	FillingsUpdate:  mu: -0.130474702  nElectrons: 9.000000
SCF: Cycle: 242   F: -28.314506159809248   dF: -1.155e-07   |Residual|: 2.328e-05   |deigs|: 5.804e-05  t[s]:     88.68
	FillingsUpdate:  mu: -0.130500157  nElectrons: 9.000000
SCF: Cycle: 243   F: -28.314506304850710   dF: -1.450e-07   |Residual|: 3.218e-05   |deigs|: 7.046e-05  t[s]:     89.00
	FillingsUpdate:  mu: -0.130504060  nElectrons: 9.000000
SCF: Cycle: 244   F: -28.314506388137840   dF: -8.329e-08   |Residual|: 4.833e-05   |deigs|: 6.600e-05  t[s]:     89.33
	FillingsUpdate:  mu: -0.130502152  nElectrons: 9.000000
SCF: Cycle: 245   F: -28.314506429541840   dF: -4.140e-08   |Residual|: 2.976e-05   |deigs|: 4.654e-05  t[s]:     89.66
	FillingsUpdate:  mu: -0.130493877  nElectrons: 9.000000
SCF: Cycle: 246   F: -28.314506459240807   dF: -2.970e-08   |Residual|: 1.399e-05   |deigs|: 1.324e-04  t[s]:     90.04
	FillingsUpdate:  mu: -0.130498170  nElectrons: 9.000000
SCF: Cycle: 247   F: -28.314506480442560   dF: -2.120e-08   |Residual|: 1.263e-05   |deigs|: 8.117e-05  t[s]:     90.43
	FillingsUpdate:  mu: -0.130496242  nElectrons: 9.000000
SCF: Cycle: 248   F: -28.314506441176242   dF: +3.927e-08   |Residual|: 1.121e-05   |deigs|: 3.086e-05  t[s]:     90.83
	FillingsUpdate:  mu: -0.130496958  nElectrons: 9.000000
SCF: Cycle: 249   F: -28.314506476420053   dF: -3.524e-08   |Residual|: 1.662e-05   |deigs|: 3.138e-05  t[s]:     91.16
	FillingsUpdate:  mu: -0.130495680  nElectrons: 9.000000
SCF: Cycle: 250   F: -28.314506484597466   dF: -8.177e-09   |Residual|: 4.132e-05   |deigs|: 5.497e-05  t[s]:     91.49
	FillingsUpdate:  mu: -0.130493262  nElectrons: 9.000000
SCF: Cycle: 251   F: -28.314506434783958   dF: +4.981e-08   |Residual|: 3.188e-05   |deigs|: 2.873e-05  t[s]:     91.82
	FillingsUpdate:  mu: -0.130517466  nElectrons: 9.000000
SCF: Cycle: 252   F: -28.314506430842940   dF: +3.941e-09   |Residual|: 4.650e-05   |deigs|: 5.766e-05  t[s]:     92.15
	FillingsUpdate:  mu: -0.130504190  nElectrons: 9.000000
SCF: Cycle: 253   F: -28.314506440053414   dF: -9.210e-09   |Residual|: 6.118e-05   |deigs|: 6.736e-05  t[s]:     92.55
	FillingsUpdate:  mu: -0.130501387  nElectrons: 9.000000
SCF: Cycle: 254   F: -28.314506460191097   dF: -2.014e-08   |Residual|: 4.874e-05   |deigs|: 3.514e-05  t[s]:     92.87
	FillingsUpdate:  mu: -0.130502048  nElectrons: 9.000000
SCF: Cycle: 255   F: -28.314506406668681   dF: +5.352e-08   |Residual|: 6.510e-05   |deigs|: 3.091e-05  t[s]:     93.20
	FillingsUpdate:  mu: -0.130501678  nElectrons: 9.000000
SCF: Cycle: 256   F: -28.314506379823335   dF: +2.685e-08   |Residual|: 5.077e-05   |deigs|: 4.070e-05  t[s]:     93.53
	FillingsUpdate:  mu: -0.130508985  nElectrons: 9.000000
SCF: Cycle: 257   F: -28.314506385438996   dF: -5.616e-09   |Residual|: 4.655e-05   |deigs|: 2.860e-05  t[s]:     93.86
	FillingsUpdate:  mu: -0.130497926  nElectrons: 9.000000
SCF: Cycle: 258   F: -28.314506318564494   dF: +6.687e-08   |Residual|: 2.821e-05   |deigs|: 5.307e-05  t[s]:     94.25
	FillingsUpdate:  mu: -0.130492305  nElectrons: 9.000000
SCF: Cycle: 259   F: -28.314506316924906   dF: +1.640e-09   |Residual|: 2.970e-05   |deigs|: 4.404e-05  t[s]:     94.58
	FillingsUpdate:  mu: -0.130490158  nElectrons: 9.000000
SCF: Cycle: 260   F: -28.314506194533099   dF: +1.224e-07   |Residual|: 2.677e-05   |deigs|: 4.144e-05  t[s]:     94.97
	FillingsUpdate:  mu: -0.130489758  nElectrons: 9.000000
SCF: Cycle: 261   F: -28.314506201195012   dF: -6.662e-09   |Residual|: 2.567e-05   |deigs|: 2.625e-05  t[s]:     95.30
	FillingsUpdate:  mu: -0.130476991  nElectrons: 9.000000
SCF: Cycle: 262   F: -28.314506227773052   dF: -2.658e-08   |Residual|: 2.652e-05   |deigs|: 5.039e-05  t[s]:     95.68
	FillingsUpdate:  mu: -0.130474085  nElectrons: 9.000000
SCF: Cycle: 263   F: -28.314506155947445   dF: +7.183e-08   |Residual|: 2.937e-05   |deigs|: 5.578e-05  t[s]:     96.02
	FillingsUpdate:  mu: -0.130478637  nElectrons: 9.000000
SCF: Cycle: 264   F: -28.314506220819247   dF: -6.487e-08   |Residual|: 1.830e-05   |deigs|: 4.761e-05  t[s]:     96.35
	FillingsUpdate:  mu: -0.130471233  nElectrons: 9.000000
SCF: Cycle: 265   F: -28.314506185495727   dF: +3.532e-08   |Residual|: 1.867e-05   |deigs|: 4.824e-05  t[s]:     96.68
	FillingsUpdate:  mu: -0.130476168  nElectrons: 9.000000
SCF: Cycle: 266   F: -28.314506279066165   dF: -9.357e-08   |Residual|: 2.088e-05   |deigs|: 6.225e-05  t[s]:     97.01
	FillingsUpdate:  mu: -0.130479479  nElectrons: 9.000000
SCF: Cycle: 267   F: -28.314506283677662   dF: -4.611e-09   |Residual|: 2.282e-05   |deigs|: 7.432e-05  t[s]:     97.34
	FillingsUpdate:  mu: -0.130515627  nElectrons: 9.000000
SCF: Cycle: 268   F: -28.314506386968464   dF: -1.033e-07   |Residual|: 3.374e-05   |deigs|: 1.155e-04  t[s]:     97.73
	FillingsUpdate:  mu: -0.130502736  nElectrons: 9.000000
SCF: Cycle: 269   F: -28.314506337659164   dF: +4.931e-08   |Residual|: 4.854e-05   |deigs|: 1.102e-04  t[s]:     98.05
	FillingsUpdate:  mu: -0.130477722  nElectrons: 9.000000
SCF: Cycle: 270   F: -28.314506141273288   dF: +1.964e-07   |Residual|: 2.105e-05   |deigs|: 1.089e-04  t[s]:     98.44
	FillingsUpdate:  mu: -0.130452628  nElectrons: 9.000000
SCF: Cycle: 271   F: -28.314506029453337   dF: +1.118e-07   |Residual|: 3.899e-05   |deigs|: 1.970e-04  t[s]:     98.78
	FillingsUpdate:  mu: -0.130433021  nElectrons: 9.000000
SCF: Cycle: 272   F: -28.314506254066703   dF: -2.246e-07   |Residual|: 2.651e-05   |deigs|: 1.045e-04  t[s]:     99.15
	FillingsUpdate:  mu: -0.130449629  nElectrons: 9.000000
SCF: Cycle: 273   F: -28.314506374573391   dF: -1.205e-07   |Residual|: 2.841e-05   |deigs|: 1.304e-04  t[s]:     99.48
	FillingsUpdate:  mu: -0.130429796  nElectrons: 9.000000
SCF: Cycle: 274   F: -28.314506334213956   dF: +4.036e-08   |Residual|: 3.246e-05   |deigs|: 7.876e-05  t[s]:     99.81
	FillingsUpdate:  mu: -0.130465252  nElectrons: 9.000000
SCF: Cycle: 275   F: -28.314506524437288   dF: -1.902e-07   |Residual|: 5.576e-05   |deigs|: 1.274e-04  t[s]:    100.14
	FillingsUpdate:  mu: -0.130475430  nElectrons: 9.000000
SCF: Cycle: 276   F: -28.314506532842977   dF: -8.406e-09   |Residual|: 8.427e-05   |deigs|: 1.220e-04  t[s]:    100.47
	FillingsUpdate:  mu: -0.130455941  nElectrons: 9.000000
SCF: Cycle: 277   F: -28.314506486934786   dF: +4.591e-08   |Residual|: 7.729e-05   |deigs|: 6.607e-05  t[s]:    100.86
	FillingsUpdate:  mu: -0.130450123  nElectrons: 9.000000
SCF: Cycle: 278   F: -28.314506495206739   dF: -8.272e-09   |Residual|: 1.719e-05   |deigs|: 1.909e-04  t[s]:    101.26
	FillingsUpdate:  mu: -0.130468032  nElectrons: 9.000000
SCF: Cycle: 279   F: -28.314506572166430   dF: -7.696e-08   |Residual|: 2.256e-05   |deigs|: 7.431e-05  t[s]:    101.65
	FillingsUpdate:  mu: -0.130449198  nElectrons: 9.000000
SCF: Cycle: 280   F: -28.314506595831155   dF: -2.366e-08   |Residual|: 4.945e-05   |deigs|: 5.809e-05  t[s]:    101.98
	FillingsUpdate:  mu: -0.130447692  nElectrons: 9.000000
SCF: Cycle: 281   F: -28.314506515350690   dF: +8.048e-08   |Residual|: 6.434e-05   |deigs|: 8.210e-05  t[s]:    102.32
	FillingsUpdate:  mu: -0.130509988  nElectrons: 9.000000
SCF: Cycle: 282   F: -28.314506034945573   dF: +4.804e-07   |Residual|: 1.310e-04   |deigs|: 1.711e-04  t[s]:    102.71
	FillingsUpdate:  mu: -0.130491564  nElectrons: 9.000000
SCF: Cycle: 283   F: -28.314505988668280   dF: +4.628e-08   |Residual|: 1.009e-04   |deigs|: 6.497e-05  t[s]:    103.04
	FillingsUpdate:  mu: -0.130461327  nElectrons: 9.000000
SCF: Cycle: 284   F: -28.314505672134171   dF: +3.165e-07   |Residual|: 7.325e-05   |deigs|: 3.588e-04  t[s]:    103.43
	FillingsUpdate:  mu: -0.130441876  nElectrons: 9.000000
SCF: Cycle: 285   F: -28.314505866860088   dF: -1.947e-07   |Residual|: 5.140e-05   |deigs|: 1.514e-04  t[s]:    103.76
	FillingsUpdate:  mu: -0.130441422  nElectrons: 9.000000
SCF: Cycle: 286   F: -28.314505829672211   dF: +3.719e-08   |Residual|: 5.516e-05   |deigs|: 5.849e-05  t[s]:    104.09
	FillingsUpdate:  mu: -0.130434429  nElectrons: 9.000000
SCF: Cycle: 287   F: -28.314505334762682   dF: +4.949e-07   |Residual|: 5.283e-05   |deigs|: 2.980e-04  t[s]:    104.48
	FillingsUpdate:  mu: -0.130427593  nElectrons: 9.000000
SCF: Cycle: 288   F: -28.314505840743362   dF: -5.060e-07   |Residual|: 1.453e-05   |deigs|: 3.485e-04  t[s]:    104.87
	FillingsUpdate:  mu: -0.130423644  nElectrons: 9.000000
SCF: Cycle: 289   F: -28.314505833894753   dF: +6.849e-09   |Residual|: 2.177e-05   |deigs|: 8.661e-05  t[s]:    105.19
	FillingsUpdate:  mu: -0.130438793  nElectrons: 9.000000
SCF: Cycle: 290   F: -28.314506023895060   dF: -1.900e-07   |Residual|: 7.792e-06   |deigs|: 2.505e-04  t[s]:    105.58
	FillingsUpdate:  mu: -0.130486335  nElectrons: 9.000000
SCF: Cycle: 291   F: -28.314506328644367   dF: -3.047e-07   |Residual|: 5.539e-05   |deigs|: 9.382e-05  t[s]:    105.91
	FillingsUpdate:  mu: -0.130484427  nElectrons: 9.000000
SCF: Cycle: 292   F: -28.314506312651819   dF: +1.599e-08   |Residual|: 5.204e-05   |deigs|: 5.811e-05  t[s]:    106.25
	FillingsUpdate:  mu: -0.130459752  nElectrons: 9.000000
SCF: Cycle: 293   F: -28.314506184825841   dF: +1.278e-07   |Residual|: 9.393e-06   |deigs|: 9.159e-05  t[s]:    106.64
	FillingsUpdate:  mu: -0.130481027  nElectrons: 9.000000
SCF: Cycle: 294   F: -28.314506332330055   dF: -1.475e-07   |Residual|: 3.105e-05   |deigs|: 6.042e-05  t[s]:    106.96
	FillingsUpdate:  mu: -0.130491567  nElectrons: 9.000000
SCF: Cycle: 295   F: -28.314506260239806   dF: +7.209e-08   |Residual|: 5.201e-05   |deigs|: 4.656e-05  t[s]:    107.29
	FillingsUpdate:  mu: -0.130496465  nElectrons: 9.000000
SCF: Cycle: 296   F: -28.314506135341034   dF: +1.249e-07   |Residual|: 8.640e-05   |deigs|: 8.256e-05  t[s]:    107.62
	FillingsUpdate:  mu: -0.130497190  nElectrons: 9.000000
SCF: Cycle: 297   F: -28.314506108286853   dF: +2.705e-08   |Residual|: 8.468e-05   |deigs|: 2.725e-05  t[s]:    107.94
	FillingsUpdate:  mu: -0.130448823  nElectrons: 9.000000
SCF: Cycle: 298   F: -28.314505738682882   dF: +3.696e-07   |Residual|: 3.387e-05   |deigs|: 8.598e-05  t[s]:    108.33
	FillingsUpdate:  mu: -0.130444309  nElectrons: 9.000000
SCF: Cycle: 299   F: -28.314505799619337   dF: -6.094e-08   |Residual|: 3.625e-05   |deigs|: 8.409e-05  t[s]:    108.66
	FillingsUpdate:  mu: -0.130424980  nElectrons: 9.000000
SCF: Cycle: 300   F: -28.314505715466854   dF: +8.415e-08   |Residual|: 2.057e-05   |deigs|: 7.797e-05  t[s]:    108.99
	FillingsUpdate:  mu: -0.130482828  nElectrons: 9.000000
SCF: Cycle: 301   F: -28.314505955795298   dF: -2.403e-07   |Residual|: 1.011e-04   |deigs|: 8.885e-05  t[s]:    109.33
	FillingsUpdate:  mu: -0.130489785  nElectrons: 9.000000
SCF: Cycle: 302   F: -28.314505869544004   dF: +8.625e-08   |Residual|: 1.413e-04   |deigs|: 3.514e-05  t[s]:    109.66
	FillingsUpdate:  mu: -0.130430958  nElectrons: 9.000000
SCF: Cycle: 303   F: -28.314506033835308   dF: -1.643e-07   |Residual|: 9.426e-06   |deigs|: 1.062e-04  t[s]:    109.99
	FillingsUpdate:  mu: -0.130471954  nElectrons: 9.000000
SCF: Cycle: 304   F: -28.314506227861319   dF: -1.940e-07   |Residual|: 3.984e-05   |deigs|: 9.734e-05  t[s]:    110.32
	FillingsUpdate:  mu: -0.130469469  nElectrons: 9.000000
SCF: Cycle: 305   F: -28.314506170247189   dF: +5.761e-08   |Residual|: 4.415e-05   |deigs|: 1.057e-04  t[s]:    110.65
	FillingsUpdate:  mu: -0.130461364  nElectrons: 9.000000
SCF: Cycle: 306   F: -28.314506302005373   dF: -1.318e-07   |Residual|: 3.685e-05   |deigs|: 5.408e-05  t[s]:    110.98
	FillingsUpdate:  mu: -0.130455060  nElectrons: 9.000000
SCF: Cycle: 307   F: -28.314506212041813   dF: +8.996e-08   |Residual|: 3.642e-05   |deigs|: 3.726e-05  t[s]:    111.31
	FillingsUpdate:  mu: -0.130447816  nElectrons: 9.000000
SCF: Cycle: 308   F: -28.314505925539827   dF: +2.865e-07   |Residual|: 4.695e-05   |deigs|: 8.949e-05  t[s]:    111.64
	FillingsUpdate:  mu: -0.130475764  nElectrons: 9.000000
SCF: Cycle: 309   F: -28.314506031211270   dF: -1.057e-07   |Residual|: 7.996e-05   |deigs|: 8.502e-05  t[s]:    111.97
	FillingsUpdate:  mu: -0.130472131  nElectrons: 9.000000
SCF: Cycle: 310   F: -28.314505949854428   dF: +8.136e-08   |Residual|: 7.046e-05   |deigs|: 9.022e-05  t[s]:    112.30
	FillingsUpdate:  mu: -0.130473073  nElectrons: 9.000000
SCF: Cycle: 311   F: -28.314506162402182   dF: -2.125e-07   |Residual|: 6.955e-05   |deigs|: 7.524e-05  t[s]:    112.63
	FillingsUpdate:  mu: -0.130460766  nElectrons: 9.000000
SCF: Cycle: 312   F: -28.314506261542892   dF: -9.914e-08   |Residual|: 4.679e-05   |deigs|: 8.142e-05  t[s]:    112.96
	FillingsUpdate:  mu: -0.130464262  nElectrons: 9.000000
SCF: Cycle: 313   F: -28.314506315994873   dF: -5.445e-08   |Residual|: 7.025e-05   |deigs|: 1.314e-04  t[s]:    113.29
	FillingsUpdate:  mu: -0.130459092  nElectrons: 9.000000
SCF: Cycle: 314   F: -28.314506211724950   dF: +1.043e-07   |Residual|: 8.829e-05   |deigs|: 8.537e-05  t[s]:    113.67
	FillingsUpdate:  mu: -0.130464785  nElectrons: 9.000000
SCF: Cycle: 315   F: -28.314506289919130   dF: -7.819e-08   |Residual|: 9.078e-05   |deigs|: 5.597e-05  t[s]:    114.00
	FillingsUpdate:  mu: -0.130478204  nElectrons: 9.000000
SCF: Cycle: 316   F: -28.314506400418061   dF: -1.105e-07   |Residual|: 7.047e-05   |deigs|: 8.051e-05  t[s]:    114.33
	FillingsUpdate:  mu: -0.130470886  nElectrons: 9.000000
SCF: Cycle: 317   F: -28.314506434126837   dF: -3.371e-08   |Residual|: 5.986e-05   |deigs|: 8.293e-05  t[s]:    114.72
	FillingsUpdate:  mu: -0.130467693  nElectrons: 9.000000
SCF: Cycle: 318   F: -28.314506325230234   dF: +1.089e-07   |Residual|: 1.387e-05   |deigs|: 1.390e-04  t[s]:    115.09
	FillingsUpdate:  mu: -0.130470511  nElectrons: 9.000000
SCF: Cycle: 319   F: -28.314506416186649   dF: -9.096e-08   |Residual|: 1.630e-05   |deigs|: 7.896e-05  t[s]:    115.42
	FillingsUpdate:  mu: -0.130421751  nElectrons: 9.000000
SCF: Cycle: 320   F: -28.314505635017959   dF: +7.812e-07   |Residual|: 6.443e-05   |deigs|: 1.717e-04  t[s]:    115.80
	FillingsUpdate:  mu: -0.130487100  nElectrons: 9.000000
SCF: Cycle: 321   F: -28.314506280660414   dF: -6.456e-07   |Residual|: 3.241e-05   |deigs|: 1.353e-04  t[s]:    116.13
	FillingsUpdate:  mu: -0.130443407  nElectrons: 9.000000
SCF: Cycle: 322   F: -28.314505943650854   dF: +3.370e-07   |Residual|: 3.918e-05   |deigs|: 8.304e-05  t[s]:    116.46
	FillingsUpdate:  mu: -0.130439324  nElectrons: 9.000000
SCF: Cycle: 323   F: -28.314506058240198   dF: -1.146e-07   |Residual|: 2.144e-05   |deigs|: 9.569e-05  t[s]:    116.79
	FillingsUpdate:  mu: -0.130470208  nElectrons: 9.000000
SCF: Cycle: 324   F: -28.314506069637815   dF: -1.140e-08   |Residual|: 2.461e-05   |deigs|: 6.561e-05  t[s]:    117.12
	FillingsUpdate:  mu: -0.130505881  nElectrons: 9.000000
SCF: Cycle: 325   F: -28.314506010511732   dF: +5.913e-08   |Residual|: 6.306e-05   |deigs|: 1.489e-04  t[s]:    117.51
	FillingsUpdate:  mu: -0.130448955  nElectrons: 9.000000
SCF: Cycle: 326   F: -28.314505841928554   dF: +1.686e-07   |Residual|: 1.139e-05   |deigs|: 1.302e-04  t[s]:    117.83
	FillingsUpdate:  mu: -0.130519939  nElectrons: 9.000000
SCF: Cycle: 327   F: -28.314505749200567   dF: +9.273e-08   |Residual|: 1.235e-04   |deigs|: 1.326e-04  t[s]:    118.16
	FillingsUpdate:  mu: -0.130529624  nElectrons: 9.000000
SCF: Cycle: 328   F: -28.314506252850272   dF: -5.036e-07   |Residual|: 1.043e-04   |deigs|: 8.508e-05  t[s]:    118.49
	FillingsUpdate:  mu: -0.130497050  nElectrons: 9.000000
SCF: Cycle: 329   F: -28.314506480457919   dF: -2.276e-07   |Residual|: 3.512e-05   |deigs|: 7.061e-05  t[s]:    118.82
	FillingsUpdate:  mu: -0.130485907  nElectrons: 9.000000
SCF: Cycle: 330   F: -28.314506548641440   dF: -6.818e-08   |Residual|: 3.364e-05   |deigs|: 6.996e-05  t[s]:    119.15
	FillingsUpdate:  mu: -0.130512145  nElectrons: 9.000000
SCF: Cycle: 331   F: -28.314506256445853   dF: +2.922e-07   |Residual|: 5.432e-05   |deigs|: 3.171e-04  t[s]:    119.55
	FillingsUpdate:  mu: -0.130501553  nElectrons: 9.000000
SCF: Cycle: 332   F: -28.314506357381163   dF: -1.009e-07   |Residual|: 6.304e-05   |deigs|: 4.332e-04  t[s]:    119.94
	FillingsUpdate:  mu: -0.130505559  nElectrons: 9.000000
SCF: Cycle: 333   F: -28.314506524858587   dF: -1.675e-07   |Residual|: 7.139e-05   |deigs|: 1.472e-04  t[s]:    120.27
	FillingsUpdate:  mu: -0.130523675  nElectrons: 9.000000
SCF: Cycle: 334   F: -28.314506186539521   dF: +3.383e-07   |Residual|: 6.489e-05   |deigs|: 1.668e-04  t[s]:    120.66
	FillingsUpdate:  mu: -0.130457820  nElectrons: 9.000000
SCF: Cycle: 335   F: -28.314506004901922   dF: +1.816e-07   |Residual|: 4.833e-05   |deigs|: 1.209e-04  t[s]:    120.99
	FillingsUpdate:  mu: -0.130494619  nElectrons: 9.000000
SCF: Cycle: 336   F: -28.314505976254122   dF: +2.865e-08   |Residual|: 3.302e-05   |deigs|: 2.640e-04  t[s]:    121.38
	FillingsUpdate:  mu: -0.130516092  nElectrons: 9.000000
SCF: Cycle: 337   F: -28.314506050960919   dF: -7.471e-08   |Residual|: 2.741e-05   |deigs|: 2.887e-04  t[s]:    121.78
	FillingsUpdate:  mu: -0.130547087  nElectrons: 9.000000
SCF: Cycle: 338   F: -28.314506310560812   dF: -2.596e-07   |Residual|: 1.041e-04   |deigs|: 2.143e-04  t[s]:    122.17
	FillingsUpdate:  mu: -0.130532698  nElectrons: 9.000000
SCF: Cycle: 339   F: -28.314506355618235   dF: -4.506e-08   |Residual|: 1.068e-04   |deigs|: 6.379e-05  t[s]:    122.50
	FillingsUpdate:  mu: -0.130513177  nElectrons: 9.000000
SCF: Cycle: 340   F: -28.314506411079787   dF: -5.546e-08   |Residual|: 2.373e-05   |deigs|: 1.713e-04  t[s]:    122.89
	FillingsUpdate:  mu: -0.130527841  nElectrons: 9.000000
SCF: Cycle: 341   F: -28.314506214518936   dF: +1.966e-07   |Residual|: 3.831e-05   |deigs|: 7.644e-05  t[s]:    123.29
	FillingsUpdate:  mu: -0.130523549  nElectrons: 9.000000
SCF: Cycle: 342   F: -28.314506392743912   dF: -1.782e-07   |Residual|: 5.738e-05   |deigs|: 1.444e-04  t[s]:    123.68
	FillingsUpdate:  mu: -0.130517970  nElectrons: 9.000000
SCF: Cycle: 343   F: -28.314506342724126   dF: +5.002e-08   |Residual|: 5.996e-05   |deigs|: 1.288e-04  t[s]:    124.01
	FillingsUpdate:  mu: -0.130494852  nElectrons: 9.000000
SCF: Cycle: 344   F: -28.314506457425978   dF: -1.147e-07   |Residual|: 3.566e-05   |deigs|: 1.206e-04  t[s]:    124.40
	FillingsUpdate:  mu: -0.130474161  nElectrons: 9.000000
SCF: Cycle: 345   F: -28.314506577480344   dF: -1.201e-07   |Residual|: 2.182e-05   |deigs|: 1.074e-04  t[s]:    124.73
	FillingsUpdate:  mu: -0.130472025  nElectrons: 9.000000
SCF: Cycle: 346   F: -28.314506612804127   dF: -3.532e-08   |Residual|: 1.738e-05   |deigs|: 5.087e-05  t[s]:    125.06
	FillingsUpdate:  mu: -0.130424738  nElectrons: 9.000000
SCF: Cycle: 347   F: -28.314506600535516   dF: +1.227e-08   |Residual|: 1.403e-04   |deigs|: 1.150e-04  t[s]:    125.45
	FillingsUpdate:  mu: -0.130406961  nElectrons: 9.000000
SCF: Cycle: 348   F: -28.314506491102030   dF: +1.094e-07   |Residual|: 1.645e-04   |deigs|: 6.164e-05  t[s]:    125.84
	FillingsUpdate:  mu: -0.130467564  nElectrons: 9.000000
SCF: Cycle: 349   F: -28.314506565115376   dF: -7.401e-08   |Residual|: 3.838e-05   |deigs|: 1.779e-04  t[s]:    126.17
	FillingsUpdate:  mu: -0.130479744  nElectrons: 9.000000
SCF: Cycle: 350   F: -28.314506600191624   dF: -3.508e-08   |Residual|: 3.664e-05   |deigs|: 6.719e-05  t[s]:    126.50
	FillingsUpdate:  mu: -0.130458373  nElectrons: 9.000000
SCF: Cycle: 351   F: -28.314506540893031   dF: +5.930e-08   |Residual|: 1.078e-04   |deigs|: 9.281e-05  t[s]:    126.83
	FillingsUpdate:  mu: -0.130496643  nElectrons: 9.000000
SCF: Cycle: 352   F: -28.314506547670760   dF: -6.778e-09   |Residual|: 3.538e-05   |deigs|: 1.101e-04  t[s]:    127.17
	FillingsUpdate:  mu: -0.130526888  nElectrons: 9.000000
SCF: Cycle: 353   F: -28.314506471770084   dF: +7.590e-08   |Residual|: 5.420e-05   |deigs|: 5.715e-05  t[s]:    127.57
	FillingsUpdate:  mu: -0.130514181  nElectrons: 9.000000
SCF: Cycle: 354   F: -28.314506569841633   dF: -9.807e-08   |Residual|: 5.767e-05   |deigs|: 9.867e-05  t[s]:    127.94
	FillingsUpdate:  mu: -0.130502678  nElectrons: 9.000000
SCF: Cycle: 355   F: -28.314506607329697   dF: -3.749e-08   |Residual|: 5.335e-05   |deigs|: 1.429e-04  t[s]:    128.27
	FillingsUpdate:  mu: -0.130501981  nElectrons: 9.000000
SCF: Cycle: 356   F: -28.314506599973168   dF: +7.357e-09   |Residual|: 4.197e-05   |deigs|: 1.085e-04  t[s]:    128.66
	FillingsUpdate:  mu: -0.130517015  nElectrons: 9.000000
SCF: Cycle: 357   F: -28.314506568849279   dF: +3.112e-08   |Residual|: 6.071e-05   |deigs|: 4.377e-05  t[s]:    129.05
	FillingsUpdate:  mu: -0.130507114  nElectrons: 9.000000
SCF: Cycle: 358   F: -28.314506555170905   dF: +1.368e-08   |Residual|: 4.352e-05   |deigs|: 3.261e-05  t[s]:    129.38
	FillingsUpdate:  mu: -0.130517128  nElectrons: 9.000000
SCF: Cycle: 359   F: -28.314506564371314   dF: -9.200e-09   |Residual|: 3.399e-05   |deigs|: 5.927e-05  t[s]:    129.78
	FillingsUpdate:  mu: -0.130517155  nElectrons: 9.000000
SCF: Cycle: 360   F: -28.314506551126911   dF: +1.324e-08   |Residual|: 3.651e-05   |deigs|: 3.039e-05  t[s]:    130.10
	FillingsUpdate:  mu: -0.130495633  nElectrons: 9.000000
SCF: Cycle: 361   F: -28.314506539155932   dF: +1.197e-08   |Residual|: 4.959e-05   |deigs|: 1.469e-04  t[s]:    130.50
	FillingsUpdate:  mu: -0.130549564  nElectrons: 9.000000
SCF: Cycle: 362   F: -28.314506528833871   dF: +1.032e-08   |Residual|: 7.097e-05   |deigs|: 1.711e-04  t[s]:    130.88
	FillingsUpdate:  mu: -0.130526151  nElectrons: 9.000000
SCF: Cycle: 363   F: -28.314506621210768   dF: -9.238e-08   |Residual|: 5.453e-05   |deigs|: 6.904e-05  t[s]:    131.27
	FillingsUpdate:  mu: -0.130489537  nElectrons: 9.000000
SCF: Cycle: 364   F: -28.314506685103616   dF: -6.389e-08   |Residual|: 3.226e-05   |deigs|: 1.092e-04  t[s]:    131.66
	FillingsUpdate:  mu: -0.130496315  nElectrons: 9.000000
SCF: Cycle: 365   F: -28.314506703389156   dF: -1.829e-08   |Residual|: 2.035e-05   |deigs|: 5.749e-05  t[s]:    131.99
	FillingsUpdate:  mu: -0.130502066  nElectrons: 9.000000
SCF: Cycle: 366   F: -28.314506638575953   dF: +6.481e-08   |Residual|: 4.672e-05   |deigs|: 6.105e-05  t[s]:    132.31
	FillingsUpdate:  mu: -0.130499552  nElectrons: 9.000000
SCF: Cycle: 367   F: -28.314506581882831   dF: +5.669e-08   |Residual|: 7.803e-05   |deigs|: 9.359e-05  t[s]:    132.70
	FillingsUpdate:  mu: -0.130507125  nElectrons: 9.000000
SCF: Cycle: 368   F: -28.314506592721067   dF: -1.084e-08   |Residual|: 6.468e-05   |deigs|: 7.593e-05  t[s]:    133.09
	FillingsUpdate:  mu: -0.130506391  nElectrons: 9.000000
SCF: Cycle: 369   F: -28.314506605040467   dF: -1.232e-08   |Residual|: 4.883e-05   |deigs|: 4.577e-05  t[s]:    133.48
	FillingsUpdate:  mu: -0.130509827  nElectrons: 9.000000
SCF: Cycle: 370   F: -28.314506429632210   dF: +1.754e-07   |Residual|: 6.082e-05   |deigs|: 9.365e-05  t[s]:    133.87
	FillingsUpdate:  mu: -0.130517693  nElectrons: 9.000000
SCF: Cycle: 371   F: -28.314506406178555   dF: +2.345e-08   |Residual|: 5.066e-05   |deigs|: 7.658e-05  t[s]:    134.20
	FillingsUpdate:  mu: -0.130527457  nElectrons: 9.000000
SCF: Cycle: 372   F: -28.314506438338903   dF: -3.216e-08   |Residual|: 5.991e-05   |deigs|: 5.231e-05  t[s]:    134.58
	FillingsUpdate:  mu: -0.130509865  nElectrons: 9.000000
SCF: Cycle: 373   F: -28.314506532133372   dF: -9.379e-08   |Residual|: 4.655e-05   |deigs|: 8.329e-05  t[s]:    134.91
	FillingsUpdate:  mu: -0.130511803  nElectrons: 9.000000
SCF: Cycle: 374   F: -28.314506507136070   dF: +2.500e-08   |Residual|: 5.100e-05   |deigs|: 6.977e-05  t[s]:    135.24
	FillingsUpdate:  mu: -0.130483073  nElectrons: 9.000000
SCF: Cycle: 375   F: -28.314506544435279   dF: -3.730e-08   |Residual|: 2.631e-05   |deigs|: 5.024e-05  t[s]:    135.57
	FillingsUpdate:  mu: -0.130476885  nElectrons: 9.000000
SCF: Cycle: 376   F: -28.314506480051246   dF: +6.438e-08   |Residual|: 1.390e-05   |deigs|: 6.518e-05  t[s]:    135.90
	FillingsUpdate:  mu: -0.130472961  nElectrons: 9.000000
SCF: Cycle: 377   F: -28.314506529164856   dF: -4.911e-08   |Residual|: 2.222e-05   |deigs|: 3.830e-05  t[s]:    136.24
	FillingsUpdate:  mu: -0.130486948  nElectrons: 9.000000
SCF: Cycle: 378   F: -28.314506393140483   dF: +1.360e-07   |Residual|: 4.223e-05   |deigs|: 4.164e-05  t[s]:    136.57
	FillingsUpdate:  mu: -0.130501328  nElectrons: 9.000000
SCF: Cycle: 379   F: -28.314505939985409   dF: +4.532e-07   |Residual|: 5.680e-05   |deigs|: 7.502e-05  t[s]:    136.90
	FillingsUpdate:  mu: -0.130460108  nElectrons: 9.000000
SCF: Cycle: 380   F: -28.314506626377643   dF: -6.864e-07   |Residual|: 2.160e-05   |deigs|: 1.372e-04  t[s]:    137.23
	FillingsUpdate:  mu: -0.130481349  nElectrons: 9.000000
SCF: Cycle: 381   F: -28.314506636012261   dF: -9.635e-09   |Residual|: 2.675e-05   |deigs|: 5.682e-05  t[s]:    137.55
	FillingsUpdate:  mu: -0.130471106  nElectrons: 9.000000
SCF: Cycle: 382   F: -28.314506687154676   dF: -5.114e-08   |Residual|: 1.832e-05   |deigs|: 7.939e-05  t[s]:    137.94
	FillingsUpdate:  mu: -0.130468977  nElectrons: 9.000000
SCF: Cycle: 383   F: -28.314506630438938   dF: +5.672e-08   |Residual|: 1.239e-05   |deigs|: 5.344e-05  t[s]:    138.27
	FillingsUpdate:  mu: -0.130485599  nElectrons: 9.000000
SCF: Cycle: 384   F: -28.314506673870167   dF: -4.343e-08   |Residual|: 2.391e-05   |deigs|: 4.309e-05  t[s]:    138.60
	FillingsUpdate:  mu: -0.130513147  nElectrons: 9.000000
SCF: Cycle: 385   F: -28.314506547093529   dF: +1.268e-07   |Residual|: 7.328e-05   |deigs|: 1.292e-04  t[s]:    138.98
	FillingsUpdate:  mu: -0.130490789  nElectrons: 9.000000
SCF: Cycle: 386   F: -28.314506637704724   dF: -9.061e-08   |Residual|: 3.194e-05   |deigs|: 8.521e-05  t[s]:    139.32
	FillingsUpdate:  mu: -0.130480573  nElectrons: 9.000000
SCF: Cycle: 387   F: -28.314506642746700   dF: -5.042e-09   |Residual|: 2.021e-05   |deigs|: 4.941e-05  t[s]:    139.64
	FillingsUpdate:  mu: -0.130478987  nElectrons: 9.000000
SCF: Cycle: 388   F: -28.314506631413760   dF: +1.133e-08   |Residual|: 1.820e-05   |deigs|: 2.782e-05  t[s]:    140.04
	FillingsUpdate:  mu: -0.130484895  nElectrons: 9.000000
SCF: Cycle: 389   F: -28.314506616682117   dF: +1.473e-08   |Residual|: 1.509e-05   |deigs|: 5.739e-05  t[s]:    140.37
	FillingsUpdate:  mu: -0.130458746  nElectrons: 9.000000
SCF: Cycle: 390   F: -28.314506572600838   dF: +4.408e-08   |Residual|: 2.199e-05   |deigs|: 5.724e-05  t[s]:    140.70
	FillingsUpdate:  mu: -0.130470257  nElectrons: 9.000000
SCF: Cycle: 391   F: -28.314506562196598   dF: +1.040e-08   |Residual|: 2.030e-05   |deigs|: 6.982e-05  t[s]:    141.10
	FillingsUpdate:  mu: -0.130460456  nElectrons: 9.000000
SCF: Cycle: 392   F: -28.314506606572497   dF: -4.438e-08   |Residual|: 2.533e-05   |deigs|: 8.049e-05  t[s]:    141.48
	FillingsUpdate:  mu: -0.130470234  nElectrons: 9.000000
SCF: Cycle: 393   F: -28.314506605076474   dF: +1.496e-09   |Residual|: 4.301e-05   |deigs|: 4.780e-05  t[s]:    141.80
[...]
	FillingsUpdate:  mu: -0.130485007  nElectrons: 9.000000
SCF: Cycle: 555   F: -28.314506635032185   dF: -4.536e-08   |Residual|: 2.646e-05   |deigs|: 5.331e-05  t[s]:    200.05
	FillingsUpdate:  mu: -0.130503328  nElectrons: 9.000000
SCF: Cycle: 556   F: -28.314506681696734   dF: -4.666e-08   |Residual|: 2.403e-05   |deigs|: 5.468e-05  t[s]:    200.38
	FillingsUpdate:  mu: -0.130507821  nElectrons: 9.000000
SCF: Cycle: 557   F: -28.314506709882128   dF: -2.819e-08   |Residual|: 1.234e-05   |deigs|: 5.568e-05  t[s]:    200.71
	FillingsUpdate:  mu: -0.130499163  nElectrons: 9.000000
SCF: Cycle: 558   F: -28.314506693272378   dF: +1.661e-08   |Residual|: 1.251e-05   |deigs|: 3.152e-05  t[s]:    201.04
	FillingsUpdate:  mu: -0.130532308  nElectrons: 9.000000
SCF: Cycle: 559   F: -28.314506579787945   dF: +1.135e-07   |Residual|: 2.086e-05   |deigs|: 9.905e-05  t[s]:    201.42
	FillingsUpdate:  mu: -0.130524354  nElectrons: 9.000000
SCF: Cycle: 560   F: -28.314506614512425   dF: -3.472e-08   |Residual|: 1.847e-05   |deigs|: 4.946e-05  t[s]:    201.75
	FillingsUpdate:  mu: -0.130509214  nElectrons: 9.000000
SCF: Cycle: 561   F: -28.314506695020079   dF: -8.051e-08   |Residual|: 4.183e-05   |deigs|: 1.349e-04  t[s]:    202.15
	FillingsUpdate:  mu: -0.130519565  nElectrons: 9.000000
SCF: Cycle: 562   F: -28.314506689581975   dF: +5.438e-09   |Residual|: 3.867e-05   |deigs|: 5.343e-05  t[s]:    202.47
	FillingsUpdate:  mu: -0.130512268  nElectrons: 9.000000
SCF: Cycle: 563   F: -28.314506626039996   dF: +6.354e-08   |Residual|: 2.406e-05   |deigs|: 6.882e-05  t[s]:    202.87
	FillingsUpdate:  mu: -0.130512303  nElectrons: 9.000000
SCF: Cycle: 564   F: -28.314506662279328   dF: -3.624e-08   |Residual|: 3.202e-05   |deigs|: 7.346e-05  t[s]:    203.19
	FillingsUpdate:  mu: -0.130513232  nElectrons: 9.000000
SCF: Cycle: 565   F: -28.314506678015206   dF: -1.574e-08   |Residual|: 2.331e-05   |deigs|: 8.002e-05  t[s]:    203.53
	FillingsUpdate:  mu: -0.130482550  nElectrons: 9.000000
SCF: Cycle: 566   F: -28.314506642021080   dF: +3.599e-08   |Residual|: 1.129e-05   |deigs|: 7.276e-05  t[s]:    203.90
	FillingsUpdate:  mu: -0.130471782  nElectrons: 9.000000
SCF: Cycle: 567   F: -28.314506656993160   dF: -1.497e-08   |Residual|: 1.323e-05   |deigs|: 5.898e-05  t[s]:    204.29
	FillingsUpdate:  mu: -0.130478913  nElectrons: 9.000000
SCF: Cycle: 568   F: -28.314506714135437   dF: -5.714e-08   |Residual|: 2.388e-05   |deigs|: 3.726e-05  t[s]:    204.67
	FillingsUpdate:  mu: -0.130473086  nElectrons: 9.000000
SCF: Cycle: 569   F: -28.314506700841527   dF: +1.329e-08   |Residual|: 2.163e-05   |deigs|: 6.528e-05  t[s]:    205.01
	FillingsUpdate:  mu: -0.130465234  nElectrons: 9.000000
SCF: Cycle: 570   F: -28.314506678556342   dF: +2.229e-08   |Residual|: 2.133e-05   |deigs|: 2.831e-05  t[s]:    205.40
	FillingsUpdate:  mu: -0.130469748  nElectrons: 9.000000
SCF: Cycle: 571   F: -28.314506725583655   dF: -4.703e-08   |Residual|: 1.700e-05   |deigs|: 3.351e-05  t[s]:    205.72
	FillingsUpdate:  mu: -0.130482930  nElectrons: 9.000000
SCF: Cycle: 572   F: -28.314506741686095   dF: -1.610e-08   |Residual|: 2.145e-05   |deigs|: 3.785e-05  t[s]:    206.05
	FillingsUpdate:  mu: -0.130487978  nElectrons: 9.000000
SCF: Cycle: 573   F: -28.314506740241178   dF: +1.445e-09   |Residual|: 3.456e-05   |deigs|: 2.709e-05  t[s]:    206.38
	FillingsUpdate:  mu: -0.130489599  nElectrons: 9.000000
SCF: Cycle: 574   F: -28.314506685833457   dF: +5.441e-08   |Residual|: 7.991e-06   |deigs|: 8.863e-05  t[s]:    206.78
	FillingsUpdate:  mu: -0.130500148  nElectrons: 9.000000
SCF: Cycle: 575   F: -28.314506664021533   dF: +2.181e-08   |Residual|: 4.679e-06   |deigs|: 3.710e-05  t[s]:    207.10
	FillingsUpdate:  mu: -0.130499202  nElectrons: 9.000000
SCF: Cycle: 576   F: -28.314506692135826   dF: -2.811e-08   |Residual|: 5.236e-06   |deigs|: 2.525e-05  t[s]:    207.43
	FillingsUpdate:  mu: -0.130491666  nElectrons: 9.000000
SCF: Cycle: 577   F: -28.314506701130611   dF: -8.995e-09   |Residual|: 7.797e-06   |deigs|: 3.309e-05  t[s]:    207.76
	FillingsUpdate:  mu: -0.130491617  nElectrons: 9.000000
SCF: Cycle: 578   F: -28.314506693763729   dF: +7.367e-09   |Residual|: 1.229e-05   |deigs|: 2.661e-05  t[s]:    208.09
	FillingsUpdate:  mu: -0.130496039  nElectrons: 9.000000
SCF: Cycle: 579   F: -28.314506684111358   dF: +9.652e-09   |Residual|: 5.688e-06   |deigs|: 2.593e-05  t[s]:    208.49
	FillingsUpdate:  mu: -0.130495492  nElectrons: 9.000000
SCF: Cycle: 580   F: -28.314506683814756   dF: +2.966e-10   |Residual|: 4.994e-06   |deigs|: 1.796e-05  t[s]:    208.81
	FillingsUpdate:  mu: -0.130494702  nElectrons: 9.000000
SCF: Cycle: 581   F: -28.314506698860011   dF: -1.505e-08   |Residual|: 1.087e-05   |deigs|: 1.954e-05  t[s]:    209.20
	FillingsUpdate:  mu: -0.130503322  nElectrons: 9.000000
SCF: Cycle: 582   F: -28.314506707963783   dF: -9.104e-09   |Residual|: 2.004e-05   |deigs|: 3.874e-05  t[s]:    209.53
	FillingsUpdate:  mu: -0.130509034  nElectrons: 9.000000
SCF: Cycle: 583   F: -28.314506674996863   dF: +3.297e-08   |Residual|: 3.032e-05   |deigs|: 2.887e-05  t[s]:    209.92
	FillingsUpdate:  mu: -0.130486496  nElectrons: 9.000000
SCF: Cycle: 584   F: -28.314506696166305   dF: -2.117e-08   |Residual|: 4.789e-06   |deigs|: 5.679e-05  t[s]:    210.25
	FillingsUpdate:  mu: -0.130501424  nElectrons: 9.000000
SCF: Cycle: 585   F: -28.314506731648006   dF: -3.548e-08   |Residual|: 1.073e-05   |deigs|: 3.881e-05  t[s]:    210.58
	FillingsUpdate:  mu: -0.130507186  nElectrons: 9.000000
SCF: Cycle: 586   F: -28.314506715498883   dF: +1.615e-08   |Residual|: 1.551e-05   |deigs|: 2.201e-05  t[s]:    210.91
	FillingsUpdate:  mu: -0.130503886  nElectrons: 9.000000
SCF: Cycle: 587   F: -28.314506684069279   dF: +3.143e-08   |Residual|: 1.508e-05   |deigs|: 3.595e-05  t[s]:    211.25
	FillingsUpdate:  mu: -0.130505804  nElectrons: 9.000000
SCF: Cycle: 588   F: -28.314506688463872   dF: -4.395e-09   |Residual|: 1.125e-05   |deigs|: 4.611e-05  t[s]:    211.57
	FillingsUpdate:  mu: -0.130502340  nElectrons: 9.000000
SCF: Cycle: 589   F: -28.314506680620628   dF: +7.843e-09   |Residual|: 9.551e-06   |deigs|: 4.434e-05  t[s]:    211.96
	FillingsUpdate:  mu: -0.130494690  nElectrons: 9.000000
SCF: Cycle: 590   F: -28.314506695491108   dF: -1.487e-08   |Residual|: 2.935e-06   |deigs|: 3.043e-05  t[s]:    212.29
	FillingsUpdate:  mu: -0.130498356  nElectrons: 9.000000
SCF: Cycle: 591   F: -28.314506704607300   dF: -9.116e-09   |Residual|: 1.886e-05   |deigs|: 6.479e-05  t[s]:    212.66
	FillingsUpdate:  mu: -0.130495086  nElectrons: 9.000000
SCF: Cycle: 592   F: -28.314506695061141   dF: +9.546e-09   |Residual|: 1.461e-05   |deigs|: 4.616e-05  t[s]:    212.99
	FillingsUpdate:  mu: -0.130492752  nElectrons: 9.000000
SCF: Cycle: 593   F: -28.314506707821852   dF: -1.276e-08   |Residual|: 1.873e-05   |deigs|: 5.448e-05  t[s]:    213.39
	FillingsUpdate:  mu: -0.130488505  nElectrons: 9.000000
SCF: Cycle: 594   F: -28.314506716297014   dF: -8.475e-09   |Residual|: 1.999e-05   |deigs|: 2.666e-05  t[s]:    213.77
	FillingsUpdate:  mu: -0.130465165  nElectrons: 9.000000
SCF: Cycle: 595   F: -28.314506675071847   dF: +4.123e-08   |Residual|: 2.740e-05   |deigs|: 9.168e-05  t[s]:    214.16
	FillingsUpdate:  mu: -0.130480991  nElectrons: 9.000000
SCF: Cycle: 596   F: -28.314506735737488   dF: -6.067e-08   |Residual|: 2.389e-05   |deigs|: 7.110e-05  t[s]:    214.54
	FillingsUpdate:  mu: -0.130463385  nElectrons: 9.000000
SCF: Cycle: 597   F: -28.314506702745415   dF: +3.299e-08   |Residual|: 2.551e-05   |deigs|: 4.987e-05  t[s]:    214.87
	FillingsUpdate:  mu: -0.130478466  nElectrons: 9.000000
SCF: Cycle: 598   F: -28.314506724201401   dF: -2.146e-08   |Residual|: 1.817e-05   |deigs|: 5.009e-05  t[s]:    215.20
	FillingsUpdate:  mu: -0.130478927  nElectrons: 9.000000
SCF: Cycle: 599   F: -28.314506704311018   dF: +1.989e-08   |Residual|: 2.675e-05   |deigs|: 2.830e-05  t[s]:    215.53
	FillingsUpdate:  mu: -0.130482147  nElectrons: 9.000000
SCF: Cycle: 600   F: -28.314506714887603   dF: -1.058e-08   |Residual|: 1.296e-05   |deigs|: 4.147e-05  t[s]:    215.92
	FillingsUpdate:  mu: -0.130476630  nElectrons: 9.000000
SCF: Cycle: 601   F: -28.314506736583638   dF: -2.170e-08   |Residual|: 1.153e-05   |deigs|: 3.923e-05  t[s]:    216.31
	FillingsUpdate:  mu: -0.130479041  nElectrons: 9.000000
SCF: Cycle: 602   F: -28.314506744637047   dF: -8.053e-09   |Residual|: 1.318e-05   |deigs|: 2.712e-05  t[s]:    216.63
	FillingsUpdate:  mu: -0.130474414  nElectrons: 9.000000
SCF: Cycle: 603   F: -28.314506737002350   dF: +7.635e-09   |Residual|: 1.682e-05   |deigs|: 1.950e-05  t[s]:    216.96
	FillingsUpdate:  mu: -0.130490850  nElectrons: 9.000000
SCF: Cycle: 604   F: -28.314506712910198   dF: +2.409e-08   |Residual|: 3.369e-05   |deigs|: 3.290e-05  t[s]:    217.35
	FillingsUpdate:  mu: -0.130482882  nElectrons: 9.000000
SCF: Cycle: 605   F: -28.314506722068632   dF: -9.158e-09   |Residual|: 1.352e-05   |deigs|: 3.472e-05  t[s]:    217.68
	FillingsUpdate:  mu: -0.130492525  nElectrons: 9.000000
SCF: Cycle: 606   F: -28.314506541360188   dF: +1.807e-07   |Residual|: 3.329e-05   |deigs|: 8.629e-05  t[s]:    218.07
	FillingsUpdate:  mu: -0.130484281  nElectrons: 9.000000
SCF: Cycle: 607   F: -28.314506540828180   dF: +5.320e-10   |Residual|: 3.162e-05   |deigs|: 1.198e-04  t[s]:    218.44
	FillingsUpdate:  mu: -0.130491167  nElectrons: 9.000000
SCF: Cycle: 608   F: -28.314506545446392   dF: -4.618e-09   |Residual|: 3.012e-05   |deigs|: 3.997e-05  t[s]:    218.84
	FillingsUpdate:  mu: -0.130495520  nElectrons: 9.000000
SCF: Cycle: 609   F: -28.314506621400014   dF: -7.595e-08   |Residual|: 3.512e-05   |deigs|: 4.699e-05  t[s]:    219.23
	FillingsUpdate:  mu: -0.130476708  nElectrons: 9.000000
SCF: Cycle: 610   F: -28.314506708008512   dF: -8.661e-08   |Residual|: 1.605e-05   |deigs|: 4.848e-05  t[s]:    219.56
	FillingsUpdate:  mu: -0.130449104  nElectrons: 9.000000
SCF: Cycle: 611   F: -28.314506629744578   dF: +7.826e-08   |Residual|: 7.187e-05   |deigs|: 9.999e-05  t[s]:    219.89
	FillingsUpdate:  mu: -0.130455278  nElectrons: 9.000000
SCF: Cycle: 612   F: -28.314506636142216   dF: -6.398e-09   |Residual|: 5.523e-05   |deigs|: 4.181e-05  t[s]:    220.22
	FillingsUpdate:  mu: -0.130474690  nElectrons: 9.000000
SCF: Cycle: 613   F: -28.314506622604366   dF: +1.354e-08   |Residual|: 3.539e-05   |deigs|: 4.341e-05  t[s]:    220.61
	FillingsUpdate:  mu: -0.130474148  nElectrons: 9.000000
SCF: Cycle: 614   F: -28.314506646571431   dF: -2.397e-08   |Residual|: 2.537e-05   |deigs|: 5.960e-05  t[s]:    221.00
	FillingsUpdate:  mu: -0.130480673  nElectrons: 9.000000
SCF: Cycle: 615   F: -28.314506692618512   dF: -4.605e-08   |Residual|: 2.007e-05   |deigs|: 4.746e-05  t[s]:    221.33
	FillingsUpdate:  mu: -0.130486014  nElectrons: 9.000000
SCF: Cycle: 616   F: -28.314506621769961   dF: +7.085e-08   |Residual|: 2.782e-05   |deigs|: 6.378e-05  t[s]:    221.66
	FillingsUpdate:  mu: -0.130481497  nElectrons: 9.000000
SCF: Cycle: 617   F: -28.314506582963375   dF: +3.881e-08   |Residual|: 4.195e-05   |deigs|: 7.138e-05  t[s]:    222.05
	FillingsUpdate:  mu: -0.130506661  nElectrons: 9.000000
SCF: Cycle: 618   F: -28.314506419749922   dF: +1.632e-07   |Residual|: 4.299e-05   |deigs|: 1.284e-04  t[s]:    222.45
	FillingsUpdate:  mu: -0.130513801  nElectrons: 9.000000
SCF: Cycle: 619   F: -28.314506431523558   dF: -1.177e-08   |Residual|: 1.032e-05   |deigs|: 1.050e-04  t[s]:    222.78
	FillingsUpdate:  mu: -0.130490954  nElectrons: 9.000000
SCF: Cycle: 620   F: -28.314506695936277   dF: -2.644e-07   |Residual|: 4.070e-05   |deigs|: 1.450e-04  t[s]:    223.17
	FillingsUpdate:  mu: -0.130501680  nElectrons: 9.000000
SCF: Cycle: 621   F: -28.314506584236344   dF: +1.117e-07   |Residual|: 4.786e-06   |deigs|: 9.998e-05  t[s]:    223.50
	FillingsUpdate:  mu: -0.130494330  nElectrons: 9.000000
SCF: Cycle: 622   F: -28.314506599685423   dF: -1.545e-08   |Residual|: 1.318e-05   |deigs|: 4.911e-05  t[s]:    223.83
	FillingsUpdate:  mu: -0.130491238  nElectrons: 9.000000
SCF: Cycle: 623   F: -28.314506607492142   dF: -7.807e-09   |Residual|: 1.325e-05   |deigs|: 3.534e-05  t[s]:    224.15
	FillingsUpdate:  mu: -0.130466831  nElectrons: 9.000000
SCF: Cycle: 624   F: -28.314506686868175   dF: -7.938e-08   |Residual|: 2.746e-05   |deigs|: 9.907e-05  t[s]:    224.54
	FillingsUpdate:  mu: -0.130479848  nElectrons: 9.000000
SCF: Cycle: 625   F: -28.314506680513784   dF: +6.354e-09   |Residual|: 1.642e-05   |deigs|: 3.589e-05  t[s]:    224.87
	FillingsUpdate:  mu: -0.130492106  nElectrons: 9.000000
SCF: Cycle: 626   F: -28.314506665813717   dF: +1.470e-08   |Residual|: 8.549e-06   |deigs|: 4.075e-05  t[s]:    225.26
	FillingsUpdate:  mu: -0.130480626  nElectrons: 9.000000
SCF: Cycle: 627   F: -28.314506590762701   dF: +7.505e-08   |Residual|: 2.211e-05   |deigs|: 4.304e-05  t[s]:    225.58
	FillingsUpdate:  mu: -0.130497829  nElectrons: 9.000000
SCF: Cycle: 628   F: -28.314506607298991   dF: -1.654e-08   |Residual|: 8.242e-06   |deigs|: 2.699e-05  t[s]:    225.91
	FillingsUpdate:  mu: -0.130479044  nElectrons: 9.000000
SCF: Cycle: 629   F: -28.314506557627762   dF: +4.967e-08   |Residual|: 3.748e-05   |deigs|: 5.140e-05  t[s]:    226.29
	FillingsUpdate:  mu: -0.130487160  nElectrons: 9.000000
SCF: Cycle: 630   F: -28.314506628151410   dF: -7.052e-08   |Residual|: 2.730e-05   |deigs|: 4.205e-05  t[s]:    226.62
	FillingsUpdate:  mu: -0.130487801  nElectrons: 9.000000
SCF: Cycle: 631   F: -28.314506707413457   dF: -7.926e-08   |Residual|: 1.258e-05   |deigs|: 3.994e-05  t[s]:    226.95
	FillingsUpdate:  mu: -0.130495510  nElectrons: 9.000000
SCF: Cycle: 632   F: -28.314506702047410   dF: +5.366e-09   |Residual|: 1.140e-05   |deigs|: 2.577e-05  t[s]:    227.28
	FillingsUpdate:  mu: -0.130482475  nElectrons: 9.000000
SCF: Cycle: 633   F: -28.314506701237306   dF: +8.101e-10   |Residual|: 1.490e-05   |deigs|: 2.827e-05  t[s]:    227.66
	FillingsUpdate:  mu: -0.130487667  nElectrons: 9.000000
SCF: Cycle: 634   F: -28.314506714766143   dF: -1.353e-08   |Residual|: 1.883e-05   |deigs|: 2.946e-05  t[s]:    228.06
	FillingsUpdate:  mu: -0.130478649  nElectrons: 9.000000
SCF: Cycle: 635   F: -28.314506735711813   dF: -2.095e-08   |Residual|: 1.771e-05   |deigs|: 3.224e-05  t[s]:    228.39
	FillingsUpdate:  mu: -0.130481069  nElectrons: 9.000000
SCF: Cycle: 636   F: -28.314506708738790   dF: +2.697e-08   |Residual|: 8.957e-06   |deigs|: 5.512e-05  t[s]:    228.71
	FillingsUpdate:  mu: -0.130485430  nElectrons: 9.000000
SCF: Cycle: 637   F: -28.314506705182829   dF: +3.556e-09   |Residual|: 7.636e-06   |deigs|: 1.395e-05  t[s]:    229.04
	FillingsUpdate:  mu: -0.130490599  nElectrons: 9.000000
SCF: Cycle: 638   F: -28.314506711135714   dF: -5.953e-09   |Residual|: 9.805e-06   |deigs|: 4.389e-05  t[s]:    229.43
	FillingsUpdate:  mu: -0.130489708  nElectrons: 9.000000
SCF: Cycle: 639   F: -28.314506707454658   dF: +3.681e-09   |Residual|: 1.050e-05   |deigs|: 3.152e-05  t[s]:    229.75
	FillingsUpdate:  mu: -0.130488914  nElectrons: 9.000000
SCF: Cycle: 640   F: -28.314506704583671   dF: +2.871e-09   |Residual|: 1.234e-05   |deigs|: 2.279e-05  t[s]:    230.09
	FillingsUpdate:  mu: -0.130499531  nElectrons: 9.000000
SCF: Cycle: 641   F: -28.314506718138848   dF: -1.356e-08   |Residual|: 9.371e-06   |deigs|: 2.629e-05  t[s]:    230.47
	FillingsUpdate:  mu: -0.130494326  nElectrons: 9.000000
SCF: Cycle: 642   F: -28.314506716550298   dF: +1.589e-09   |Residual|: 1.925e-05   |deigs|: 4.890e-05  t[s]:    230.87
	FillingsUpdate:  mu: -0.130489564  nElectrons: 9.000000
SCF: Cycle: 643   F: -28.314506721088073   dF: -4.538e-09   |Residual|: 1.917e-05   |deigs|: 1.785e-05  t[s]:    231.25
	FillingsUpdate:  mu: -0.130486922  nElectrons: 9.000000
SCF: Cycle: 644   F: -28.314506715435481   dF: +5.653e-09   |Residual|: 2.137e-05   |deigs|: 2.949e-05  t[s]:    231.66
	FillingsUpdate:  mu: -0.130492332  nElectrons: 9.000000
SCF: Cycle: 645   F: -28.314506686693331   dF: +2.874e-08   |Residual|: 1.566e-05   |deigs|: 3.789e-05  t[s]:    232.04
	FillingsUpdate:  mu: -0.130491262  nElectrons: 9.000000
SCF: Cycle: 646   F: -28.314506714776282   dF: -2.808e-08   |Residual|: 1.731e-05   |deigs|: 3.081e-05  t[s]:    232.38
	FillingsUpdate:  mu: -0.130493549  nElectrons: 9.000000
SCF: Cycle: 647   F: -28.314506724982554   dF: -1.021e-08   |Residual|: 2.532e-05   |deigs|: 1.680e-05  t[s]:    232.70
	FillingsUpdate:  mu: -0.130489502  nElectrons: 9.000000
SCF: Cycle: 648   F: -28.314506733594222   dF: -8.612e-09   |Residual|: 3.442e-05   |deigs|: 3.756e-05  t[s]:    233.08
	FillingsUpdate:  mu: -0.130478608  nElectrons: 9.000000
SCF: Cycle: 649   F: -28.314506715960960   dF: +1.763e-08   |Residual|: 1.115e-05   |deigs|: 3.995e-05  t[s]:    233.47
	FillingsUpdate:  mu: -0.130474760  nElectrons: 9.000000
SCF: Cycle: 650   F: -28.314506707884966   dF: +8.076e-09   |Residual|: 1.391e-05   |deigs|: 3.003e-05  t[s]:    233.85
	FillingsUpdate:  mu: -0.130473091  nElectrons: 9.000000
SCF: Cycle: 651   F: -28.314506705680479   dF: +2.204e-09   |Residual|: 2.169e-05   |deigs|: 2.280e-05  t[s]:    234.18
	FillingsUpdate:  mu: -0.130486826  nElectrons: 9.000000
SCF: Cycle: 652   F: -28.314506731254525   dF: -2.557e-08   |Residual|: 1.876e-05   |deigs|: 4.723e-05  t[s]:    234.57
	FillingsUpdate:  mu: -0.130482432  nElectrons: 9.000000
SCF: Cycle: 653   F: -28.314506718195659   dF: +1.306e-08   |Residual|: 1.410e-05   |deigs|: 1.332e-05  t[s]:    234.90
	FillingsUpdate:  mu: -0.130486448  nElectrons: 9.000000
SCF: Cycle: 654   F: -28.314506721960161   dF: -3.765e-09   |Residual|: 1.287e-05   |deigs|: 2.529e-05  t[s]:    235.22
	FillingsUpdate:  mu: -0.130496492  nElectrons: 9.000000
SCF: Cycle: 655   F: -28.314506734211754   dF: -1.225e-08   |Residual|: 2.376e-05   |deigs|: 1.478e-05  t[s]:    235.55
	FillingsUpdate:  mu: -0.130495289  nElectrons: 9.000000
SCF: Cycle: 656   F: -28.314506730352569   dF: +3.859e-09   |Residual|: 2.522e-05   |deigs|: 1.690e-05  t[s]:    235.89
	FillingsUpdate:  mu: -0.130493761  nElectrons: 9.000000
SCF: Cycle: 657   F: -28.314506727520303   dF: +2.832e-09   |Residual|: 2.951e-05   |deigs|: 2.433e-05  t[s]:    236.22
	FillingsUpdate:  mu: -0.130489131  nElectrons: 9.000000
SCF: Cycle: 658   F: -28.314506681857846   dF: +4.566e-08   |Residual|: 3.648e-05   |deigs|: 6.033e-05  t[s]:    236.62
	FillingsUpdate:  mu: -0.130483446  nElectrons: 9.000000
SCF: Cycle: 659   F: -28.314506724862209   dF: -4.300e-08   |Residual|: 2.684e-05   |deigs|: 5.318e-05  t[s]:    236.95
	FillingsUpdate:  mu: -0.130485090  nElectrons: 9.000000
SCF: Cycle: 660   F: -28.314506729223005   dF: -4.361e-09   |Residual|: 2.385e-05   |deigs|: 3.048e-05  t[s]:    237.28
	FillingsUpdate:  mu: -0.130484893  nElectrons: 9.000000
SCF: Cycle: 661   F: -28.314506732474452   dF: -3.251e-09   |Residual|: 2.132e-05   |deigs|: 2.796e-05  t[s]:    237.61
SCF: Converged (|Delta E|<1.000000e-08 for 2 iters).


# Ionic positions in lattice coordinates:
ion K   0.000000000000000   0.000000000000000   0.000000000000000 0

# Forces in Lattice coordinates:
force K   0.000000000000000  -0.000000000000000   0.000000000000000 0

# Energy components:
   Eewald =      -32.8145929096957545
       EH =      -10.7057276181508261
     Eloc =       12.1904963266569979
      Enl =       -2.8242897299085925
   Epulay =       -0.0000000150514273
      Exc =       -4.3839094927429567
       KE =       10.2369641548738564
-------------------------------------
     Etot =      -28.3010592840187023
       TS =        0.0134474484557496
-------------------------------------
        F =      -28.3145067324744524

IonicMinimize: Iter:   0  F: -28.314506732474452  |grad|_K:  0.000e+00  t[s]:    237.64
IonicMinimize: Converged (|grad|_K<1.000000e-04).

#--- Lowdin population analysis ---
# oxidation-state K +0.468

End date and time: Sun Jan 16 14:54:01 2022  (Duration: 0-0:03:57.64)
Done!
