2.9
--------------------------------------------------------------------------
The library attempted to open the following supporting CUDA libraries,
but each of them failed.  CUDA-aware support is disabled.
libcuda.so.1: cannot open shared object file: No such file or directory
libcuda.dylib: cannot open shared object file: No such file or directory
/usr/lib64/libcuda.so.1: cannot open shared object file: No such file or directory
/usr/lib64/libcuda.dylib: cannot open shared object file: No such file or directory
If you are not interested in CUDA-aware support, then run with
--mca opal_warn_on_missing_libcuda 0 to suppress this message.  If you are interested
in CUDA-aware support, then try setting LD_LIBRARY_PATH to the location
of libcuda.so.1 to get passed this issue.
--------------------------------------------------------------------------
--------------------------------------------------------------------------
No OpenFabrics connection schemes reported that they were able to be
used on a specific port.  As such, the openib BTL (OpenFabrics
support) will be disabled for this port.

  Local host:           d-5-3-1
  Local device:         mlx5_1
  Local port:           1
  CPCs attempted:       rdmacm, udcm
--------------------------------------------------------------------------

*************** JDFTx 1.6.0 (git hash 42ebbcc2) ***************

Start date and time: Sun Jan 16 14:52:53 2022
Executable jdftx with command-line: -i Potassium.in
Running on hosts (process indices):  d-5-3-1 (0-18)
Divided in process groups (process indices):  0 (0)  1 (1)  2 (2)  3 (3)  4 (4)  5 (5)  6 (6)  7 (7)  8 (8)  9 (9)  10 (10)  11 (11)  12 (12)  13 (13)  14 (14)  15 (15)  16 (16)  17 (17)  18 (18)
Resource initialization completed at t[s]:      0.00
Run totals: 19 processes, 48 threads, 0 GPUs


Input parsed successfully to the following command list (including defaults):

basis kpoint-dependent
coords-type Lattice
core-overlap-check vector
coulomb-interaction Slab 001
davidson-band-ratio 1.1
dump End None
dump-name $INPUT.$VAR
elec-cutoff 20
elec-eigen-algo Davidson
elec-ex-corr gga-PBE
elec-smearing Fermi 0.01
electronic-minimize  \
	dirUpdateScheme      FletcherReeves \
	linminMethod         DirUpdateRecommended \
	nIterations          100 \
	history              15 \
	knormThreshold       0 \
	energyDiffThreshold  1e-08 \
	nEnergyDiff          2 \
	alphaTstart          1 \
	alphaTmin            1e-10 \
	updateTestStepSize   yes \
	alphaTreduceFactor   0.1 \
	alphaTincreaseFactor 3 \
	nAlphaAdjustMax      3 \
	wolfeEnergy          0.0001 \
	wolfeGradient        0.9 \
	fdTest               no
electronic-scf  \
	nIterations	10000 \
	energyDiffThreshold	1e-08 \
	residualThreshold	1e-07 \
	mixFraction	0.5 \
	qMetric	0.8 \
	history	10 \
	nEigSteps	2 \
	eigDiffThreshold	1e-08 \
	mixedVariable	Density \
	qKerker	0.8 \
	qKappa	-1 \
	verbose	no \
	mixFractionMag	1.5
exchange-regularization WignerSeitzTruncated
fluid None
fluid-ex-corr (null) lda-PZ
fluid-gummel-loop 10 1.000000e-05
fluid-minimize  \
	dirUpdateScheme      PolakRibiere \
	linminMethod         DirUpdateRecommended \
	nIterations          100 \
	history              15 \
	knormThreshold       0 \
	energyDiffThreshold  0 \
	nEnergyDiff          2 \
	alphaTstart          1 \
	alphaTmin            1e-10 \
	updateTestStepSize   yes \
	alphaTreduceFactor   0.1 \
	alphaTincreaseFactor 3 \
	nAlphaAdjustMax      3 \
	wolfeEnergy          0.0001 \
	wolfeGradient        0.9 \
	fdTest               no
fluid-solvent H2O 55.338 ScalarEOS \
	epsBulk 78.4 \
	pMol 0.92466 \
	epsInf 1.77 \
	Pvap 1.06736e-10 \
	sigmaBulk 4.62e-05 \
	Rvdw 2.61727 \
	Res 1.42 \
	tauNuc 343133 \
	poleEl 15 7 1
forces-output-coords Positions
ion K   0.000000000000000   0.000000000000000   0.000000000000000 0
ion-species SG15/$ID_ONCV_PBE.upf
ion-width 0
ionic-minimize  \
	dirUpdateScheme      L-BFGS \
	linminMethod         DirUpdateRecommended \
	nIterations          0 \
	history              15 \
	knormThreshold       0.0001 \
	energyDiffThreshold  1e-06 \
	nEnergyDiff          2 \
	alphaTstart          1 \
	alphaTmin            1e-10 \
	updateTestStepSize   yes \
	alphaTreduceFactor   0.1 \
	alphaTincreaseFactor 3 \
	nAlphaAdjustMax      3 \
	wolfeEnergy          0.0001 \
	wolfeGradient        0.9 \
	fdTest               no
kpoint   0.000000000000   0.000000000000   0.000000000000  1.00000000000000
kpoint-folding 12 12 1 
latt-move-scale 1 1 1
latt-scale 2.9 2.9 1 
lattice  \
	   4.727486978767153   -2.363743489383575    0.000000000000000  \
	  -0.000000000000000    4.094123819672498    0.000000000000000  \
	   0.000000000000000    0.000000000000000   40.000000000000000 
lattice-minimize  \
	dirUpdateScheme      L-BFGS \
	linminMethod         DirUpdateRecommended \
	nIterations          0 \
	history              15 \
	knormThreshold       0 \
	energyDiffThreshold  1e-06 \
	nEnergyDiff          2 \
	alphaTstart          1 \
	alphaTmin            1e-10 \
	updateTestStepSize   yes \
	alphaTreduceFactor   0.1 \
	alphaTincreaseFactor 3 \
	nAlphaAdjustMax      3 \
	wolfeEnergy          0.0001 \
	wolfeGradient        0.9 \
	fdTest               no
lcao-params -1 1e-06 0.01
pcm-variant GLSSA13
spintype no-spin
subspace-rotation-factor 1 yes
symmetries automatic
symmetry-threshold 0.0001



---------- Setting up symmetries ----------

Found 24 point-group symmetries of the bravais lattice
Found 24 space-group symmetries with basis
Applied RMS atom displacement 0 bohrs to make symmetries exact.

---------- Initializing the Grid ----------
R = 
[      13.7097     -6.85486            0  ]
[            0       11.873            0  ]
[            0            0           40  ]
unit cell volume = 6510.99
G =
[   0.458302   0.264601         -0  ]
[          0   0.529201         -0  ]
[         -0         -0    0.15708  ]
Minimum fftbox size, Smin = [  56  56  164  ]
Chosen fftbox size, S = [  56  56  168  ]

---------- Exchange Correlation functional ----------
Initalized PBE GGA exchange.
Initalized PBE GGA correlation.

---------- Setting up pseudopotentials ----------
Width of ionic core gaussian charges (only for fluid interactions / plotting) set to 0

Reading pseudopotential file '/home/gridsan/aligho/DFT/build-Nov24/pseudopotentials/SG15/K_ONCV_PBE.upf':
  'K' pseudopotential, 'PBE' functional
  Generated using ONCVPSP code by D. R. Hamann
  Author: Martin Schlipf and Francois Gygi  Date: 150915.
  9 valence electrons, 3 orbitals, 6 projectors, 2222 radial grid points, with lMax = 2
  Transforming local potential to a uniform radial grid of dG=0.02 with 1448 points.
  Transforming nonlocal projectors to a uniform radial grid of dG=0.02 with 432 points.
    3S    l: 0   occupation:  2.0   eigenvalue: -1.298836
    3P    l: 1   occupation:  6.0   eigenvalue: -0.691386
    4S    l: 0   occupation:  1.0   eigenvalue: -0.085223
  Transforming atomic orbitals to a uniform radial grid of dG=0.02 with 432 points.
  Core radius for overlap checks: 2.06 bohrs.
  Reading pulay file /home/gridsan/aligho/DFT/build-Nov24/pseudopotentials/SG15/K_ONCV_PBE.pulay ... using dE_dnG = -1.597219e-05 computed for Ecut = 20.

Initialized 1 species with 1 total atoms.

Folded 1 k-points by 12x12x1 to 144 k-points.

---------- Setting up k-points, bands, fillings ----------
Reduced to 19 k-points under symmetry. 
Computing the number of bands and number of electrons
Calculating initial fillings.
nElectrons:   9.000000   nBands: 6   nStates: 19

----- Setting up reduced wavefunction bases (one per k-point) -----
average nbasis = 27813.271 , ideal nbasis = 27815.463

---------- Setting up coulomb interaction ----------
Initialized slab truncation along lattice direction 001

---------- Setting up 2D ewald sum ----------
Optimum gaussian width for ewald sums = 7.611079 bohr.
Real space sums over 289 unit cells with max indices [  8  8  0  ]
Reciprocal space sums over 81 terms with max indices [  4  4  0  ]

---------- Allocating electronic variables ----------
Initializing wave functions:  linear combination of atomic orbitals
Note: number of bands (6) exceeds available atomic orbitals (5)
K pseudo-atom occupations:   s ( 2 1 )  p ( 6 )
	FillingsUpdate:  mu: -0.087193638  nElectrons: 9.000000
LCAOMinimize: Iter:   0  F: -28.3922595639014475  |grad|_K:  1.753e-05  alpha:  1.000e+00
	FillingsUpdate:  mu: -0.087200314  nElectrons: 9.000000
LCAOMinimize: Iter:   1  F: -28.3922596705502812  |grad|_K:  6.508e-08  alpha:  1.015e+00  linmin: -2.260e-02  cgtest:  4.162e-01  t[s]:      4.41
LCAOMinimize: Encountered beta<0, resetting CG.
[d-5-3-1:48273] 18 more processes have sent help message help-mpi-common-cuda.txt / dlopen failed
[d-5-3-1:48273] Set MCA parameter "orte_base_help_aggregate" to 0 to see all help / error messages
[d-5-3-1:48273] 18 more processes have sent help message help-mpi-btl-openib-cpc-base.txt / no cpcs for port
LCAOMinimize: 	Step increased F by 7.460699e-14, reducing alpha to 5.378346e-02.
	FillingsUpdate:  mu: -0.087200315  nElectrons: 9.000000
LCAOMinimize: Iter:   2  F: -28.3922596705502883  |grad|_K:  6.156e-08  alpha:  5.378e-02  linmin: -3.874e-02  cgtest:  1.000e+00  t[s]:      6.20
LCAOMinimize: Encountered beta<0, resetting CG.
LCAOMinimize: Converged (|Delta F|<1.000000e-06 for 2 iters).


---- Citations for features of the code used in this run ----

   Software package:
      R. Sundararaman, K. Letchworth-Weaver, K.A. Schwarz, D. Gunceler, Y. Ozhabes and T.A. Arias, 'JDFTx: software for joint density-functional theory', SoftwareX 6, 278 (2017)

   gga-PBE exchange-correlation functional:
      J.P. Perdew, K. Burke and M. Ernzerhof, Phys. Rev. Lett. 77, 3865 (1996)

   Pseudopotentials:
      M Schlipf and F Gygi, Comput. Phys. Commun. 196, 36 (2015)

   Truncated Coulomb potentials:
      R. Sundararaman and T.A. Arias, Phys. Rev. B 87, 165122 (2013)

This list may not be complete. Please suggest additional citations or
report any other bugs at https://github.com/shankar1729/jdftx/issues

Initialization completed successfully at t[s]:      6.28


-------- Electronic minimization -----------
Will mix electronic density at each iteration.
	FillingsUpdate:  mu: -0.087200315  nElectrons: 9.000000
	FillingsUpdate:  mu: -0.088946568  nElectrons: 9.000000
SCF: Cycle:  0   F: -28.393948863365253   dF: -1.689e-03   |Residual|: 3.304e-03   |deigs|: 1.739e-01  t[s]:      8.54
	FillingsUpdate:  mu: -0.089434214  nElectrons: 9.000000
SCF: Cycle:  1   F: -28.394078401783272   dF: -1.295e-04   |Residual|: 3.017e-03   |deigs|: 3.908e-03  t[s]:     10.27
	FillingsUpdate:  mu: -0.090888048  nElectrons: 9.000000
SCF: Cycle:  2   F: -28.394180556084663   dF: -1.022e-04   |Residual|: 1.186e-03   |deigs|: 6.281e-03  t[s]:     12.04
	FillingsUpdate:  mu: -0.090662851  nElectrons: 9.000000
SCF: Cycle:  3   F: -28.394227793763903   dF: -4.724e-05   |Residual|: 9.783e-04   |deigs|: 2.615e-03  t[s]:     13.79
	FillingsUpdate:  mu: -0.090902299  nElectrons: 9.000000
SCF: Cycle:  4   F: -28.394248870378640   dF: -2.108e-05   |Residual|: 3.900e-04   |deigs|: 1.581e-03  t[s]:     15.59
	FillingsUpdate:  mu: -0.090862783  nElectrons: 9.000000
SCF: Cycle:  5   F: -28.394253420981926   dF: -4.551e-06   |Residual|: 3.428e-04   |deigs|: 1.215e-04  t[s]:     17.31
	FillingsUpdate:  mu: -0.090661698  nElectrons: 9.000000
SCF: Cycle:  6   F: -28.394257841756140   dF: -4.421e-06   |Residual|: 4.286e-04   |deigs|: 6.286e-04  t[s]:     19.13
	FillingsUpdate:  mu: -0.090633446  nElectrons: 9.000000
SCF: Cycle:  7   F: -28.394264384380126   dF: -6.543e-06   |Residual|: 1.885e-04   |deigs|: 1.504e-03  t[s]:     21.09
	FillingsUpdate:  mu: -0.090510594  nElectrons: 9.000000
SCF: Cycle:  8   F: -28.394270626770822   dF: -6.242e-06   |Residual|: 1.951e-04   |deigs|: 6.887e-04  t[s]:     22.96
	FillingsUpdate:  mu: -0.090483945  nElectrons: 9.000000
SCF: Cycle:  9   F: -28.394272458590478   dF: -1.832e-06   |Residual|: 1.956e-04   |deigs|: 1.215e-04  t[s]:     24.90
	FillingsUpdate:  mu: -0.090108713  nElectrons: 9.000000
SCF: Cycle: 10   F: -28.394273075546892   dF: -6.170e-07   |Residual|: 4.075e-04   |deigs|: 8.113e-04  t[s]:     26.87
	FillingsUpdate:  mu: -0.089987307  nElectrons: 9.000000
SCF: Cycle: 11   F: -28.394273772587564   dF: -6.970e-07   |Residual|: 9.893e-05   |deigs|: 2.926e-04  t[s]:     28.82
	FillingsUpdate:  mu: -0.089750396  nElectrons: 9.000000
SCF: Cycle: 12   F: -28.394274038545877   dF: -2.660e-07   |Residual|: 9.351e-05   |deigs|: 2.085e-04  t[s]:     30.86
	FillingsUpdate:  mu: -0.089642697  nElectrons: 9.000000
SCF: Cycle: 13   F: -28.394274672620522   dF: -6.341e-07   |Residual|: 8.242e-05   |deigs|: 1.328e-04  t[s]:     32.82
	FillingsUpdate:  mu: -0.089545179  nElectrons: 9.000000
SCF: Cycle: 14   F: -28.394275348136059   dF: -6.755e-07   |Residual|: 7.579e-05   |deigs|: 1.215e-04  t[s]:     34.79
	FillingsUpdate:  mu: -0.089446849  nElectrons: 9.000000
SCF: Cycle: 15   F: -28.394275666021880   dF: -3.179e-07   |Residual|: 4.367e-05   |deigs|: 1.262e-04  t[s]:     36.73
	FillingsUpdate:  mu: -0.089445015  nElectrons: 9.000000
SCF: Cycle: 16   F: -28.394275949073901   dF: -2.831e-07   |Residual|: 2.394e-05   |deigs|: 5.470e-05  t[s]:     38.74
	FillingsUpdate:  mu: -0.089459805  nElectrons: 9.000000
SCF: Cycle: 17   F: -28.394276544846658   dF: -5.958e-07   |Residual|: 1.791e-05   |deigs|: 2.291e-04  t[s]:     40.63
	FillingsUpdate:  mu: -0.089480236  nElectrons: 9.000000
SCF: Cycle: 18   F: -28.394278367357220   dF: -1.823e-06   |Residual|: 1.077e-05   |deigs|: 5.330e-04  t[s]:     42.47
	FillingsUpdate:  mu: -0.089475020  nElectrons: 9.000000
SCF: Cycle: 19   F: -28.394279597111890   dF: -1.230e-06   |Residual|: 9.248e-06   |deigs|: 2.247e-04  t[s]:     44.19
	FillingsUpdate:  mu: -0.089493134  nElectrons: 9.000000
SCF: Cycle: 20   F: -28.394280422635585   dF: -8.255e-07   |Residual|: 6.476e-06   |deigs|: 1.639e-04  t[s]:     46.01
	FillingsUpdate:  mu: -0.089496282  nElectrons: 9.000000
SCF: Cycle: 21   F: -28.394281290207129   dF: -8.676e-07   |Residual|: 6.015e-06   |deigs|: 2.336e-04  t[s]:     47.74
	FillingsUpdate:  mu: -0.089539678  nElectrons: 9.000000
SCF: Cycle: 22   F: -28.394282029983199   dF: -7.398e-07   |Residual|: 5.264e-06   |deigs|: 1.845e-04  t[s]:     49.52
	FillingsUpdate:  mu: -0.089516755  nElectrons: 9.000000
SCF: Cycle: 23   F: -28.394282522129025   dF: -4.921e-07   |Residual|: 4.224e-06   |deigs|: 9.814e-05  t[s]:     51.22
	FillingsUpdate:  mu: -0.089526737  nElectrons: 9.000000
SCF: Cycle: 24   F: -28.394282842246607   dF: -3.201e-07   |Residual|: 2.534e-06   |deigs|: 5.548e-05  t[s]:     52.94
	FillingsUpdate:  mu: -0.089532657  nElectrons: 9.000000
SCF: Cycle: 25   F: -28.394283049607758   dF: -2.074e-07   |Residual|: 1.819e-06   |deigs|: 3.038e-05  t[s]:     54.69
	FillingsUpdate:  mu: -0.089535184  nElectrons: 9.000000
SCF: Cycle: 26   F: -28.394283209004325   dF: -1.594e-07   |Residual|: 1.107e-06   |deigs|: 1.994e-05  t[s]:     56.47
	FillingsUpdate:  mu: -0.089535848  nElectrons: 9.000000
SCF: Cycle: 27   F: -28.394283340924702   dF: -1.319e-07   |Residual|: 1.300e-06   |deigs|: 1.647e-05  t[s]:     58.19
	FillingsUpdate:  mu: -0.089538802  nElectrons: 9.000000
SCF: Cycle: 28   F: -28.394283493631121   dF: -1.527e-07   |Residual|: 1.381e-06   |deigs|: 2.308e-05  t[s]:     59.92
	FillingsUpdate:  mu: -0.089538966  nElectrons: 9.000000
SCF: Cycle: 29   F: -28.394283637339313   dF: -1.437e-07   |Residual|: 2.067e-06   |deigs|: 2.302e-05  t[s]:     61.61
	FillingsUpdate:  mu: -0.089536000  nElectrons: 9.000000
SCF: Cycle: 30   F: -28.394283858413974   dF: -2.211e-07   |Residual|: 4.566e-06   |deigs|: 3.938e-05  t[s]:     63.29
	FillingsUpdate:  mu: -0.089536116  nElectrons: 9.000000
SCF: Cycle: 31   F: -28.394284071128041   dF: -2.127e-07   |Residual|: 5.359e-06   |deigs|: 3.717e-05  t[s]:     65.00
	FillingsUpdate:  mu: -0.089536312  nElectrons: 9.000000
SCF: Cycle: 32   F: -28.394284289601995   dF: -2.185e-07   |Residual|: 7.354e-06   |deigs|: 3.822e-05  t[s]:     66.68
	FillingsUpdate:  mu: -0.089534679  nElectrons: 9.000000
SCF: Cycle: 33   F: -28.394284498939303   dF: -2.093e-07   |Residual|: 8.787e-06   |deigs|: 3.619e-05  t[s]:     68.35
	FillingsUpdate:  mu: -0.089535240  nElectrons: 9.000000
SCF: Cycle: 34   F: -28.394284691395406   dF: -1.925e-07   |Residual|: 1.047e-05   |deigs|: 3.271e-05  t[s]:     70.05
	FillingsUpdate:  mu: -0.089537029  nElectrons: 9.000000
SCF: Cycle: 35   F: -28.394284860636755   dF: -1.692e-07   |Residual|: 1.084e-05   |deigs|: 2.838e-05  t[s]:     71.72
	FillingsUpdate:  mu: -0.089534299  nElectrons: 9.000000
SCF: Cycle: 36   F: -28.394285015775274   dF: -1.551e-07   |Residual|: 1.304e-05   |deigs|: 2.519e-05  t[s]:     73.36
	FillingsUpdate:  mu: -0.089533905  nElectrons: 9.000000
SCF: Cycle: 37   F: -28.394285138961184   dF: -1.232e-07   |Residual|: 1.374e-05   |deigs|: 1.945e-05  t[s]:     75.02
	FillingsUpdate:  mu: -0.089534680  nElectrons: 9.000000
SCF: Cycle: 38   F: -28.394285234076921   dF: -9.512e-08   |Residual|: 1.444e-05   |deigs|: 1.493e-05  t[s]:     76.72
	FillingsUpdate:  mu: -0.089534387  nElectrons: 9.000000
SCF: Cycle: 39   F: -28.394285314041795   dF: -7.996e-08   |Residual|: 1.480e-05   |deigs|: 1.237e-05  t[s]:     78.41
	FillingsUpdate:  mu: -0.089533717  nElectrons: 9.000000
SCF: Cycle: 40   F: -28.394285375895709   dF: -6.185e-08   |Residual|: 1.556e-05   |deigs|: 9.497e-06  t[s]:     80.11
	FillingsUpdate:  mu: -0.089533438  nElectrons: 9.000000
SCF: Cycle: 41   F: -28.394285426269668   dF: -5.037e-08   |Residual|: 1.591e-05   |deigs|: 7.647e-06  t[s]:     81.84
	FillingsUpdate:  mu: -0.089533963  nElectrons: 9.000000
SCF: Cycle: 42   F: -28.394285465231469   dF: -3.896e-08   |Residual|: 1.613e-05   |deigs|: 5.959e-06  t[s]:     83.61
	FillingsUpdate:  mu: -0.089533071  nElectrons: 9.000000
SCF: Cycle: 43   F: -28.394285503248774   dF: -3.802e-08   |Residual|: 1.663e-05   |deigs|: 5.727e-06  t[s]:     85.28
	FillingsUpdate:  mu: -0.089543508  nElectrons: 9.000000
SCF: Cycle: 44   F: -28.394285532937417   dF: -2.969e-08   |Residual|: 1.406e-05   |deigs|: 1.351e-05  t[s]:     87.06
	FillingsUpdate:  mu: -0.089535489  nElectrons: 9.000000
SCF: Cycle: 45   F: -28.394285550130551   dF: -1.719e-08   |Residual|: 1.658e-05   |deigs|: 1.013e-05  t[s]:     88.83
	FillingsUpdate:  mu: -0.089547789  nElectrons: 9.000000
SCF: Cycle: 46   F: -28.394285564579523   dF: -1.445e-08   |Residual|: 1.276e-05   |deigs|: 1.519e-05  t[s]:     90.72
	FillingsUpdate:  mu: -0.089544695  nElectrons: 9.000000
SCF: Cycle: 47   F: -28.394285582183464   dF: -1.760e-08   |Residual|: 1.378e-05   |deigs|: 4.327e-06  t[s]:     92.46
	FillingsUpdate:  mu: -0.089555928  nElectrons: 9.000000
SCF: Cycle: 48   F: -28.394285596015923   dF: -1.383e-08   |Residual|: 1.043e-05   |deigs|: 1.399e-05  t[s]:     94.29
	FillingsUpdate:  mu: -0.089539729  nElectrons: 9.000000
SCF: Cycle: 49   F: -28.394285604984887   dF: -8.969e-09   |Residual|: 1.579e-05   |deigs|: 2.027e-05  t[s]:     96.16
	FillingsUpdate:  mu: -0.089558463  nElectrons: 9.000000
SCF: Cycle: 50   F: -28.394285614426074   dF: -9.441e-09   |Residual|: 1.087e-05   |deigs|: 2.309e-05  t[s]:     98.06
SCF: Converged (|Delta E|<1.000000e-08 for 2 iters).


# Ionic positions in lattice coordinates:
ion K   0.000000000000000   0.000000000000000   0.000000000000000 0

# Forces in Lattice coordinates:
force K   0.000000000000000  -0.000000000000000   0.000000000000000 0

# Energy components:
   Eewald =      -12.4469145519535633
       EH =       10.3055352990417344
     Eloc =      -29.0867010840520273
      Enl =       -2.7718125674925633
   Epulay =       -0.0000000053775205
      Exc =       -4.2381235675958226
       KE =        9.8572861484520367
-------------------------------------
     Etot =      -28.3807303289777231
       TS =        0.0135552854483518
-------------------------------------
        F =      -28.3942856144260745

IonicMinimize: Iter:   0  F: -28.394285614426074  |grad|_K:  0.000e+00  t[s]:     98.21
IonicMinimize: Converged (|grad|_K<1.000000e-04).

#--- Lowdin population analysis ---
# oxidation-state K +0.061

End date and time: Sun Jan 16 14:54:31 2022  (Duration: 0-0:01:38.23)
Done!
