0.92
--------------------------------------------------------------------------
The library attempted to open the following supporting CUDA libraries,
but each of them failed.  CUDA-aware support is disabled.
libcuda.so.1: cannot open shared object file: No such file or directory
libcuda.dylib: cannot open shared object file: No such file or directory
/usr/lib64/libcuda.so.1: cannot open shared object file: No such file or directory
/usr/lib64/libcuda.dylib: cannot open shared object file: No such file or directory
If you are not interested in CUDA-aware support, then run with
--mca opal_warn_on_missing_libcuda 0 to suppress this message.  If you are interested
in CUDA-aware support, then try setting LD_LIBRARY_PATH to the location
of libcuda.so.1 to get passed this issue.
--------------------------------------------------------------------------
--------------------------------------------------------------------------
No OpenFabrics connection schemes reported that they were able to be
used on a specific port.  As such, the openib BTL (OpenFabrics
support) will be disabled for this port.

  Local host:           d-5-14-2
  Local device:         mlx5_1
  Local port:           1
  CPCs attempted:       rdmacm, udcm
--------------------------------------------------------------------------

*************** JDFTx 1.6.0 (git hash 42ebbcc2) ***************

Start date and time: Sun Jan 16 14:50:04 2022
Executable jdftx with command-line: -i Potassium.in
Running on hosts (process indices):  d-5-14-2 (0-18)
Divided in process groups (process indices):  0 (0)  1 (1)  2 (2)  3 (3)  4 (4)  5 (5)  6 (6)  7 (7)  8 (8)  9 (9)  10 (10)  11 (11)  12 (12)  13 (13)  14 (14)  15 (15)  16 (16)  17 (17)  18 (18)
Resource initialization completed at t[s]:      0.00
Run totals: 19 processes, 48 threads, 0 GPUs


Input parsed successfully to the following command list (including defaults):

basis kpoint-dependent
coords-type Lattice
core-overlap-check vector
coulomb-interaction Slab 001
davidson-band-ratio 1.1
dump End None
dump-name $INPUT.$VAR
elec-cutoff 20
elec-eigen-algo Davidson
elec-ex-corr gga-PBE
elec-smearing Fermi 0.01
electronic-minimize  \
	dirUpdateScheme      FletcherReeves \
	linminMethod         DirUpdateRecommended \
	nIterations          100 \
	history              15 \
	knormThreshold       0 \
	energyDiffThreshold  1e-08 \
	nEnergyDiff          2 \
	alphaTstart          1 \
	alphaTmin            1e-10 \
	updateTestStepSize   yes \
	alphaTreduceFactor   0.1 \
	alphaTincreaseFactor 3 \
	nAlphaAdjustMax      3 \
	wolfeEnergy          0.0001 \
	wolfeGradient        0.9 \
	fdTest               no
electronic-scf  \
	nIterations	10000 \
	energyDiffThreshold	1e-08 \
	residualThreshold	1e-07 \
	mixFraction	0.5 \
	qMetric	0.8 \
	history	10 \
	nEigSteps	2 \
	eigDiffThreshold	1e-08 \
	mixedVariable	Density \
	qKerker	0.8 \
	qKappa	-1 \
	verbose	no \
	mixFractionMag	1.5
exchange-regularization WignerSeitzTruncated
fluid None
fluid-ex-corr (null) lda-PZ
fluid-gummel-loop 10 1.000000e-05
fluid-minimize  \
	dirUpdateScheme      PolakRibiere \
	linminMethod         DirUpdateRecommended \
	nIterations          100 \
	history              15 \
	knormThreshold       0 \
	energyDiffThreshold  0 \
	nEnergyDiff          2 \
	alphaTstart          1 \
	alphaTmin            1e-10 \
	updateTestStepSize   yes \
	alphaTreduceFactor   0.1 \
	alphaTincreaseFactor 3 \
	nAlphaAdjustMax      3 \
	wolfeEnergy          0.0001 \
	wolfeGradient        0.9 \
	fdTest               no
fluid-solvent H2O 55.338 ScalarEOS \
	epsBulk 78.4 \
	pMol 0.92466 \
	epsInf 1.77 \
	Pvap 1.06736e-10 \
	sigmaBulk 4.62e-05 \
	Rvdw 2.61727 \
	Res 1.42 \
	tauNuc 343133 \
	poleEl 15 7 1
forces-output-coords Positions
ion K   0.000000000000000   0.000000000000000   0.000000000000000 0
ion-species SG15/$ID_ONCV_PBE.upf
ion-width 0
ionic-minimize  \
	dirUpdateScheme      L-BFGS \
	linminMethod         DirUpdateRecommended \
	nIterations          0 \
	history              15 \
	knormThreshold       0.0001 \
	energyDiffThreshold  1e-06 \
	nEnergyDiff          2 \
	alphaTstart          1 \
	alphaTmin            1e-10 \
	updateTestStepSize   yes \
	alphaTreduceFactor   0.1 \
	alphaTincreaseFactor 3 \
	nAlphaAdjustMax      3 \
	wolfeEnergy          0.0001 \
	wolfeGradient        0.9 \
	fdTest               no
kpoint   0.000000000000   0.000000000000   0.000000000000  1.00000000000000
kpoint-folding 12 12 1 
latt-move-scale 1 1 1
latt-scale 0.92 0.92 1 
lattice  \
	   4.727486978767153   -2.363743489383575    0.000000000000000  \
	  -0.000000000000000    4.094123819672498    0.000000000000000  \
	   0.000000000000000    0.000000000000000   40.000000000000000 
lattice-minimize  \
	dirUpdateScheme      L-BFGS \
	linminMethod         DirUpdateRecommended \
	nIterations          0 \
	history              15 \
	knormThreshold       0 \
	energyDiffThreshold  1e-06 \
	nEnergyDiff          2 \
	alphaTstart          1 \
	alphaTmin            1e-10 \
	updateTestStepSize   yes \
	alphaTreduceFactor   0.1 \
	alphaTincreaseFactor 3 \
	nAlphaAdjustMax      3 \
	wolfeEnergy          0.0001 \
	wolfeGradient        0.9 \
	fdTest               no
lcao-params -1 1e-06 0.01
pcm-variant GLSSA13
spintype no-spin
subspace-rotation-factor 1 yes
symmetries automatic
symmetry-threshold 0.0001



---------- Setting up symmetries ----------

Found 24 point-group symmetries of the bravais lattice
Found 24 space-group symmetries with basis
Applied RMS atom displacement 0 bohrs to make symmetries exact.

---------- Initializing the Grid ----------
R = 
[      4.34929     -2.17464            0  ]
[            0      3.76659            0  ]
[            0            0           40  ]
unit cell volume = 655.28
G =
[    1.44465   0.834067         -0  ]
[          0    1.66813         -0  ]
[         -0         -0    0.15708  ]
Minimum fftbox size, Smin = [  20  20  164  ]
Chosen fftbox size, S = [  20  20  168  ]

---------- Exchange Correlation functional ----------
Initalized PBE GGA exchange.
Initalized PBE GGA correlation.

---------- Setting up pseudopotentials ----------
Width of ionic core gaussian charges (only for fluid interactions / plotting) set to 0

Reading pseudopotential file '/home/gridsan/aligho/DFT/build-Nov24/pseudopotentials/SG15/K_ONCV_PBE.upf':
  'K' pseudopotential, 'PBE' functional
  Generated using ONCVPSP code by D. R. Hamann
  Author: Martin Schlipf and Francois Gygi  Date: 150915.
  9 valence electrons, 3 orbitals, 6 projectors, 2222 radial grid points, with lMax = 2
  Transforming local potential to a uniform radial grid of dG=0.02 with 1594 points.
  Transforming nonlocal projectors to a uniform radial grid of dG=0.02 with 432 points.
    3S    l: 0   occupation:  2.0   eigenvalue: -1.298836
    3P    l: 1   occupation:  6.0   eigenvalue: -0.691386
    4S    l: 0   occupation:  1.0   eigenvalue: -0.085223
  Transforming atomic orbitals to a uniform radial grid of dG=0.02 with 432 points.
  Core radius for overlap checks: 2.06 bohrs.
  Reading pulay file /home/gridsan/aligho/DFT/build-Nov24/pseudopotentials/SG15/K_ONCV_PBE.pulay ... using dE_dnG = -1.597219e-05 computed for Ecut = 20.

Initialized 1 species with 1 total atoms.

Folded 1 k-points by 12x12x1 to 144 k-points.

---------- Setting up k-points, bands, fillings ----------
Reduced to 19 k-points under symmetry. 
Computing the number of bands and number of electrons
Calculating initial fillings.
nElectrons:   9.000000   nBands: 6   nStates: 19

----- Setting up reduced wavefunction bases (one per k-point) -----
average nbasis = 2799.021 , ideal nbasis = 2799.406

---------- Setting up coulomb interaction ----------
Initialized slab truncation along lattice direction 001

---------- Setting up 2D ewald sum ----------
Optimum gaussian width for ewald sums = 2.414549 bohr.
Real space sums over 289 unit cells with max indices [  8  8  0  ]
Reciprocal space sums over 81 terms with max indices [  4  4  0  ]

---------- Allocating electronic variables ----------
Initializing wave functions:  linear combination of atomic orbitals
Note: number of bands (6) exceeds available atomic orbitals (5)
K pseudo-atom occupations:   s ( 2 1 )  p ( 6 )
	FillingsUpdate:  mu: -0.168171741  nElectrons: 9.000000
LCAOMinimize: Iter:   0  F: -28.0555232208060801  |grad|_K:  8.965e-04  alpha:  1.000e+00
	FillingsUpdate:  mu: -0.165587387  nElectrons: 9.000000
LCAOMinimize: Iter:   1  F: -28.0557561471649599  |grad|_K:  7.761e-05  alpha:  8.726e-01  linmin: -6.382e-02  cgtest:  1.162e+00  t[s]:      1.09
LCAOMinimize: Encountered beta<0, resetting CG.
	FillingsUpdate:  mu: -0.165406695  nElectrons: 9.000000
LCAOMinimize: Iter:   2  F: -28.0557581426976519  |grad|_K:  1.503e-06  alpha:  9.668e-01  linmin: -5.304e-02  cgtest:  6.682e-01  t[s]:      1.31
LCAOMinimize: Encountered beta<0, resetting CG.
	FillingsUpdate:  mu: -0.165405370  nElectrons: 9.000000
LCAOMinimize: Iter:   3  F: -28.0557581434655461  |grad|_K:  9.332e-09  alpha:  9.944e-01  linmin:  7.439e-02  cgtest: -3.614e-01  t[s]:      1.52
LCAOMinimize: 	Wrong curvature in test step, increasing alphaT to 2.983085e+00.
	FillingsUpdate:  mu: -0.165405356  nElectrons: 9.000000
LCAOMinimize: Iter:   4  F: -28.0557581434659014  |grad|_K:  3.387e-09  alpha: -8.360e-02  linmin:  1.707e-03  cgtest:  3.206e-01  t[s]:      1.73
LCAOMinimize: Converged (|Delta F|<1.000000e-06 for 2 iters).


---- Citations for features of the code used in this run ----

   Software package:
      R. Sundararaman, K. Letchworth-Weaver, K.A. Schwarz, D. Gunceler, Y. Ozhabes and T.A. Arias, 'JDFTx: software for joint density-functional theory', SoftwareX 6, 278 (2017)

   gga-PBE exchange-correlation functional:
      J.P. Perdew, K. Burke and M. Ernzerhof, Phys. Rev. Lett. 77, 3865 (1996)

   Pseudopotentials:
      M Schlipf and F Gygi, Comput. Phys. Commun. 196, 36 (2015)

   Truncated Coulomb potentials:
      R. Sundararaman and T.A. Arias, Phys. Rev. B 87, 165122 (2013)

This list may not be complete. Please suggest additional citations or
report any other bugs at https://github.com/shankar1729/jdftx/issues

Initialization completed successfully at t[s]:      1.75


-------- Electronic minimization -----------
Will mix electronic density at each iteration.
	FillingsUpdate:  mu: -0.165405356  nElectrons: 9.000000
	FillingsUpdate:  mu: -0.359368414  nElectrons: 9.000000
SCF: Cycle:  0   F: -28.103270340375154   dF: -4.751e-02   |Residual|: 1.542e-01   |deigs|: 3.526e-01  t[s]:      2.12
	FillingsUpdate:  mu: -0.354280693  nElectrons: 9.000000
SCF: Cycle:  1   F: -28.156386050094007   dF: -5.312e-02   |Residual|: 8.360e-02   |deigs|: 4.893e-02  t[s]:      2.37
	FillingsUpdate:  mu: -0.302375598  nElectrons: 9.000000
SCF: Cycle:  2   F: -28.197344693912115   dF: -4.096e-02   |Residual|: 3.351e-02   |deigs|: 7.558e-02  t[s]:      2.62
	FillingsUpdate:  mu: -0.291450179  nElectrons: 9.000000
SCF: Cycle:  3   F: -28.200420100899130   dF: -3.075e-03   |Residual|: 1.849e-02   |deigs|: 1.501e-02  t[s]:      2.88
	FillingsUpdate:  mu: -0.260652802  nElectrons: 9.000000
SCF: Cycle:  4   F: -28.205674432527939   dF: -5.254e-03   |Residual|: 1.318e-02   |deigs|: 3.507e-02  t[s]:      3.14
	FillingsUpdate:  mu: -0.227128264  nElectrons: 9.000000
SCF: Cycle:  5   F: -28.207806040120271   dF: -2.132e-03   |Residual|: 1.450e-02   |deigs|: 3.634e-02  t[s]:      3.40
	FillingsUpdate:  mu: -0.231107104  nElectrons: 9.000000
SCF: Cycle:  6   F: -28.208363479347263   dF: -5.574e-04   |Residual|: 9.034e-03   |deigs|: 1.245e-02  t[s]:      3.67
	FillingsUpdate:  mu: -0.235886315  nElectrons: 9.000000
SCF: Cycle:  7   F: -28.208156450753215   dF: +2.070e-04   |Residual|: 1.433e-02   |deigs|: 9.926e-03  t[s]:      3.94
	FillingsUpdate:  mu: -0.305994059  nElectrons: 9.000000
SCF: Cycle:  8   F: -28.199327594447400   dF: +8.829e-03   |Residual|: 4.431e-02   |deigs|: 7.380e-02  t[s]:      4.23
	FillingsUpdate:  mu: -0.287723629  nElectrons: 9.000000
SCF: Cycle:  9   F: -28.204620585626760   dF: -5.293e-03   |Residual|: 4.079e-02   |deigs|: 2.220e-02  t[s]:      4.49
	FillingsUpdate:  mu: -0.267936138  nElectrons: 9.000000
SCF: Cycle: 10   F: -28.208122053381345   dF: -3.501e-03   |Residual|: 3.489e-02   |deigs|: 2.251e-02  t[s]:      4.77
[d-5-14-2:51414] 18 more processes have sent help message help-mpi-common-cuda.txt / dlopen failed
[d-5-14-2:51414] Set MCA parameter "orte_base_help_aggregate" to 0 to see all help / error messages
[d-5-14-2:51414] 18 more processes have sent help message help-mpi-btl-openib-cpc-base.txt / no cpcs for port
	FillingsUpdate:  mu: -0.229657591  nElectrons: 9.000000
SCF: Cycle: 11   F: -28.213039107886640   dF: -4.917e-03   |Residual|: 2.131e-02   |deigs|: 4.197e-02  t[s]:      5.04
	FillingsUpdate:  mu: -0.204794147  nElectrons: 9.000000
SCF: Cycle: 12   F: -28.215605288085307   dF: -2.566e-03   |Residual|: 1.241e-02   |deigs|: 2.719e-02  t[s]:      5.33
	FillingsUpdate:  mu: -0.152004956  nElectrons: 9.000000
SCF: Cycle: 13   F: -28.217927305908084   dF: -2.322e-03   |Residual|: 7.188e-03   |deigs|: 5.697e-02  t[s]:      5.59
	FillingsUpdate:  mu: -0.147959009  nElectrons: 9.000000
SCF: Cycle: 14   F: -28.218084899636633   dF: -1.576e-04   |Residual|: 6.098e-03   |deigs|: 3.253e-03  t[s]:      5.86
	FillingsUpdate:  mu: -0.122767337  nElectrons: 9.000000
SCF: Cycle: 15   F: -28.218438983750396   dF: -3.541e-04   |Residual|: 2.489e-03   |deigs|: 2.581e-02  t[s]:      6.14
	FillingsUpdate:  mu: -0.131773047  nElectrons: 9.000000
SCF: Cycle: 16   F: -28.218483405847927   dF: -4.442e-05   |Residual|: 2.982e-03   |deigs|: 9.488e-03  t[s]:      6.41
	FillingsUpdate:  mu: -0.127543398  nElectrons: 9.000000
SCF: Cycle: 17   F: -28.218556893314307   dF: -7.349e-05   |Residual|: 3.148e-03   |deigs|: 4.409e-03  t[s]:      6.67
	FillingsUpdate:  mu: -0.122390965  nElectrons: 9.000000
SCF: Cycle: 18   F: -28.218622041849777   dF: -6.515e-05   |Residual|: 9.722e-04   |deigs|: 5.431e-03  t[s]:      6.94
	FillingsUpdate:  mu: -0.123211744  nElectrons: 9.000000
SCF: Cycle: 19   F: -28.218637264138309   dF: -1.522e-05   |Residual|: 5.791e-04   |deigs|: 2.083e-03  t[s]:      7.22
	FillingsUpdate:  mu: -0.122193261  nElectrons: 9.000000
SCF: Cycle: 20   F: -28.218647624080553   dF: -1.036e-05   |Residual|: 3.008e-04   |deigs|: 1.698e-03  t[s]:      7.47
	FillingsUpdate:  mu: -0.122752695  nElectrons: 9.000000
SCF: Cycle: 21   F: -28.218654578074261   dF: -6.954e-06   |Residual|: 2.244e-04   |deigs|: 1.157e-03  t[s]:      7.73
	FillingsUpdate:  mu: -0.123536289  nElectrons: 9.000000
SCF: Cycle: 22   F: -28.218661051167491   dF: -6.473e-06   |Residual|: 5.024e-05   |deigs|: 1.231e-03  t[s]:      7.98
	FillingsUpdate:  mu: -0.123681454  nElectrons: 9.000000
SCF: Cycle: 23   F: -28.218670471918738   dF: -9.421e-06   |Residual|: 3.734e-05   |deigs|: 9.440e-03  t[s]:      8.22
	FillingsUpdate:  mu: -0.123810375  nElectrons: 9.000000
SCF: Cycle: 24   F: -28.218681379278109   dF: -1.091e-05   |Residual|: 3.733e-05   |deigs|: 2.640e-03  t[s]:      8.45
	FillingsUpdate:  mu: -0.123865888  nElectrons: 9.000000
SCF: Cycle: 25   F: -28.218692468876263   dF: -1.109e-05   |Residual|: 4.808e-05   |deigs|: 1.046e-03  t[s]:      8.69
	FillingsUpdate:  mu: -0.123855450  nElectrons: 9.000000
SCF: Cycle: 26   F: -28.218704477631952   dF: -1.201e-05   |Residual|: 1.184e-04   |deigs|: 7.632e-04  t[s]:      8.93
	FillingsUpdate:  mu: -0.124033398  nElectrons: 9.000000
SCF: Cycle: 27   F: -28.218715666151038   dF: -1.119e-05   |Residual|: 1.033e-04   |deigs|: 5.369e-04  t[s]:      9.17
	FillingsUpdate:  mu: -0.124057053  nElectrons: 9.000000
SCF: Cycle: 28   F: -28.218726225433880   dF: -1.056e-05   |Residual|: 1.368e-04   |deigs|: 3.675e-04  t[s]:      9.42
	FillingsUpdate:  mu: -0.124089407  nElectrons: 9.000000
SCF: Cycle: 29   F: -28.218736163142559   dF: -9.938e-06   |Residual|: 1.789e-04   |deigs|: 3.000e-04  t[s]:      9.65
	FillingsUpdate:  mu: -0.124169330  nElectrons: 9.000000
SCF: Cycle: 30   F: -28.218745382544462   dF: -9.219e-06   |Residual|: 2.282e-04   |deigs|: 2.741e-04  t[s]:      9.89
	FillingsUpdate:  mu: -0.124184067  nElectrons: 9.000000
SCF: Cycle: 31   F: -28.218754222496763   dF: -8.840e-06   |Residual|: 2.917e-04   |deigs|: 2.183e-04  t[s]:     10.12
	FillingsUpdate:  mu: -0.124203557  nElectrons: 9.000000
SCF: Cycle: 32   F: -28.218761874984146   dF: -7.652e-06   |Residual|: 3.342e-04   |deigs|: 1.864e-04  t[s]:     10.35
	FillingsUpdate:  mu: -0.124219540  nElectrons: 9.000000
SCF: Cycle: 33   F: -28.218768823773093   dF: -6.949e-06   |Residual|: 3.637e-04   |deigs|: 1.646e-04  t[s]:     10.59
	FillingsUpdate:  mu: -0.124215199  nElectrons: 9.000000
SCF: Cycle: 34   F: -28.218774715590889   dF: -5.892e-06   |Residual|: 3.793e-04   |deigs|: 1.411e-04  t[s]:     10.82
	FillingsUpdate:  mu: -0.124231659  nElectrons: 9.000000
SCF: Cycle: 35   F: -28.218779855834963   dF: -5.140e-06   |Residual|: 4.048e-04   |deigs|: 1.256e-04  t[s]:     11.06
	FillingsUpdate:  mu: -0.124230961  nElectrons: 9.000000
SCF: Cycle: 36   F: -28.218784232530854   dF: -4.377e-06   |Residual|: 4.206e-04   |deigs|: 1.072e-04  t[s]:     11.30
	FillingsUpdate:  mu: -0.124250304  nElectrons: 9.000000
SCF: Cycle: 37   F: -28.218787945031352   dF: -3.713e-06   |Residual|: 4.435e-04   |deigs|: 9.942e-05  t[s]:     11.54
	FillingsUpdate:  mu: -0.124262617  nElectrons: 9.000000
SCF: Cycle: 38   F: -28.218791273421839   dF: -3.328e-06   |Residual|: 4.608e-04   |deigs|: 9.159e-05  t[s]:     11.77
	FillingsUpdate:  mu: -0.124293539  nElectrons: 9.000000
SCF: Cycle: 39   F: -28.218794107295007   dF: -2.834e-06   |Residual|: 4.865e-04   |deigs|: 8.604e-05  t[s]:     12.01
	FillingsUpdate:  mu: -0.124317207  nElectrons: 9.000000
SCF: Cycle: 40   F: -28.218796407100417   dF: -2.300e-06   |Residual|: 4.826e-04   |deigs|: 7.409e-05  t[s]:     12.24
	FillingsUpdate:  mu: -0.124301642  nElectrons: 9.000000
SCF: Cycle: 41   F: -28.218798405473002   dF: -1.998e-06   |Residual|: 5.323e-04   |deigs|: 6.443e-05  t[s]:     12.48
	FillingsUpdate:  mu: -0.124303582  nElectrons: 9.000000
SCF: Cycle: 42   F: -28.218800262541325   dF: -1.857e-06   |Residual|: 5.343e-04   |deigs|: 5.727e-05  t[s]:     12.71
	FillingsUpdate:  mu: -0.124287540  nElectrons: 9.000000
SCF: Cycle: 43   F: -28.218801737241026   dF: -1.475e-06   |Residual|: 5.263e-04   |deigs|: 5.123e-05  t[s]:     12.96
	FillingsUpdate:  mu: -0.124288630  nElectrons: 9.000000
SCF: Cycle: 44   F: -28.218802946294222   dF: -1.209e-06   |Residual|: 5.141e-04   |deigs|: 4.350e-05  t[s]:     13.21
	FillingsUpdate:  mu: -0.124354635  nElectrons: 9.000000
SCF: Cycle: 45   F: -28.218803976157655   dF: -1.030e-06   |Residual|: 3.966e-04   |deigs|: 7.507e-05  t[s]:     13.47
	FillingsUpdate:  mu: -0.124250754  nElectrons: 9.000000
SCF: Cycle: 46   F: -28.218804960481211   dF: -9.843e-07   |Residual|: 2.053e-04   |deigs|: 1.125e-04  t[s]:     13.74
	FillingsUpdate:  mu: -0.124205966  nElectrons: 9.000000
SCF: Cycle: 47   F: -28.218805703851832   dF: -7.434e-07   |Residual|: 2.331e-04   |deigs|: 5.890e-05  t[s]:     13.98
	FillingsUpdate:  mu: -0.124197886  nElectrons: 9.000000
SCF: Cycle: 48   F: -28.218806429897604   dF: -7.260e-07   |Residual|: 2.287e-04   |deigs|: 2.540e-05  t[s]:     14.23
	FillingsUpdate:  mu: -0.124250649  nElectrons: 9.000000
SCF: Cycle: 49   F: -28.218807025934733   dF: -5.960e-07   |Residual|: 2.685e-04   |deigs|: 5.854e-05  t[s]:     14.47
	FillingsUpdate:  mu: -0.124145628  nElectrons: 9.000000
SCF: Cycle: 50   F: -28.218807562273653   dF: -5.363e-07   |Residual|: 4.536e-05   |deigs|: 1.009e-04  t[s]:     14.73
	FillingsUpdate:  mu: -0.124148510  nElectrons: 9.000000
SCF: Cycle: 51   F: -28.218807964135472   dF: -4.019e-07   |Residual|: 3.628e-05   |deigs|: 1.957e-05  t[s]:     14.97
	FillingsUpdate:  mu: -0.124177421  nElectrons: 9.000000
SCF: Cycle: 52   F: -28.218808319936411   dF: -3.558e-07   |Residual|: 1.471e-05   |deigs|: 4.122e-05  t[s]:     15.22
	FillingsUpdate:  mu: -0.124234952  nElectrons: 9.000000
SCF: Cycle: 53   F: -28.218808713537417   dF: -3.936e-07   |Residual|: 1.795e-05   |deigs|: 6.274e-05  t[s]:     15.46
	FillingsUpdate:  mu: -0.124233092  nElectrons: 9.000000
SCF: Cycle: 54   F: -28.218809017505187   dF: -3.040e-07   |Residual|: 6.050e-06   |deigs|: 1.648e-05  t[s]:     15.69
	FillingsUpdate:  mu: -0.124241711  nElectrons: 9.000000
SCF: Cycle: 55   F: -28.218809257097611   dF: -2.396e-07   |Residual|: 2.784e-06   |deigs|: 1.766e-05  t[s]:     15.93
	FillingsUpdate:  mu: -0.124247778  nElectrons: 9.000000
SCF: Cycle: 56   F: -28.218809467309210   dF: -2.102e-07   |Residual|: 2.611e-06   |deigs|: 1.492e-05  t[s]:     16.17
	FillingsUpdate:  mu: -0.124250370  nElectrons: 9.000000
SCF: Cycle: 57   F: -28.218809672202770   dF: -2.049e-07   |Residual|: 1.363e-06   |deigs|: 1.306e-05  t[s]:     16.41
	FillingsUpdate:  mu: -0.124251937  nElectrons: 9.000000
SCF: Cycle: 58   F: -28.218809845335436   dF: -1.731e-07   |Residual|: 9.388e-07   |deigs|: 1.182e-05  t[s]:     16.65
	FillingsUpdate:  mu: -0.124253923  nElectrons: 9.000000
SCF: Cycle: 59   F: -28.218809990479524   dF: -1.451e-07   |Residual|: 9.955e-07   |deigs|: 1.108e-05  t[s]:     16.89
	FillingsUpdate:  mu: -0.124253775  nElectrons: 9.000000
SCF: Cycle: 60   F: -28.218810121675823   dF: -1.312e-07   |Residual|: 1.783e-06   |deigs|: 1.011e-05  t[s]:     17.13
	FillingsUpdate:  mu: -0.124255243  nElectrons: 9.000000
SCF: Cycle: 61   F: -28.218810243052648   dF: -1.214e-07   |Residual|: 1.620e-06   |deigs|: 1.036e-05  t[s]:     17.37
	FillingsUpdate:  mu: -0.124255953  nElectrons: 9.000000
SCF: Cycle: 62   F: -28.218810353452486   dF: -1.104e-07   |Residual|: 1.665e-06   |deigs|: 9.970e-06  t[s]:     17.60
	FillingsUpdate:  mu: -0.124256046  nElectrons: 9.000000
SCF: Cycle: 63   F: -28.218810453734477   dF: -1.003e-07   |Residual|: 2.186e-06   |deigs|: 9.843e-06  t[s]:     17.83
	FillingsUpdate:  mu: -0.124256284  nElectrons: 9.000000
SCF: Cycle: 64   F: -28.218810550871957   dF: -9.714e-08   |Residual|: 2.805e-06   |deigs|: 9.959e-06  t[s]:     18.06
	FillingsUpdate:  mu: -0.124256463  nElectrons: 9.000000
SCF: Cycle: 65   F: -28.218810638448563   dF: -8.758e-08   |Residual|: 3.186e-06   |deigs|: 1.017e-05  t[s]:     18.31
	FillingsUpdate:  mu: -0.124256534  nElectrons: 9.000000
SCF: Cycle: 66   F: -28.218810720591375   dF: -8.214e-08   |Residual|: 3.564e-06   |deigs|: 1.047e-05  t[s]:     18.54
	FillingsUpdate:  mu: -0.124256482  nElectrons: 9.000000
SCF: Cycle: 67   F: -28.218810799091912   dF: -7.850e-08   |Residual|: 3.980e-06   |deigs|: 1.094e-05  t[s]:     18.78
	FillingsUpdate:  mu: -0.124256911  nElectrons: 9.000000
SCF: Cycle: 68   F: -28.218810874280649   dF: -7.519e-08   |Residual|: 4.080e-06   |deigs|: 1.149e-05  t[s]:     19.01
	FillingsUpdate:  mu: -0.124257840  nElectrons: 9.000000
SCF: Cycle: 69   F: -28.218810947132827   dF: -7.285e-08   |Residual|: 3.669e-06   |deigs|: 1.215e-05  t[s]:     19.24
	FillingsUpdate:  mu: -0.124258328  nElectrons: 9.000000
SCF: Cycle: 70   F: -28.218811018510507   dF: -7.138e-08   |Residual|: 3.683e-06   |deigs|: 1.281e-05  t[s]:     19.48
	FillingsUpdate:  mu: -0.124259030  nElectrons: 9.000000
SCF: Cycle: 71   F: -28.218811088094871   dF: -6.958e-08   |Residual|: 3.861e-06   |deigs|: 1.321e-05  t[s]:     19.71
	FillingsUpdate:  mu: -0.124261692  nElectrons: 9.000000
SCF: Cycle: 72   F: -28.218811156342991   dF: -6.825e-08   |Residual|: 3.219e-06   |deigs|: 1.430e-05  t[s]:     19.95
	FillingsUpdate:  mu: -0.124261892  nElectrons: 9.000000
SCF: Cycle: 73   F: -28.218811224816193   dF: -6.847e-08   |Residual|: 2.977e-06   |deigs|: 1.454e-05  t[s]:     20.18
	FillingsUpdate:  mu: -0.124256076  nElectrons: 9.000000
SCF: Cycle: 74   F: -28.218811294306747   dF: -6.949e-08   |Residual|: 4.591e-06   |deigs|: 1.606e-05  t[s]:     20.41
	FillingsUpdate:  mu: -0.124258393  nElectrons: 9.000000
SCF: Cycle: 75   F: -28.218811458312825   dF: -1.640e-07   |Residual|: 4.739e-06   |deigs|: 2.021e-05  t[s]:     20.65
	FillingsUpdate:  mu: -0.124263693  nElectrons: 9.000000
SCF: Cycle: 76   F: -28.218811560211073   dF: -1.019e-07   |Residual|: 3.263e-06   |deigs|: 1.919e-05  t[s]:     20.88
	FillingsUpdate:  mu: -0.124268604  nElectrons: 9.000000
SCF: Cycle: 77   F: -28.218811624352142   dF: -6.414e-08   |Residual|: 2.249e-06   |deigs|: 1.963e-05  t[s]:     21.12
	FillingsUpdate:  mu: -0.124270380  nElectrons: 9.000000
SCF: Cycle: 78   F: -28.218811688820544   dF: -6.447e-08   |Residual|: 2.205e-06   |deigs|: 1.917e-05  t[s]:     21.36
	FillingsUpdate:  mu: -0.124273531  nElectrons: 9.000000
SCF: Cycle: 79   F: -28.218811756651455   dF: -6.783e-08   |Residual|: 2.659e-06   |deigs|: 2.071e-05  t[s]:     21.59
	FillingsUpdate:  mu: -0.124267033  nElectrons: 9.000000
SCF: Cycle: 80   F: -28.218811827615443   dF: -7.096e-08   |Residual|: 1.994e-06   |deigs|: 2.091e-05  t[s]:     21.83
	FillingsUpdate:  mu: -0.124270917  nElectrons: 9.000000
SCF: Cycle: 81   F: -28.218811915400607   dF: -8.779e-08   |Residual|: 1.690e-06   |deigs|: 2.253e-05  t[s]:     22.06
	FillingsUpdate:  mu: -0.124270437  nElectrons: 9.000000
SCF: Cycle: 82   F: -28.218811996685425   dF: -8.128e-08   |Residual|: 2.155e-06   |deigs|: 2.174e-05  t[s]:     22.29
	FillingsUpdate:  mu: -0.124268784  nElectrons: 9.000000
SCF: Cycle: 83   F: -28.218812076821575   dF: -8.014e-08   |Residual|: 2.966e-06   |deigs|: 2.252e-05  t[s]:     22.52
	FillingsUpdate:  mu: -0.124267287  nElectrons: 9.000000
SCF: Cycle: 84   F: -28.218812162224133   dF: -8.540e-08   |Residual|: 2.142e-06   |deigs|: 2.378e-05  t[s]:     22.76
	FillingsUpdate:  mu: -0.124269694  nElectrons: 9.000000
SCF: Cycle: 85   F: -28.218812251266726   dF: -8.904e-08   |Residual|: 1.583e-06   |deigs|: 2.498e-05  t[s]:     23.00
	FillingsUpdate:  mu: -0.124269667  nElectrons: 9.000000
SCF: Cycle: 86   F: -28.218812343780453   dF: -9.251e-08   |Residual|: 1.699e-06   |deigs|: 2.506e-05  t[s]:     23.24
	FillingsUpdate:  mu: -0.124270600  nElectrons: 9.000000
SCF: Cycle: 87   F: -28.218812441574869   dF: -9.779e-08   |Residual|: 1.876e-06   |deigs|: 2.618e-05  t[s]:     23.48
	FillingsUpdate:  mu: -0.124271275  nElectrons: 9.000000
SCF: Cycle: 88   F: -28.218812544157842   dF: -1.026e-07   |Residual|: 1.830e-06   |deigs|: 2.690e-05  t[s]:     23.72
	FillingsUpdate:  mu: -0.124271599  nElectrons: 9.000000
SCF: Cycle: 89   F: -28.218812650271403   dF: -1.061e-07   |Residual|: 2.003e-06   |deigs|: 2.720e-05  t[s]:     23.96
	FillingsUpdate:  mu: -0.124271938  nElectrons: 9.000000
SCF: Cycle: 90   F: -28.218812761134377   dF: -1.109e-07   |Residual|: 2.390e-06   |deigs|: 2.781e-05  t[s]:     24.20
	FillingsUpdate:  mu: -0.124272234  nElectrons: 9.000000
SCF: Cycle: 91   F: -28.218812876836296   dF: -1.157e-07   |Residual|: 2.554e-06   |deigs|: 2.842e-05  t[s]:     24.44
	FillingsUpdate:  mu: -0.124272642  nElectrons: 9.000000
SCF: Cycle: 92   F: -28.218812996376403   dF: -1.195e-07   |Residual|: 2.666e-06   |deigs|: 2.871e-05  t[s]:     24.67
	FillingsUpdate:  mu: -0.124273110  nElectrons: 9.000000
SCF: Cycle: 93   F: -28.218813121358536   dF: -1.250e-07   |Residual|: 3.538e-06   |deigs|: 2.908e-05  t[s]:     24.91
	FillingsUpdate:  mu: -0.124273561  nElectrons: 9.000000
SCF: Cycle: 94   F: -28.218813252507417   dF: -1.311e-07   |Residual|: 3.789e-06   |deigs|: 2.937e-05  t[s]:     25.15
	FillingsUpdate:  mu: -0.124273928  nElectrons: 9.000000
SCF: Cycle: 95   F: -28.218813388135207   dF: -1.356e-07   |Residual|: 4.454e-06   |deigs|: 2.959e-05  t[s]:     25.39
	FillingsUpdate:  mu: -0.124274329  nElectrons: 9.000000
SCF: Cycle: 96   F: -28.218813527408237   dF: -1.393e-07   |Residual|: 5.302e-06   |deigs|: 2.977e-05  t[s]:     25.63
	FillingsUpdate:  mu: -0.124274845  nElectrons: 9.000000
SCF: Cycle: 97   F: -28.218813673423732   dF: -1.460e-07   |Residual|: 5.615e-06   |deigs|: 3.006e-05  t[s]:     25.87
	FillingsUpdate:  mu: -0.124275353  nElectrons: 9.000000
SCF: Cycle: 98   F: -28.218813823692482   dF: -1.503e-07   |Residual|: 6.010e-06   |deigs|: 3.006e-05  t[s]:     26.11
	FillingsUpdate:  mu: -0.124275918  nElectrons: 9.000000
SCF: Cycle: 99   F: -28.218813975471875   dF: -1.518e-07   |Residual|: 5.057e-06   |deigs|: 3.024e-05  t[s]:     26.34
	FillingsUpdate:  mu: -0.124276490  nElectrons: 9.000000
SCF: Cycle: 100   F: -28.218814130556130   dF: -1.551e-07   |Residual|: 7.256e-06   |deigs|: 3.012e-05  t[s]:     26.57
	FillingsUpdate:  mu: -0.124277027  nElectrons: 9.000000
SCF: Cycle: 101   F: -28.218814288839642   dF: -1.583e-07   |Residual|: 7.388e-06   |deigs|: 3.002e-05  t[s]:     26.80
	FillingsUpdate:  mu: -0.124277566  nElectrons: 9.000000
SCF: Cycle: 102   F: -28.218814449045702   dF: -1.602e-07   |Residual|: 7.433e-06   |deigs|: 2.958e-05  t[s]:     27.03
	FillingsUpdate:  mu: -0.124278295  nElectrons: 9.000000
SCF: Cycle: 103   F: -28.218814609873256   dF: -1.608e-07   |Residual|: 5.424e-06   |deigs|: 2.902e-05  t[s]:     27.26
	FillingsUpdate:  mu: -0.124279064  nElectrons: 9.000000
SCF: Cycle: 104   F: -28.218814772876669   dF: -1.630e-07   |Residual|: 1.077e-05   |deigs|: 2.868e-05  t[s]:     27.50
	FillingsUpdate:  mu: -0.124279406  nElectrons: 9.000000
SCF: Cycle: 105   F: -28.218814940267002   dF: -1.674e-07   |Residual|: 9.359e-06   |deigs|: 2.869e-05  t[s]:     27.73
	FillingsUpdate:  mu: -0.124279831  nElectrons: 9.000000
SCF: Cycle: 106   F: -28.218815111905140   dF: -1.716e-07   |Residual|: 4.640e-06   |deigs|: 2.871e-05  t[s]:     27.97
	FillingsUpdate:  mu: -0.124281016  nElectrons: 9.000000
SCF: Cycle: 107   F: -28.218815286707066   dF: -1.748e-07   |Residual|: 2.295e-06   |deigs|: 2.859e-05  t[s]:     28.20
	FillingsUpdate:  mu: -0.124281312  nElectrons: 9.000000
SCF: Cycle: 108   F: -28.218815465019819   dF: -1.783e-07   |Residual|: 2.074e-06   |deigs|: 2.831e-05  t[s]:     28.44
	FillingsUpdate:  mu: -0.124282182  nElectrons: 9.000000
SCF: Cycle: 109   F: -28.218815647093038   dF: -1.821e-07   |Residual|: 1.309e-06   |deigs|: 2.825e-05  t[s]:     28.67
	FillingsUpdate:  mu: -0.124282585  nElectrons: 9.000000
SCF: Cycle: 110   F: -28.218815832118619   dF: -1.850e-07   |Residual|: 2.023e-06   |deigs|: 2.792e-05  t[s]:     28.90
	FillingsUpdate:  mu: -0.124283389  nElectrons: 9.000000
SCF: Cycle: 111   F: -28.218816019952346   dF: -1.878e-07   |Residual|: 3.018e-06   |deigs|: 2.768e-05  t[s]:     29.13
	FillingsUpdate:  mu: -0.124283495  nElectrons: 9.000000
SCF: Cycle: 112   F: -28.218816210638764   dF: -1.907e-07   |Residual|: 3.736e-06   |deigs|: 2.729e-05  t[s]:     29.37
	FillingsUpdate:  mu: -0.124283730  nElectrons: 9.000000
SCF: Cycle: 113   F: -28.218816403884720   dF: -1.932e-07   |Residual|: 4.087e-06   |deigs|: 2.697e-05  t[s]:     29.60
	FillingsUpdate:  mu: -0.124284742  nElectrons: 9.000000
SCF: Cycle: 114   F: -28.218816599561919   dF: -1.957e-07   |Residual|: 5.438e-06   |deigs|: 2.669e-05  t[s]:     29.83
	FillingsUpdate:  mu: -0.124285817  nElectrons: 9.000000
SCF: Cycle: 115   F: -28.218816797391675   dF: -1.978e-07   |Residual|: 6.273e-06   |deigs|: 2.629e-05  t[s]:     30.06
	FillingsUpdate:  mu: -0.124289748  nElectrons: 9.000000
SCF: Cycle: 116   F: -28.218816997595702   dF: -2.002e-07   |Residual|: 7.088e-06   |deigs|: 2.649e-05  t[s]:     30.29
	FillingsUpdate:  mu: -0.124289523  nElectrons: 9.000000
SCF: Cycle: 117   F: -28.218817199258577   dF: -2.017e-07   |Residual|: 8.818e-06   |deigs|: 2.521e-05  t[s]:     30.53
	FillingsUpdate:  mu: -0.124289864  nElectrons: 9.000000
SCF: Cycle: 118   F: -28.218817402583056   dF: -2.033e-07   |Residual|: 9.988e-06   |deigs|: 2.474e-05  t[s]:     30.76
	FillingsUpdate:  mu: -0.124290672  nElectrons: 9.000000
SCF: Cycle: 119   F: -28.218817607252909   dF: -2.047e-07   |Residual|: 1.151e-05   |deigs|: 2.422e-05  t[s]:     31.00
	FillingsUpdate:  mu: -0.124292077  nElectrons: 9.000000
SCF: Cycle: 120   F: -28.218817813082943   dF: -2.058e-07   |Residual|: 1.164e-05   |deigs|: 2.366e-05  t[s]:     31.23
	FillingsUpdate:  mu: -0.124292674  nElectrons: 9.000000
SCF: Cycle: 121   F: -28.218818019734680   dF: -2.067e-07   |Residual|: 1.290e-05   |deigs|: 2.281e-05  t[s]:     31.47
	FillingsUpdate:  mu: -0.124295629  nElectrons: 9.000000
SCF: Cycle: 122   F: -28.218818227404689   dF: -2.077e-07   |Residual|: 1.312e-05   |deigs|: 2.250e-05  t[s]:     31.73
	FillingsUpdate:  mu: -0.124296095  nElectrons: 9.000000
SCF: Cycle: 123   F: -28.218818434936555   dF: -2.075e-07   |Residual|: 1.500e-05   |deigs|: 2.094e-05  t[s]:     31.96
	FillingsUpdate:  mu: -0.124296908  nElectrons: 9.000000
SCF: Cycle: 124   F: -28.218818642729879   dF: -2.078e-07   |Residual|: 1.652e-05   |deigs|: 1.987e-05  t[s]:     32.20
	FillingsUpdate:  mu: -0.124297771  nElectrons: 9.000000
SCF: Cycle: 125   F: -28.218818850163540   dF: -2.074e-07   |Residual|: 1.858e-05   |deigs|: 1.861e-05  t[s]:     32.43
	FillingsUpdate:  mu: -0.124299792  nElectrons: 9.000000
SCF: Cycle: 126   F: -28.218819056109137   dF: -2.059e-07   |Residual|: 1.908e-05   |deigs|: 1.745e-05  t[s]:     32.66
	FillingsUpdate:  mu: -0.124298413  nElectrons: 9.000000
SCF: Cycle: 127   F: -28.218819466605222   dF: -4.105e-07   |Residual|: 2.724e-05   |deigs|: 8.060e-05  t[s]:     32.89
	FillingsUpdate:  mu: -0.124302045  nElectrons: 9.000000
SCF: Cycle: 128   F: -28.218819991453277   dF: -5.248e-07   |Residual|: 2.403e-05   |deigs|: 1.112e-04  t[s]:     33.12
	FillingsUpdate:  mu: -0.124301183  nElectrons: 9.000000
SCF: Cycle: 129   F: -28.218820211239958   dF: -2.198e-07   |Residual|: 2.353e-05   |deigs|: 1.989e-05  t[s]:     33.34
	FillingsUpdate:  mu: -0.124301410  nElectrons: 9.000000
SCF: Cycle: 130   F: -28.218820502355463   dF: -2.911e-07   |Residual|: 3.099e-05   |deigs|: 2.200e-05  t[s]:     33.57
	FillingsUpdate:  mu: -0.124302184  nElectrons: 9.000000
SCF: Cycle: 131   F: -28.218820812549282   dF: -3.102e-07   |Residual|: 3.161e-05   |deigs|: 2.415e-05  t[s]:     33.80
	FillingsUpdate:  mu: -0.124303144  nElectrons: 9.000000
SCF: Cycle: 132   F: -28.218821046408703   dF: -2.339e-07   |Residual|: 2.998e-05   |deigs|: 1.907e-05  t[s]:     34.03
	FillingsUpdate:  mu: -0.124303842  nElectrons: 9.000000
SCF: Cycle: 133   F: -28.218821292887057   dF: -2.465e-07   |Residual|: 3.285e-05   |deigs|: 2.028e-05  t[s]:     34.26
	FillingsUpdate:  mu: -0.124304634  nElectrons: 9.000000
SCF: Cycle: 134   F: -28.218821532148588   dF: -2.393e-07   |Residual|: 4.502e-05   |deigs|: 1.994e-05  t[s]:     34.49
	FillingsUpdate:  mu: -0.124309941  nElectrons: 9.000000
SCF: Cycle: 135   F: -28.218821768514118   dF: -2.364e-07   |Residual|: 3.255e-05   |deigs|: 2.113e-05  t[s]:     34.72
	FillingsUpdate:  mu: -0.124310076  nElectrons: 9.000000
SCF: Cycle: 136   F: -28.218821995057251   dF: -2.265e-07   |Residual|: 3.117e-05   |deigs|: 1.869e-05  t[s]:     34.96
	FillingsUpdate:  mu: -0.124313630  nElectrons: 9.000000
SCF: Cycle: 137   F: -28.218822224494822   dF: -2.294e-07   |Residual|: 2.829e-05   |deigs|: 1.956e-05  t[s]:     35.20
	FillingsUpdate:  mu: -0.124315834  nElectrons: 9.000000
SCF: Cycle: 138   F: -28.218822442840999   dF: -2.183e-07   |Residual|: 3.113e-05   |deigs|: 1.825e-05  t[s]:     35.43
	FillingsUpdate:  mu: -0.124320953  nElectrons: 9.000000
SCF: Cycle: 139   F: -28.218823574203768   dF: -1.131e-06   |Residual|: 5.241e-05   |deigs|: 2.229e-04  t[s]:     35.66
	FillingsUpdate:  mu: -0.124328144  nElectrons: 9.000000
SCF: Cycle: 140   F: -28.218824320727826   dF: -7.465e-07   |Residual|: 4.527e-05   |deigs|: 1.072e-04  t[s]:     35.90
	FillingsUpdate:  mu: -0.124329441  nElectrons: 9.000000
SCF: Cycle: 141   F: -28.218824565168720   dF: -2.444e-07   |Residual|: 4.719e-05   |deigs|: 1.869e-05  t[s]:     36.13
	FillingsUpdate:  mu: -0.124331988  nElectrons: 9.000000
SCF: Cycle: 142   F: -28.218824767987865   dF: -2.028e-07   |Residual|: 5.110e-05   |deigs|: 1.612e-05  t[s]:     36.38
	FillingsUpdate:  mu: -0.124332124  nElectrons: 9.000000
SCF: Cycle: 143   F: -28.218824957580480   dF: -1.896e-07   |Residual|: 5.217e-05   |deigs|: 1.442e-05  t[s]:     36.62
	FillingsUpdate:  mu: -0.124335798  nElectrons: 9.000000
SCF: Cycle: 144   F: -28.218825139370161   dF: -1.818e-07   |Residual|: 4.654e-05   |deigs|: 1.510e-05  t[s]:     36.86
	FillingsUpdate:  mu: -0.124334355  nElectrons: 9.000000
SCF: Cycle: 145   F: -28.218825303455240   dF: -1.641e-07   |Residual|: 4.232e-05   |deigs|: 1.192e-05  t[s]:     37.10
	FillingsUpdate:  mu: -0.124332832  nElectrons: 9.000000
SCF: Cycle: 146   F: -28.218825476424911   dF: -1.730e-07   |Residual|: 4.516e-05   |deigs|: 1.291e-05  t[s]:     37.33
	FillingsUpdate:  mu: -0.124331465  nElectrons: 9.000000
SCF: Cycle: 147   F: -28.218825636252483   dF: -1.598e-07   |Residual|: 5.010e-05   |deigs|: 1.221e-05  t[s]:     37.56
	FillingsUpdate:  mu: -0.124331676  nElectrons: 9.000000
SCF: Cycle: 148   F: -28.218825779551405   dF: -1.433e-07   |Residual|: 5.404e-05   |deigs|: 1.175e-05  t[s]:     37.80
	FillingsUpdate:  mu: -0.124341931  nElectrons: 9.000000
SCF: Cycle: 149   F: -28.218825906707036   dF: -1.272e-07   |Residual|: 6.441e-05   |deigs|: 1.411e-05  t[s]:     38.06
	FillingsUpdate:  mu: -0.124352642  nElectrons: 9.000000
SCF: Cycle: 150   F: -28.218826046676487   dF: -1.400e-07   |Residual|: 2.741e-05   |deigs|: 2.173e-05  t[s]:     38.32
	FillingsUpdate:  mu: -0.124367596  nElectrons: 9.000000
SCF: Cycle: 151   F: -28.218826164399420   dF: -1.177e-07   |Residual|: 1.642e-05   |deigs|: 2.493e-05  t[s]:     38.55
	FillingsUpdate:  mu: -0.124342183  nElectrons: 9.000000
SCF: Cycle: 152   F: -28.218826270429403   dF: -1.060e-07   |Residual|: 2.373e-05   |deigs|: 2.874e-05  t[s]:     38.81
	FillingsUpdate:  mu: -0.124334273  nElectrons: 9.000000
SCF: Cycle: 153   F: -28.218826382568938   dF: -1.121e-07   |Residual|: 2.373e-05   |deigs|: 9.738e-06  t[s]:     39.05
	FillingsUpdate:  mu: -0.124336097  nElectrons: 9.000000
SCF: Cycle: 154   F: -28.218826529934425   dF: -1.474e-07   |Residual|: 2.607e-05   |deigs|: 1.136e-05  t[s]:     39.29
	FillingsUpdate:  mu: -0.124356499  nElectrons: 9.000000
SCF: Cycle: 155   F: -28.218826666395596   dF: -1.365e-07   |Residual|: 2.478e-05   |deigs|: 2.482e-05  t[s]:     39.53
	FillingsUpdate:  mu: -0.124368969  nElectrons: 9.000000
SCF: Cycle: 156   F: -28.218826776084388   dF: -1.097e-07   |Residual|: 3.417e-05   |deigs|: 2.056e-05  t[s]:     39.78
	FillingsUpdate:  mu: -0.124373989  nElectrons: 9.000000
SCF: Cycle: 157   F: -28.218826867205696   dF: -9.112e-08   |Residual|: 8.360e-05   |deigs|: 3.203e-05  t[s]:     40.01
	FillingsUpdate:  mu: -0.124378442  nElectrons: 9.000000
SCF: Cycle: 158   F: -28.218826973071842   dF: -1.059e-07   |Residual|: 7.083e-05   |deigs|: 1.296e-05  t[s]:     40.25
	FillingsUpdate:  mu: -0.124379142  nElectrons: 9.000000
SCF: Cycle: 159   F: -28.218827080984813   dF: -1.079e-07   |Residual|: 4.186e-05   |deigs|: 2.087e-05  t[s]:     40.48
	FillingsUpdate:  mu: -0.124377096  nElectrons: 9.000000
SCF: Cycle: 160   F: -28.218827171796395   dF: -9.081e-08   |Residual|: 1.782e-05   |deigs|: 1.504e-05  t[s]:     40.71
	FillingsUpdate:  mu: -0.124377953  nElectrons: 9.000000
SCF: Cycle: 161   F: -28.218827343758797   dF: -1.720e-07   |Residual|: 1.461e-05   |deigs|: 1.666e-05  t[s]:     40.94
	FillingsUpdate:  mu: -0.124378748  nElectrons: 9.000000
SCF: Cycle: 162   F: -28.218827477140561   dF: -1.334e-07   |Residual|: 1.420e-05   |deigs|: 1.012e-05  t[s]:     41.17
	FillingsUpdate:  mu: -0.124375913  nElectrons: 9.000000
SCF: Cycle: 163   F: -28.218827561386075   dF: -8.425e-08   |Residual|: 2.944e-05   |deigs|: 1.326e-05  t[s]:     41.40
	FillingsUpdate:  mu: -0.124375902  nElectrons: 9.000000
SCF: Cycle: 164   F: -28.218827646429492   dF: -8.504e-08   |Residual|: 5.197e-06   |deigs|: 2.053e-05  t[s]:     41.63
	FillingsUpdate:  mu: -0.124377782  nElectrons: 9.000000
SCF: Cycle: 165   F: -28.218827738851683   dF: -9.242e-08   |Residual|: 9.893e-06   |deigs|: 7.476e-06  t[s]:     41.86
	FillingsUpdate:  mu: -0.124378324  nElectrons: 9.000000
SCF: Cycle: 166   F: -28.218827821637095   dF: -8.279e-08   |Residual|: 7.285e-06   |deigs|: 5.555e-06  t[s]:     42.10
	FillingsUpdate:  mu: -0.124378427  nElectrons: 9.000000
SCF: Cycle: 167   F: -28.218827904566229   dF: -8.293e-08   |Residual|: 4.753e-06   |deigs|: 5.641e-06  t[s]:     42.33
	FillingsUpdate:  mu: -0.124379076  nElectrons: 9.000000
SCF: Cycle: 168   F: -28.218827989197138   dF: -8.463e-08   |Residual|: 9.895e-06   |deigs|: 5.822e-06  t[s]:     42.56
	FillingsUpdate:  mu: -0.124379664  nElectrons: 9.000000
SCF: Cycle: 169   F: -28.218828081978341   dF: -9.278e-08   |Residual|: 1.136e-05   |deigs|: 6.354e-06  t[s]:     42.79
	FillingsUpdate:  mu: -0.124380604  nElectrons: 9.000000
SCF: Cycle: 170   F: -28.218828206463012   dF: -1.245e-07   |Residual|: 8.465e-06   |deigs|: 8.844e-06  t[s]:     43.02
	FillingsUpdate:  mu: -0.124379380  nElectrons: 9.000000
SCF: Cycle: 171   F: -28.218828352550133   dF: -1.461e-07   |Residual|: 8.593e-06   |deigs|: 1.006e-05  t[s]:     43.25
	FillingsUpdate:  mu: -0.124380521  nElectrons: 9.000000
SCF: Cycle: 172   F: -28.218828454103690   dF: -1.016e-07   |Residual|: 6.089e-06   |deigs|: 7.151e-06  t[s]:     43.48
	FillingsUpdate:  mu: -0.124375001  nElectrons: 9.000000
SCF: Cycle: 173   F: -28.218828506632430   dF: -5.253e-08   |Residual|: 2.642e-06   |deigs|: 7.431e-06  t[s]:     43.71
	FillingsUpdate:  mu: -0.124372699  nElectrons: 9.000000
SCF: Cycle: 174   F: -28.218828550189343   dF: -4.356e-08   |Residual|: 3.463e-06   |deigs|: 4.895e-06  t[s]:     43.94
	FillingsUpdate:  mu: -0.124371088  nElectrons: 9.000000
SCF: Cycle: 175   F: -28.218828591012084   dF: -4.082e-08   |Residual|: 2.286e-06   |deigs|: 4.121e-06  t[s]:     44.19
	FillingsUpdate:  mu: -0.124372974  nElectrons: 9.000000
SCF: Cycle: 176   F: -28.218828639865077   dF: -4.885e-08   |Residual|: 1.658e-06   |deigs|: 4.017e-06  t[s]:     44.43
	FillingsUpdate:  mu: -0.124371424  nElectrons: 9.000000
SCF: Cycle: 177   F: -28.218828686452600   dF: -4.659e-08   |Residual|: 1.501e-06   |deigs|: 3.246e-06  t[s]:     44.66
	FillingsUpdate:  mu: -0.124372711  nElectrons: 9.000000
SCF: Cycle: 178   F: -28.218828725746643   dF: -3.929e-08   |Residual|: 1.695e-06   |deigs|: 3.238e-06  t[s]:     44.89
	FillingsUpdate:  mu: -0.124374891  nElectrons: 9.000000
SCF: Cycle: 179   F: -28.218828773133573   dF: -4.739e-08   |Residual|: 2.653e-06   |deigs|: 3.940e-06  t[s]:     45.13
	FillingsUpdate:  mu: -0.124384852  nElectrons: 9.000000
SCF: Cycle: 180   F: -28.218828818473121   dF: -4.534e-08   |Residual|: 6.666e-06   |deigs|: 1.328e-05  t[s]:     45.39
	FillingsUpdate:  mu: -0.124384604  nElectrons: 9.000000
SCF: Cycle: 181   F: -28.218828854408557   dF: -3.594e-08   |Residual|: 9.108e-06   |deigs|: 2.585e-06  t[s]:     45.62
	FillingsUpdate:  mu: -0.124384140  nElectrons: 9.000000
SCF: Cycle: 182   F: -28.218828889655018   dF: -3.525e-08   |Residual|: 7.383e-06   |deigs|: 2.515e-06  t[s]:     45.86
	FillingsUpdate:  mu: -0.124384428  nElectrons: 9.000000
SCF: Cycle: 183   F: -28.218828923927621   dF: -3.427e-08   |Residual|: 6.813e-06   |deigs|: 2.222e-06  t[s]:     46.09
	FillingsUpdate:  mu: -0.124378885  nElectrons: 9.000000
SCF: Cycle: 184   F: -28.218828955044277   dF: -3.112e-08   |Residual|: 3.363e-06   |deigs|: 7.990e-06  t[s]:     46.34
	FillingsUpdate:  mu: -0.124378033  nElectrons: 9.000000
SCF: Cycle: 185   F: -28.218828988716265   dF: -3.367e-08   |Residual|: 2.874e-06   |deigs|: 2.401e-06  t[s]:     46.58
	FillingsUpdate:  mu: -0.124382929  nElectrons: 9.000000
SCF: Cycle: 186   F: -28.218829021663680   dF: -3.295e-08   |Residual|: 4.798e-06   |deigs|: 7.176e-06  t[s]:     46.82
	FillingsUpdate:  mu: -0.124384344  nElectrons: 9.000000
SCF: Cycle: 187   F: -28.218829051107431   dF: -2.944e-08   |Residual|: 4.269e-06   |deigs|: 2.620e-06  t[s]:     47.05
	FillingsUpdate:  mu: -0.124383495  nElectrons: 9.000000
SCF: Cycle: 188   F: -28.218829083975734   dF: -3.287e-08   |Residual|: 2.895e-06   |deigs|: 2.366e-06  t[s]:     47.28
	FillingsUpdate:  mu: -0.124384948  nElectrons: 9.000000
SCF: Cycle: 189   F: -28.218829112426285   dF: -2.845e-08   |Residual|: 4.245e-06   |deigs|: 2.620e-06  t[s]:     47.51
	FillingsUpdate:  mu: -0.124383750  nElectrons: 9.000000
SCF: Cycle: 190   F: -28.218829144459175   dF: -3.203e-08   |Residual|: 3.822e-06   |deigs|: 3.492e-06  t[s]:     47.74
	FillingsUpdate:  mu: -0.124384724  nElectrons: 9.000000
SCF: Cycle: 191   F: -28.218829175136644   dF: -3.068e-08   |Residual|: 5.778e-06   |deigs|: 2.589e-06  t[s]:     47.97
	FillingsUpdate:  mu: -0.124384774  nElectrons: 9.000000
SCF: Cycle: 192   F: -28.218829201363583   dF: -2.623e-08   |Residual|: 5.865e-06   |deigs|: 1.695e-06  t[s]:     48.21
	FillingsUpdate:  mu: -0.124390166  nElectrons: 9.000000
SCF: Cycle: 193   F: -28.218829226864099   dF: -2.550e-08   |Residual|: 1.008e-06   |deigs|: 6.570e-06  t[s]:     48.46
	FillingsUpdate:  mu: -0.124388126  nElectrons: 9.000000
SCF: Cycle: 194   F: -28.218829250863639   dF: -2.400e-08   |Residual|: 1.529e-06   |deigs|: 2.947e-06  t[s]:     48.69
	FillingsUpdate:  mu: -0.124388208  nElectrons: 9.000000
SCF: Cycle: 195   F: -28.218829274898699   dF: -2.404e-08   |Residual|: 3.042e-06   |deigs|: 1.647e-06  t[s]:     48.93
	FillingsUpdate:  mu: -0.124388115  nElectrons: 9.000000
SCF: Cycle: 196   F: -28.218829297302115   dF: -2.240e-08   |Residual|: 2.609e-06   |deigs|: 1.421e-06  t[s]:     49.16
	FillingsUpdate:  mu: -0.124390375  nElectrons: 9.000000
SCF: Cycle: 197   F: -28.218829317796242   dF: -2.049e-08   |Residual|: 4.349e-06   |deigs|: 2.513e-06  t[s]:     49.40
	FillingsUpdate:  mu: -0.124392133  nElectrons: 9.000000
SCF: Cycle: 198   F: -28.218829340403389   dF: -2.261e-08   |Residual|: 5.156e-06   |deigs|: 2.608e-06  t[s]:     49.64
	FillingsUpdate:  mu: -0.124393437  nElectrons: 9.000000
SCF: Cycle: 199   F: -28.218829361003419   dF: -2.060e-08   |Residual|: 4.253e-06   |deigs|: 2.215e-06  t[s]:     49.87
	FillingsUpdate:  mu: -0.124394629  nElectrons: 9.000000
SCF: Cycle: 200   F: -28.218829381115725   dF: -2.011e-08   |Residual|: 3.807e-06   |deigs|: 1.823e-06  t[s]:     50.09
	FillingsUpdate:  mu: -0.124394580  nElectrons: 9.000000
SCF: Cycle: 201   F: -28.218829400805927   dF: -1.969e-08   |Residual|: 4.265e-06   |deigs|: 1.300e-06  t[s]:     50.33
	FillingsUpdate:  mu: -0.124396247  nElectrons: 9.000000
SCF: Cycle: 202   F: -28.218829416650713   dF: -1.584e-08   |Residual|: 6.224e-06   |deigs|: 2.532e-06  t[s]:     50.56
	FillingsUpdate:  mu: -0.124395859  nElectrons: 9.000000
SCF: Cycle: 203   F: -28.218829436720046   dF: -2.007e-08   |Residual|: 8.431e-06   |deigs|: 1.394e-06  t[s]:     50.79
	FillingsUpdate:  mu: -0.124395877  nElectrons: 9.000000
SCF: Cycle: 204   F: -28.218829454925544   dF: -1.821e-08   |Residual|: 5.643e-06   |deigs|: 2.506e-06  t[s]:     51.03
	FillingsUpdate:  mu: -0.124396194  nElectrons: 9.000000
SCF: Cycle: 205   F: -28.218829469303419   dF: -1.438e-08   |Residual|: 6.182e-06   |deigs|: 1.104e-06  t[s]:     51.26
	FillingsUpdate:  mu: -0.124397175  nElectrons: 9.000000
SCF: Cycle: 206   F: -28.218829483052559   dF: -1.375e-08   |Residual|: 4.387e-06   |deigs|: 1.754e-06  t[s]:     51.50
	FillingsUpdate:  mu: -0.124399432  nElectrons: 9.000000
SCF: Cycle: 207   F: -28.218829496281181   dF: -1.323e-08   |Residual|: 5.501e-06   |deigs|: 3.323e-06  t[s]:     51.73
	FillingsUpdate:  mu: -0.124399829  nElectrons: 9.000000
SCF: Cycle: 208   F: -28.218829508906410   dF: -1.263e-08   |Residual|: 3.130e-06   |deigs|: 3.208e-06  t[s]:     51.96
	FillingsUpdate:  mu: -0.124399417  nElectrons: 9.000000
SCF: Cycle: 209   F: -28.218829521499128   dF: -1.259e-08   |Residual|: 2.077e-06   |deigs|: 1.055e-06  t[s]:     52.19
	FillingsUpdate:  mu: -0.124399568  nElectrons: 9.000000
SCF: Cycle: 210   F: -28.218829533468217   dF: -1.197e-08   |Residual|: 1.282e-06   |deigs|: 8.881e-07  t[s]:     52.42
	FillingsUpdate:  mu: -0.124399410  nElectrons: 9.000000
SCF: Cycle: 211   F: -28.218829546358247   dF: -1.289e-08   |Residual|: 8.808e-07   |deigs|: 1.457e-06  t[s]:     52.65
	FillingsUpdate:  mu: -0.124399439  nElectrons: 9.000000
SCF: Cycle: 212   F: -28.218829558728515   dF: -1.237e-08   |Residual|: 4.399e-07   |deigs|: 8.165e-07  t[s]:     52.88
	FillingsUpdate:  mu: -0.124399458  nElectrons: 9.000000
SCF: Cycle: 213   F: -28.218829572026273   dF: -1.330e-08   |Residual|: 1.636e-07   |deigs|: 8.649e-07  t[s]:     53.11
	FillingsUpdate:  mu: -0.124399447  nElectrons: 9.000000
SCF: Cycle: 214   F: -28.218829585056916   dF: -1.303e-08   |Residual|: 1.770e-07   |deigs|: 8.188e-07  t[s]:     53.34
	FillingsUpdate:  mu: -0.124399446  nElectrons: 9.000000
SCF: Cycle: 215   F: -28.218829595114904   dF: -1.006e-08   |Residual|: 2.251e-07   |deigs|: 6.407e-07  t[s]:     53.57
	FillingsUpdate:  mu: -0.124399517  nElectrons: 9.000000
SCF: Cycle: 216   F: -28.218829606048448   dF: -1.093e-08   |Residual|: 1.184e-07   |deigs|: 6.947e-07  t[s]:     53.80
	FillingsUpdate:  mu: -0.124399600  nElectrons: 9.000000
SCF: Cycle: 217   F: -28.218829615560793   dF: -9.512e-09   |Residual|: 1.640e-07   |deigs|: 6.123e-07  t[s]:     54.03
	FillingsUpdate:  mu: -0.124399646  nElectrons: 9.000000
SCF: Cycle: 218   F: -28.218829625046830   dF: -9.486e-09   |Residual|: 4.399e-07   |deigs|: 5.672e-07  t[s]:     54.26
SCF: Converged (|Delta E|<1.000000e-08 for 2 iters).


# Ionic positions in lattice coordinates:
ion K   0.000000000000000   0.000000000000000   0.000000000000000 0

# Forces in Lattice coordinates:
force K   0.000000000000000  -0.000000000000000   0.000000000000000 0

# Energy components:
   Eewald =      -39.2348393485492650
       EH =      -17.1329135260841028
     Eloc =       24.9123555447167533
      Enl =       -2.9631071582548829
   Epulay =       -0.0000000093980978
      Exc =       -4.5191950638119538
       KE =       10.7287010474166706
-------------------------------------
     Etot =      -28.2089985139648860
       TS =        0.0098311110819454
-------------------------------------
        F =      -28.2188296250468298

IonicMinimize: Iter:   0  F: -28.218829625046830  |grad|_K:  0.000e+00  t[s]:     54.28
IonicMinimize: Converged (|grad|_K<1.000000e-04).

#--- Lowdin population analysis ---
# oxidation-state K +0.718

End date and time: Sun Jan 16 14:50:58 2022  (Duration: 0-0:00:54.28)
Done!
