1.52
--------------------------------------------------------------------------
The library attempted to open the following supporting CUDA libraries,
but each of them failed.  CUDA-aware support is disabled.
libcuda.so.1: cannot open shared object file: No such file or directory
libcuda.dylib: cannot open shared object file: No such file or directory
/usr/lib64/libcuda.so.1: cannot open shared object file: No such file or directory
/usr/lib64/libcuda.dylib: cannot open shared object file: No such file or directory
If you are not interested in CUDA-aware support, then run with
--mca opal_warn_on_missing_libcuda 0 to suppress this message.  If you are interested
in CUDA-aware support, then try setting LD_LIBRARY_PATH to the location
of libcuda.so.1 to get passed this issue.
--------------------------------------------------------------------------
--------------------------------------------------------------------------
No OpenFabrics connection schemes reported that they were able to be
used on a specific port.  As such, the openib BTL (OpenFabrics
support) will be disabled for this port.

  Local host:           d-5-3-1
  Local device:         mlx5_1
  Local port:           1
  CPCs attempted:       rdmacm, udcm
--------------------------------------------------------------------------

*************** JDFTx 1.6.0 (git hash 42ebbcc2) ***************

Start date and time: Sun Jan 16 14:50:37 2022
Executable jdftx with command-line: -i Potassium.in
Running on hosts (process indices):  d-5-3-1 (0-18)
Divided in process groups (process indices):  0 (0)  1 (1)  2 (2)  3 (3)  4 (4)  5 (5)  6 (6)  7 (7)  8 (8)  9 (9)  10 (10)  11 (11)  12 (12)  13 (13)  14 (14)  15 (15)  16 (16)  17 (17)  18 (18)
Resource initialization completed at t[s]:      0.00
Run totals: 19 processes, 48 threads, 0 GPUs


Input parsed successfully to the following command list (including defaults):

basis kpoint-dependent
coords-type Lattice
core-overlap-check vector
coulomb-interaction Slab 001
davidson-band-ratio 1.1
dump End None
dump-name $INPUT.$VAR
elec-cutoff 20
elec-eigen-algo Davidson
elec-ex-corr gga-PBE
elec-smearing Fermi 0.01
electronic-minimize  \
	dirUpdateScheme      FletcherReeves \
	linminMethod         DirUpdateRecommended \
	nIterations          100 \
	history              15 \
	knormThreshold       0 \
	energyDiffThreshold  1e-08 \
	nEnergyDiff          2 \
	alphaTstart          1 \
	alphaTmin            1e-10 \
	updateTestStepSize   yes \
	alphaTreduceFactor   0.1 \
	alphaTincreaseFactor 3 \
	nAlphaAdjustMax      3 \
	wolfeEnergy          0.0001 \
	wolfeGradient        0.9 \
	fdTest               no
electronic-scf  \
	nIterations	10000 \
	energyDiffThreshold	1e-08 \
	residualThreshold	1e-07 \
	mixFraction	0.5 \
	qMetric	0.8 \
	history	10 \
	nEigSteps	2 \
	eigDiffThreshold	1e-08 \
	mixedVariable	Density \
	qKerker	0.8 \
	qKappa	-1 \
	verbose	no \
	mixFractionMag	1.5
exchange-regularization WignerSeitzTruncated
fluid None
fluid-ex-corr (null) lda-PZ
fluid-gummel-loop 10 1.000000e-05
fluid-minimize  \
	dirUpdateScheme      PolakRibiere \
	linminMethod         DirUpdateRecommended \
	nIterations          100 \
	history              15 \
	knormThreshold       0 \
	energyDiffThreshold  0 \
	nEnergyDiff          2 \
	alphaTstart          1 \
	alphaTmin            1e-10 \
	updateTestStepSize   yes \
	alphaTreduceFactor   0.1 \
	alphaTincreaseFactor 3 \
	nAlphaAdjustMax      3 \
	wolfeEnergy          0.0001 \
	wolfeGradient        0.9 \
	fdTest               no
fluid-solvent H2O 55.338 ScalarEOS \
	epsBulk 78.4 \
	pMol 0.92466 \
	epsInf 1.77 \
	Pvap 1.06736e-10 \
	sigmaBulk 4.62e-05 \
	Rvdw 2.61727 \
	Res 1.42 \
	tauNuc 343133 \
	poleEl 15 7 1
forces-output-coords Positions
ion K   0.000000000000000   0.000000000000000   0.000000000000000 0
ion-species SG15/$ID_ONCV_PBE.upf
ion-width 0
ionic-minimize  \
	dirUpdateScheme      L-BFGS \
	linminMethod         DirUpdateRecommended \
	nIterations          0 \
	history              15 \
	knormThreshold       0.0001 \
	energyDiffThreshold  1e-06 \
	nEnergyDiff          2 \
	alphaTstart          1 \
	alphaTmin            1e-10 \
	updateTestStepSize   yes \
	alphaTreduceFactor   0.1 \
	alphaTincreaseFactor 3 \
	nAlphaAdjustMax      3 \
	wolfeEnergy          0.0001 \
	wolfeGradient        0.9 \
	fdTest               no
kpoint   0.000000000000   0.000000000000   0.000000000000  1.00000000000000
kpoint-folding 12 12 1 
latt-move-scale 1 1 1
latt-scale 1.52 1.52 1 
lattice  \
	   4.727486978767153   -2.363743489383575    0.000000000000000  \
	  -0.000000000000000    4.094123819672498    0.000000000000000  \
	   0.000000000000000    0.000000000000000   40.000000000000000 
lattice-minimize  \
	dirUpdateScheme      L-BFGS \
	linminMethod         DirUpdateRecommended \
	nIterations          0 \
	history              15 \
	knormThreshold       0 \
	energyDiffThreshold  1e-06 \
	nEnergyDiff          2 \
	alphaTstart          1 \
	alphaTmin            1e-10 \
	updateTestStepSize   yes \
	alphaTreduceFactor   0.1 \
	alphaTincreaseFactor 3 \
	nAlphaAdjustMax      3 \
	wolfeEnergy          0.0001 \
	wolfeGradient        0.9 \
	fdTest               no
lcao-params -1 1e-06 0.01
pcm-variant GLSSA13
spintype no-spin
subspace-rotation-factor 1 yes
symmetries automatic
symmetry-threshold 0.0001



---------- Setting up symmetries ----------

Found 24 point-group symmetries of the bravais lattice
Found 24 space-group symmetries with basis
Applied RMS atom displacement 0 bohrs to make symmetries exact.

---------- Initializing the Grid ----------
R = 
[      7.18578     -3.59289            0  ]
[            0      6.22307            0  ]
[            0            0           40  ]
unit cell volume = 1788.7
G =
[   0.874392    0.50483         -0  ]
[          0    1.00966         -0  ]
[         -0         -0    0.15708  ]
Minimum fftbox size, Smin = [  32  32  164  ]
Chosen fftbox size, S = [  32  32  168  ]

---------- Exchange Correlation functional ----------
Initalized PBE GGA exchange.
Initalized PBE GGA correlation.

---------- Setting up pseudopotentials ----------
Width of ionic core gaussian charges (only for fluid interactions / plotting) set to 0

Reading pseudopotential file '/home/gridsan/aligho/DFT/build-Nov24/pseudopotentials/SG15/K_ONCV_PBE.upf':
  'K' pseudopotential, 'PBE' functional
  Generated using ONCVPSP code by D. R. Hamann
  Author: Martin Schlipf and Francois Gygi  Date: 150915.
  9 valence electrons, 3 orbitals, 6 projectors, 2222 radial grid points, with lMax = 2
  Transforming local potential to a uniform radial grid of dG=0.02 with 1552 points.
  Transforming nonlocal projectors to a uniform radial grid of dG=0.02 with 432 points.
    3S    l: 0   occupation:  2.0   eigenvalue: -1.298836
    3P    l: 1   occupation:  6.0   eigenvalue: -0.691386
    4S    l: 0   occupation:  1.0   eigenvalue: -0.085223
  Transforming atomic orbitals to a uniform radial grid of dG=0.02 with 432 points.
  Core radius for overlap checks: 2.06 bohrs.
  Reading pulay file /home/gridsan/aligho/DFT/build-Nov24/pseudopotentials/SG15/K_ONCV_PBE.pulay ... using dE_dnG = -1.597219e-05 computed for Ecut = 20.

Initialized 1 species with 1 total atoms.

Folded 1 k-points by 12x12x1 to 144 k-points.

---------- Setting up k-points, bands, fillings ----------
Reduced to 19 k-points under symmetry. 
Computing the number of bands and number of electrons
Calculating initial fillings.
nElectrons:   9.000000   nBands: 6   nStates: 19

----- Setting up reduced wavefunction bases (one per k-point) -----
average nbasis = 7643.812 , ideal nbasis = 7641.480

---------- Setting up coulomb interaction ----------
Initialized slab truncation along lattice direction 001

---------- Setting up 2D ewald sum ----------
Optimum gaussian width for ewald sums = 3.989255 bohr.
Real space sums over 289 unit cells with max indices [  8  8  0  ]
Reciprocal space sums over 81 terms with max indices [  4  4  0  ]

---------- Allocating electronic variables ----------
Initializing wave functions:  linear combination of atomic orbitals
Note: number of bands (6) exceeds available atomic orbitals (5)
K pseudo-atom occupations:   s ( 2 1 )  p ( 6 )
	FillingsUpdate:  mu: -0.112040513  nElectrons: 9.000000
LCAOMinimize: Iter:   0  F: -28.3910105797377916  |grad|_K:  1.900e-05  alpha:  1.000e+00
	FillingsUpdate:  mu: -0.112029117  nElectrons: 9.000000
LCAOMinimize: Iter:   1  F: -28.3910107020825286  |grad|_K:  1.623e-07  alpha:  9.911e-01  linmin: -4.181e-02  cgtest:  8.742e-01  t[s]:      1.82
LCAOMinimize: Encountered beta<0, resetting CG.
	FillingsUpdate:  mu: -0.112028995  nElectrons: 9.000000
LCAOMinimize: Iter:   2  F: -28.3910107020909557  |grad|_K:  1.549e-08  alpha:  9.007e-01  linmin: -7.971e-02  cgtest:  9.946e-01  t[s]:      2.21
LCAOMinimize: Encountered beta<0, resetting CG.
LCAOMinimize: Converged (|Delta F|<1.000000e-06 for 2 iters).


---- Citations for features of the code used in this run ----

   Software package:
      R. Sundararaman, K. Letchworth-Weaver, K.A. Schwarz, D. Gunceler, Y. Ozhabes and T.A. Arias, 'JDFTx: software for joint density-functional theory', SoftwareX 6, 278 (2017)

   gga-PBE exchange-correlation functional:
      J.P. Perdew, K. Burke and M. Ernzerhof, Phys. Rev. Lett. 77, 3865 (1996)

   Pseudopotentials:
      M Schlipf and F Gygi, Comput. Phys. Commun. 196, 36 (2015)

   Truncated Coulomb potentials:
      R. Sundararaman and T.A. Arias, Phys. Rev. B 87, 165122 (2013)

This list may not be complete. Please suggest additional citations or
report any other bugs at https://github.com/shankar1729/jdftx/issues

Initialization completed successfully at t[s]:      2.26


-------- Electronic minimization -----------
Will mix electronic density at each iteration.
	FillingsUpdate:  mu: -0.112028995  nElectrons: 9.000000
	FillingsUpdate:  mu: -0.123168424  nElectrons: 9.000000
SCF: Cycle:  0   F: -28.396693944230645   dF: -5.683e-03   |Residual|: 1.643e-02   |deigs|: 1.861e-01  t[s]:      3.02
	FillingsUpdate:  mu: -0.122451792  nElectrons: 9.000000
SCF: Cycle:  1   F: -28.397122363269123   dF: -4.284e-04   |Residual|: 1.220e-02   |deigs|: 8.494e-03  t[s]:      3.55
	FillingsUpdate:  mu: -0.116892867  nElectrons: 9.000000
SCF: Cycle:  2   F: -28.397558722600227   dF: -4.364e-04   |Residual|: 5.806e-03   |deigs|: 5.600e-03  t[s]:      4.11
	FillingsUpdate:  mu: -0.114268861  nElectrons: 9.000000
SCF: Cycle:  3   F: -28.397763784845182   dF: -2.051e-04   |Residual|: 5.198e-03   |deigs|: 6.679e-03  t[s]:      4.65
[d-5-3-1:41181] 18 more processes have sent help message help-mpi-common-cuda.txt / dlopen failed
[d-5-3-1:41181] Set MCA parameter "orte_base_help_aggregate" to 0 to see all help / error messages
[d-5-3-1:41181] 18 more processes have sent help message help-mpi-btl-openib-cpc-base.txt / no cpcs for port
	FillingsUpdate:  mu: -0.112418829  nElectrons: 9.000000
SCF: Cycle:  4   F: -28.397897121655976   dF: -1.333e-04   |Residual|: 3.506e-03   |deigs|: 5.157e-03  t[s]:      5.21
	FillingsUpdate:  mu: -0.107182403  nElectrons: 9.000000
SCF: Cycle:  5   F: -28.398141930285902   dF: -2.448e-04   |Residual|: 1.964e-03   |deigs|: 8.235e-03  t[s]:      5.78
	FillingsUpdate:  mu: -0.107518572  nElectrons: 9.000000
SCF: Cycle:  6   F: -28.398399352633533   dF: -2.574e-04   |Residual|: 1.554e-03   |deigs|: 3.199e-03  t[s]:      6.35
	FillingsUpdate:  mu: -0.109789020  nElectrons: 9.000000
SCF: Cycle:  7   F: -28.398681720312283   dF: -2.824e-04   |Residual|: 2.146e-03   |deigs|: 3.497e-03  t[s]:      6.93
	FillingsUpdate:  mu: -0.106996975  nElectrons: 9.000000
SCF: Cycle:  8   F: -28.398765485584789   dF: -8.377e-05   |Residual|: 1.306e-03   |deigs|: 3.305e-03  t[s]:      7.52
	FillingsUpdate:  mu: -0.107718853  nElectrons: 9.000000
SCF: Cycle:  9   F: -28.398818352530803   dF: -5.287e-05   |Residual|: 1.116e-03   |deigs|: 1.379e-03  t[s]:      8.11
	FillingsUpdate:  mu: -0.105200747  nElectrons: 9.000000
SCF: Cycle: 10   F: -28.398868278780000   dF: -4.993e-05   |Residual|: 8.482e-04   |deigs|: 2.778e-03  t[s]:      8.70
	FillingsUpdate:  mu: -0.101980035  nElectrons: 9.000000
SCF: Cycle: 11   F: -28.398911709304677   dF: -4.343e-05   |Residual|: 1.125e-03   |deigs|: 3.544e-03  t[s]:      9.29
	FillingsUpdate:  mu: -0.100176247  nElectrons: 9.000000
SCF: Cycle: 12   F: -28.398930552017628   dF: -1.884e-05   |Residual|: 5.925e-04   |deigs|: 2.061e-03  t[s]:      9.87
	FillingsUpdate:  mu: -0.100949050  nElectrons: 9.000000
SCF: Cycle: 13   F: -28.398944077995868   dF: -1.353e-05   |Residual|: 5.972e-04   |deigs|: 9.519e-04  t[s]:     10.46
	FillingsUpdate:  mu: -0.098426608  nElectrons: 9.000000
SCF: Cycle: 14   F: -28.398956571000809   dF: -1.249e-05   |Residual|: 4.660e-04   |deigs|: 2.708e-03  t[s]:     11.04
	FillingsUpdate:  mu: -0.097039879  nElectrons: 9.000000
SCF: Cycle: 15   F: -28.398962700397654   dF: -6.129e-06   |Residual|: 3.576e-04   |deigs|: 1.687e-03  t[s]:     11.61
	FillingsUpdate:  mu: -0.098755004  nElectrons: 9.000000
SCF: Cycle: 16   F: -28.398966699267365   dF: -3.999e-06   |Residual|: 1.022e-04   |deigs|: 1.877e-03  t[s]:     12.18
	FillingsUpdate:  mu: -0.098664476  nElectrons: 9.000000
SCF: Cycle: 17   F: -28.398969309275781   dF: -2.610e-06   |Residual|: 6.830e-05   |deigs|: 1.470e-04  t[s]:     12.71
	FillingsUpdate:  mu: -0.098650990  nElectrons: 9.000000
SCF: Cycle: 18   F: -28.398972167413810   dF: -2.858e-06   |Residual|: 4.825e-05   |deigs|: 2.301e-04  t[s]:     13.22
	FillingsUpdate:  mu: -0.098748235  nElectrons: 9.000000
SCF: Cycle: 19   F: -28.398974676848169   dF: -2.509e-06   |Residual|: 1.323e-05   |deigs|: 3.810e-04  t[s]:     13.76
	FillingsUpdate:  mu: -0.098773149  nElectrons: 9.000000
SCF: Cycle: 20   F: -28.398976232011226   dF: -1.555e-06   |Residual|: 8.469e-06   |deigs|: 7.258e-05  t[s]:     14.26
	FillingsUpdate:  mu: -0.098779543  nElectrons: 9.000000
SCF: Cycle: 21   F: -28.398977321234227   dF: -1.089e-06   |Residual|: 9.147e-06   |deigs|: 5.349e-05  t[s]:     14.76
	FillingsUpdate:  mu: -0.098780678  nElectrons: 9.000000
SCF: Cycle: 22   F: -28.398978136373266   dF: -8.151e-07   |Residual|: 1.123e-05   |deigs|: 4.648e-05  t[s]:     15.27
	FillingsUpdate:  mu: -0.098787876  nElectrons: 9.000000
SCF: Cycle: 23   F: -28.398978733460883   dF: -5.971e-07   |Residual|: 2.084e-05   |deigs|: 4.499e-05  t[s]:     15.80
	FillingsUpdate:  mu: -0.098788623  nElectrons: 9.000000
SCF: Cycle: 24   F: -28.398979294247908   dF: -5.608e-07   |Residual|: 1.828e-05   |deigs|: 3.854e-05  t[s]:     16.31
	FillingsUpdate:  mu: -0.098788395  nElectrons: 9.000000
SCF: Cycle: 25   F: -28.398979698581389   dF: -4.043e-07   |Residual|: 2.188e-05   |deigs|: 3.452e-05  t[s]:     16.81
	FillingsUpdate:  mu: -0.098791869  nElectrons: 9.000000
SCF: Cycle: 26   F: -28.398979990761674   dF: -2.922e-07   |Residual|: 2.462e-05   |deigs|: 3.203e-05  t[s]:     17.33
	FillingsUpdate:  mu: -0.098791480  nElectrons: 9.000000
SCF: Cycle: 27   F: -28.398980226420033   dF: -2.357e-07   |Residual|: 2.406e-05   |deigs|: 2.885e-05  t[s]:     17.87
	FillingsUpdate:  mu: -0.098793802  nElectrons: 9.000000
SCF: Cycle: 28   F: -28.398980430886493   dF: -2.045e-07   |Residual|: 2.753e-05   |deigs|: 2.795e-05  t[s]:     18.40
	FillingsUpdate:  mu: -0.098790049  nElectrons: 9.000000
SCF: Cycle: 29   F: -28.398980587549900   dF: -1.567e-07   |Residual|: 2.691e-05   |deigs|: 2.574e-05  t[s]:     18.94
	FillingsUpdate:  mu: -0.098790248  nElectrons: 9.000000
SCF: Cycle: 30   F: -28.398980714594643   dF: -1.270e-07   |Residual|: 2.669e-05   |deigs|: 2.159e-05  t[s]:     19.48
	FillingsUpdate:  mu: -0.098788824  nElectrons: 9.000000
SCF: Cycle: 31   F: -28.398980817831600   dF: -1.032e-07   |Residual|: 2.657e-05   |deigs|: 2.231e-05  t[s]:     20.02
	FillingsUpdate:  mu: -0.098786925  nElectrons: 9.000000
SCF: Cycle: 32   F: -28.398980903502157   dF: -8.567e-08   |Residual|: 2.685e-05   |deigs|: 1.986e-05  t[s]:     20.56
	FillingsUpdate:  mu: -0.098786839  nElectrons: 9.000000
SCF: Cycle: 33   F: -28.398980976086087   dF: -7.258e-08   |Residual|: 2.639e-05   |deigs|: 1.748e-05  t[s]:     21.08
	FillingsUpdate:  mu: -0.098793744  nElectrons: 9.000000
SCF: Cycle: 34   F: -28.398981031248319   dF: -5.516e-08   |Residual|: 3.250e-05   |deigs|: 1.793e-05  t[s]:     21.60
	FillingsUpdate:  mu: -0.098791478  nElectrons: 9.000000
SCF: Cycle: 35   F: -28.398981099950415   dF: -6.870e-08   |Residual|: 3.386e-05   |deigs|: 1.483e-05  t[s]:     22.14
	FillingsUpdate:  mu: -0.098793300  nElectrons: 9.000000
SCF: Cycle: 36   F: -28.398981154754313   dF: -5.480e-08   |Residual|: 3.127e-05   |deigs|: 1.541e-05  t[s]:     22.68
	FillingsUpdate:  mu: -0.098797602  nElectrons: 9.000000
SCF: Cycle: 37   F: -28.398981196744288   dF: -4.199e-08   |Residual|: 3.399e-05   |deigs|: 1.479e-05  t[s]:     23.25
	FillingsUpdate:  mu: -0.098790427  nElectrons: 9.000000
SCF: Cycle: 38   F: -28.398981289963324   dF: -9.322e-08   |Residual|: 3.843e-05   |deigs|: 7.076e-05  t[s]:     23.79
	FillingsUpdate:  mu: -0.098761791  nElectrons: 9.000000
SCF: Cycle: 39   F: -28.398981403335551   dF: -1.134e-07   |Residual|: 1.004e-05   |deigs|: 1.003e-04  t[s]:     24.34
	FillingsUpdate:  mu: -0.098719857  nElectrons: 9.000000
SCF: Cycle: 40   F: -28.398981438488558   dF: -3.515e-08   |Residual|: 2.257e-05   |deigs|: 6.030e-05  t[s]:     24.94
	FillingsUpdate:  mu: -0.098737578  nElectrons: 9.000000
SCF: Cycle: 41   F: -28.398981468926696   dF: -3.044e-08   |Residual|: 4.561e-06   |deigs|: 3.410e-05  t[s]:     25.51
	FillingsUpdate:  mu: -0.098742831  nElectrons: 9.000000
SCF: Cycle: 42   F: -28.398981498693864   dF: -2.977e-08   |Residual|: 3.236e-06   |deigs|: 1.650e-05  t[s]:     26.04
	FillingsUpdate:  mu: -0.098753256  nElectrons: 9.000000
SCF: Cycle: 43   F: -28.398981525887116   dF: -2.719e-08   |Residual|: 1.940e-06   |deigs|: 1.996e-05  t[s]:     26.58
	FillingsUpdate:  mu: -0.098753576  nElectrons: 9.000000
SCF: Cycle: 44   F: -28.398981575958295   dF: -5.007e-08   |Residual|: 8.066e-07   |deigs|: 2.518e-05  t[s]:     27.07
	FillingsUpdate:  mu: -0.098754103  nElectrons: 9.000000
SCF: Cycle: 45   F: -28.398981614997030   dF: -3.904e-08   |Residual|: 8.896e-07   |deigs|: 2.136e-05  t[s]:     27.58
	FillingsUpdate:  mu: -0.098754819  nElectrons: 9.000000
SCF: Cycle: 46   F: -28.398981645082213   dF: -3.009e-08   |Residual|: 8.756e-07   |deigs|: 1.713e-05  t[s]:     28.08
	FillingsUpdate:  mu: -0.098753550  nElectrons: 9.000000
SCF: Cycle: 47   F: -28.398981673129818   dF: -2.805e-08   |Residual|: 7.514e-07   |deigs|: 1.684e-05  t[s]:     28.58
	FillingsUpdate:  mu: -0.098753855  nElectrons: 9.000000
SCF: Cycle: 48   F: -28.398981700370218   dF: -2.724e-08   |Residual|: 1.074e-06   |deigs|: 1.671e-05  t[s]:     29.07
	FillingsUpdate:  mu: -0.098754084  nElectrons: 9.000000
SCF: Cycle: 49   F: -28.398981726050994   dF: -2.568e-08   |Residual|: 1.046e-06   |deigs|: 1.640e-05  t[s]:     29.57
	FillingsUpdate:  mu: -0.098754130  nElectrons: 9.000000
SCF: Cycle: 50   F: -28.398981750320662   dF: -2.427e-08   |Residual|: 1.131e-06   |deigs|: 1.584e-05  t[s]:     30.07
	FillingsUpdate:  mu: -0.098754449  nElectrons: 9.000000
SCF: Cycle: 51   F: -28.398981773310361   dF: -2.299e-08   |Residual|: 1.198e-06   |deigs|: 1.551e-05  t[s]:     30.58
	FillingsUpdate:  mu: -0.098754317  nElectrons: 9.000000
SCF: Cycle: 52   F: -28.398981795605728   dF: -2.230e-08   |Residual|: 1.602e-06   |deigs|: 1.524e-05  t[s]:     31.09
	FillingsUpdate:  mu: -0.098754470  nElectrons: 9.000000
SCF: Cycle: 53   F: -28.398981816739902   dF: -2.113e-08   |Residual|: 1.757e-06   |deigs|: 1.482e-05  t[s]:     31.59
	FillingsUpdate:  mu: -0.098754539  nElectrons: 9.000000
SCF: Cycle: 54   F: -28.398981836882964   dF: -2.014e-08   |Residual|: 2.140e-06   |deigs|: 1.461e-05  t[s]:     32.08
	FillingsUpdate:  mu: -0.098754639  nElectrons: 9.000000
SCF: Cycle: 55   F: -28.398981856138285   dF: -1.926e-08   |Residual|: 2.130e-06   |deigs|: 1.414e-05  t[s]:     32.58
	FillingsUpdate:  mu: -0.098754895  nElectrons: 9.000000
SCF: Cycle: 56   F: -28.398981874319901   dF: -1.818e-08   |Residual|: 2.305e-06   |deigs|: 1.386e-05  t[s]:     33.08
	FillingsUpdate:  mu: -0.098754655  nElectrons: 9.000000
SCF: Cycle: 57   F: -28.398981891491058   dF: -1.717e-08   |Residual|: 1.547e-06   |deigs|: 1.310e-05  t[s]:     33.58
	FillingsUpdate:  mu: -0.098754760  nElectrons: 9.000000
SCF: Cycle: 58   F: -28.398981908266972   dF: -1.678e-08   |Residual|: 1.689e-06   |deigs|: 1.277e-05  t[s]:     34.08
	FillingsUpdate:  mu: -0.098754857  nElectrons: 9.000000
SCF: Cycle: 59   F: -28.398981924878306   dF: -1.661e-08   |Residual|: 1.801e-06   |deigs|: 1.231e-05  t[s]:     34.57
	FillingsUpdate:  mu: -0.098754953  nElectrons: 9.000000
SCF: Cycle: 60   F: -28.398981941106971   dF: -1.623e-08   |Residual|: 1.957e-06   |deigs|: 1.233e-05  t[s]:     35.07
	FillingsUpdate:  mu: -0.098755072  nElectrons: 9.000000
SCF: Cycle: 61   F: -28.398981957084715   dF: -1.598e-08   |Residual|: 2.100e-06   |deigs|: 1.181e-05  t[s]:     35.55
	FillingsUpdate:  mu: -0.098755090  nElectrons: 9.000000
SCF: Cycle: 62   F: -28.398981971978575   dF: -1.489e-08   |Residual|: 2.281e-06   |deigs|: 1.137e-05  t[s]:     36.05
	FillingsUpdate:  mu: -0.098755151  nElectrons: 9.000000
SCF: Cycle: 63   F: -28.398981985702783   dF: -1.372e-08   |Residual|: 1.980e-06   |deigs|: 1.066e-05  t[s]:     36.56
	FillingsUpdate:  mu: -0.098755150  nElectrons: 9.000000
SCF: Cycle: 64   F: -28.398981998288882   dF: -1.259e-08   |Residual|: 2.021e-06   |deigs|: 9.738e-06  t[s]:     37.06
	FillingsUpdate:  mu: -0.098755279  nElectrons: 9.000000
SCF: Cycle: 65   F: -28.398982010258244   dF: -1.197e-08   |Residual|: 2.063e-06   |deigs|: 9.294e-06  t[s]:     37.55
	FillingsUpdate:  mu: -0.098755415  nElectrons: 9.000000
SCF: Cycle: 66   F: -28.398982028529474   dF: -1.827e-08   |Residual|: 2.282e-06   |deigs|: 1.448e-05  t[s]:     38.03
	FillingsUpdate:  mu: -0.098755550  nElectrons: 9.000000
SCF: Cycle: 67   F: -28.398982043535725   dF: -1.501e-08   |Residual|: 2.664e-06   |deigs|: 1.174e-05  t[s]:     38.52
	FillingsUpdate:  mu: -0.098755830  nElectrons: 9.000000
SCF: Cycle: 68   F: -28.398982071900896   dF: -2.837e-08   |Residual|: 2.064e-06   |deigs|: 2.236e-05  t[s]:     39.00
	FillingsUpdate:  mu: -0.098755680  nElectrons: 9.000000
SCF: Cycle: 69   F: -28.398982095059921   dF: -2.316e-08   |Residual|: 2.380e-06   |deigs|: 1.786e-05  t[s]:     39.48
	FillingsUpdate:  mu: -0.098755751  nElectrons: 9.000000
SCF: Cycle: 70   F: -28.398982111689264   dF: -1.663e-08   |Residual|: 2.417e-06   |deigs|: 1.262e-05  t[s]:     39.95
	FillingsUpdate:  mu: -0.098756105  nElectrons: 9.000000
SCF: Cycle: 71   F: -28.398982125426336   dF: -1.374e-08   |Residual|: 2.627e-06   |deigs|: 1.038e-05  t[s]:     40.42
	FillingsUpdate:  mu: -0.098756029  nElectrons: 9.000000
SCF: Cycle: 72   F: -28.398982135206847   dF: -9.781e-09   |Residual|: 2.996e-06   |deigs|: 7.221e-06  t[s]:     40.90
	FillingsUpdate:  mu: -0.098756108  nElectrons: 9.000000
SCF: Cycle: 73   F: -28.398982143526705   dF: -8.320e-09   |Residual|: 3.060e-06   |deigs|: 6.136e-06  t[s]:     41.39
SCF: Converged (|Delta E|<1.000000e-08 for 2 iters).


# Ionic positions in lattice coordinates:
ion K   0.000000000000000   0.000000000000000   0.000000000000000 0

# Forces in Lattice coordinates:
force K  -0.000000000000000   0.000000000000000   0.000000000000000 0

# Energy components:
   Eewald =      -23.7474027635956091
       EH =       -0.9022415430896438
     Eloc =       -6.6193536273198825
      Enl =       -2.7674375830576601
   Epulay =        0.0000000208292628
      Exc =       -4.2949300622468840
       KE =        9.9395485945631563
-------------------------------------
     Etot =      -28.3918169639172646
       TS =        0.0071651796094416
-------------------------------------
        F =      -28.3989821435267054

IonicMinimize: Iter:   0  F: -28.398982143526705  |grad|_K:  0.000e+00  t[s]:     41.44
IonicMinimize: Converged (|grad|_K<1.000000e-04).

#--- Lowdin population analysis ---
# oxidation-state K +0.101

End date and time: Sun Jan 16 14:51:18 2022  (Duration: 0-0:00:41.44)
Done!
