2.51
--------------------------------------------------------------------------
The library attempted to open the following supporting CUDA libraries,
but each of them failed.  CUDA-aware support is disabled.
libcuda.so.1: cannot open shared object file: No such file or directory
libcuda.dylib: cannot open shared object file: No such file or directory
/usr/lib64/libcuda.so.1: cannot open shared object file: No such file or directory
/usr/lib64/libcuda.dylib: cannot open shared object file: No such file or directory
If you are not interested in CUDA-aware support, then run with
--mca opal_warn_on_missing_libcuda 0 to suppress this message.  If you are interested
in CUDA-aware support, then try setting LD_LIBRARY_PATH to the location
of libcuda.so.1 to get passed this issue.
--------------------------------------------------------------------------
--------------------------------------------------------------------------
No OpenFabrics connection schemes reported that they were able to be
used on a specific port.  As such, the openib BTL (OpenFabrics
support) will be disabled for this port.

  Local host:           d-6-15-3
  Local device:         mlx5_1
  Local port:           1
  CPCs attempted:       rdmacm, udcm
--------------------------------------------------------------------------

*************** JDFTx 1.6.0 (git hash 42ebbcc2) ***************

Start date and time: Sun Jan 16 14:52:17 2022
Executable jdftx with command-line: -i Potassium.in
Running on hosts (process indices):  d-6-15-3 (0-18)
Divided in process groups (process indices):  0 (0)  1 (1)  2 (2)  3 (3)  4 (4)  5 (5)  6 (6)  7 (7)  8 (8)  9 (9)  10 (10)  11 (11)  12 (12)  13 (13)  14 (14)  15 (15)  16 (16)  17 (17)  18 (18)
Resource initialization completed at t[s]:      0.00
Run totals: 19 processes, 48 threads, 0 GPUs


Input parsed successfully to the following command list (including defaults):

basis kpoint-dependent
coords-type Lattice
core-overlap-check vector
coulomb-interaction Slab 001
davidson-band-ratio 1.1
dump End None
dump-name $INPUT.$VAR
elec-cutoff 20
elec-eigen-algo Davidson
elec-ex-corr gga-PBE
elec-smearing Fermi 0.01
electronic-minimize  \
	dirUpdateScheme      FletcherReeves \
	linminMethod         DirUpdateRecommended \
	nIterations          100 \
	history              15 \
	knormThreshold       0 \
	energyDiffThreshold  1e-08 \
	nEnergyDiff          2 \
	alphaTstart          1 \
	alphaTmin            1e-10 \
	updateTestStepSize   yes \
	alphaTreduceFactor   0.1 \
	alphaTincreaseFactor 3 \
	nAlphaAdjustMax      3 \
	wolfeEnergy          0.0001 \
	wolfeGradient        0.9 \
	fdTest               no
electronic-scf  \
	nIterations	10000 \
	energyDiffThreshold	1e-08 \
	residualThreshold	1e-07 \
	mixFraction	0.5 \
	qMetric	0.8 \
	history	10 \
	nEigSteps	2 \
	eigDiffThreshold	1e-08 \
	mixedVariable	Density \
	qKerker	0.8 \
	qKappa	-1 \
	verbose	no \
	mixFractionMag	1.5
exchange-regularization WignerSeitzTruncated
fluid None
fluid-ex-corr (null) lda-PZ
fluid-gummel-loop 10 1.000000e-05
fluid-minimize  \
	dirUpdateScheme      PolakRibiere \
	linminMethod         DirUpdateRecommended \
	nIterations          100 \
	history              15 \
	knormThreshold       0 \
	energyDiffThreshold  0 \
	nEnergyDiff          2 \
	alphaTstart          1 \
	alphaTmin            1e-10 \
	updateTestStepSize   yes \
	alphaTreduceFactor   0.1 \
	alphaTincreaseFactor 3 \
	nAlphaAdjustMax      3 \
	wolfeEnergy          0.0001 \
	wolfeGradient        0.9 \
	fdTest               no
fluid-solvent H2O 55.338 ScalarEOS \
	epsBulk 78.4 \
	pMol 0.92466 \
	epsInf 1.77 \
	Pvap 1.06736e-10 \
	sigmaBulk 4.62e-05 \
	Rvdw 2.61727 \
	Res 1.42 \
	tauNuc 343133 \
	poleEl 15 7 1
forces-output-coords Positions
ion K   0.000000000000000   0.000000000000000   0.000000000000000 0
ion-species SG15/$ID_ONCV_PBE.upf
ion-width 0
ionic-minimize  \
	dirUpdateScheme      L-BFGS \
	linminMethod         DirUpdateRecommended \
	nIterations          0 \
	history              15 \
	knormThreshold       0.0001 \
	energyDiffThreshold  1e-06 \
	nEnergyDiff          2 \
	alphaTstart          1 \
	alphaTmin            1e-10 \
	updateTestStepSize   yes \
	alphaTreduceFactor   0.1 \
	alphaTincreaseFactor 3 \
	nAlphaAdjustMax      3 \
	wolfeEnergy          0.0001 \
	wolfeGradient        0.9 \
	fdTest               no
kpoint   0.000000000000   0.000000000000   0.000000000000  1.00000000000000
kpoint-folding 12 12 1 
latt-move-scale 1 1 1
latt-scale 2.51 2.51 1 
lattice  \
	   4.727486978767153   -2.363743489383575    0.000000000000000  \
	  -0.000000000000000    4.094123819672498    0.000000000000000  \
	   0.000000000000000    0.000000000000000   40.000000000000000 
lattice-minimize  \
	dirUpdateScheme      L-BFGS \
	linminMethod         DirUpdateRecommended \
	nIterations          0 \
	history              15 \
	knormThreshold       0 \
	energyDiffThreshold  1e-06 \
	nEnergyDiff          2 \
	alphaTstart          1 \
	alphaTmin            1e-10 \
	updateTestStepSize   yes \
	alphaTreduceFactor   0.1 \
	alphaTincreaseFactor 3 \
	nAlphaAdjustMax      3 \
	wolfeEnergy          0.0001 \
	wolfeGradient        0.9 \
	fdTest               no
lcao-params -1 1e-06 0.01
pcm-variant GLSSA13
spintype no-spin
subspace-rotation-factor 1 yes
symmetries automatic
symmetry-threshold 0.0001



---------- Setting up symmetries ----------

Found 24 point-group symmetries of the bravais lattice
Found 24 space-group symmetries with basis
Applied RMS atom displacement 0 bohrs to make symmetries exact.

---------- Initializing the Grid ----------
R = 
[       11.866       -5.933            0  ]
[            0      10.2763            0  ]
[            0            0           40  ]
unit cell volume = 4877.52
G =
[   0.529512   0.305714         -0  ]
[          0   0.611428         -0  ]
[         -0         -0    0.15708  ]
Minimum fftbox size, Smin = [  48  48  164  ]
Chosen fftbox size, S = [  48  48  168  ]

---------- Exchange Correlation functional ----------
Initalized PBE GGA exchange.
Initalized PBE GGA correlation.

---------- Setting up pseudopotentials ----------
Width of ionic core gaussian charges (only for fluid interactions / plotting) set to 0

Reading pseudopotential file '/home/gridsan/aligho/DFT/build-Nov24/pseudopotentials/SG15/K_ONCV_PBE.upf':
  'K' pseudopotential, 'PBE' functional
  Generated using ONCVPSP code by D. R. Hamann
  Author: Martin Schlipf and Francois Gygi  Date: 150915.
  9 valence electrons, 3 orbitals, 6 projectors, 2222 radial grid points, with lMax = 2
  Transforming local potential to a uniform radial grid of dG=0.02 with 1437 points.
  Transforming nonlocal projectors to a uniform radial grid of dG=0.02 with 432 points.
    3S    l: 0   occupation:  2.0   eigenvalue: -1.298836
    3P    l: 1   occupation:  6.0   eigenvalue: -0.691386
    4S    l: 0   occupation:  1.0   eigenvalue: -0.085223
  Transforming atomic orbitals to a uniform radial grid of dG=0.02 with 432 points.
  Core radius for overlap checks: 2.06 bohrs.
  Reading pulay file /home/gridsan/aligho/DFT/build-Nov24/pseudopotentials/SG15/K_ONCV_PBE.pulay ... using dE_dnG = -1.597219e-05 computed for Ecut = 20.

Initialized 1 species with 1 total atoms.

Folded 1 k-points by 12x12x1 to 144 k-points.

---------- Setting up k-points, bands, fillings ----------
Reduced to 19 k-points under symmetry. 
Computing the number of bands and number of electrons
Calculating initial fillings.
nElectrons:   9.000000   nBands: 6   nStates: 19

----- Setting up reduced wavefunction bases (one per k-point) -----
average nbasis = 20837.521 , ideal nbasis = 20837.122

---------- Setting up coulomb interaction ----------
Initialized slab truncation along lattice direction 001

---------- Setting up 2D ewald sum ----------
Optimum gaussian width for ewald sums = 6.587520 bohr.
Real space sums over 289 unit cells with max indices [  8  8  0  ]
Reciprocal space sums over 81 terms with max indices [  4  4  0  ]

---------- Allocating electronic variables ----------
Initializing wave functions:  linear combination of atomic orbitals
Note: number of bands (6) exceeds available atomic orbitals (5)
K pseudo-atom occupations:   s ( 2 1 )  p ( 6 )
	FillingsUpdate:  mu: -0.089290063  nElectrons: 9.000000
LCAOMinimize: Iter:   0  F: -28.3955827410658870  |grad|_K:  2.184e-05  alpha:  1.000e+00
	FillingsUpdate:  mu: -0.089296416  nElectrons: 9.000000
LCAOMinimize: Iter:   1  F: -28.3955829054261919  |grad|_K:  1.431e-07  alpha:  1.008e+00  linmin: -1.695e-02  cgtest:  4.015e-01  t[s]:      3.40
LCAOMinimize: Encountered beta<0, resetting CG.
	FillingsUpdate:  mu: -0.089296478  nElectrons: 9.000000
LCAOMinimize: Iter:   2  F: -28.3955829054342708  |grad|_K:  1.195e-08  alpha:  1.076e+00  linmin:  6.302e-02  cgtest: -9.857e-01  t[s]:      4.29
LCAOMinimize: Converged (|Delta F|<1.000000e-06 for 2 iters).


---- Citations for features of the code used in this run ----

   Software package:
      R. Sundararaman, K. Letchworth-Weaver, K.A. Schwarz, D. Gunceler, Y. Ozhabes and T.A. Arias, 'JDFTx: software for joint density-functional theory', SoftwareX 6, 278 (2017)

   gga-PBE exchange-correlation functional:
      J.P. Perdew, K. Burke and M. Ernzerhof, Phys. Rev. Lett. 77, 3865 (1996)

   Pseudopotentials:
      M Schlipf and F Gygi, Comput. Phys. Commun. 196, 36 (2015)

   Truncated Coulomb potentials:
      R. Sundararaman and T.A. Arias, Phys. Rev. B 87, 165122 (2013)

This list may not be complete. Please suggest additional citations or
report any other bugs at https://github.com/shankar1729/jdftx/issues

Initialization completed successfully at t[s]:      4.36


-------- Electronic minimization -----------
Will mix electronic density at each iteration.
	FillingsUpdate:  mu: -0.089296478  nElectrons: 9.000000
[d-6-15-3:54301] 18 more processes have sent help message help-mpi-common-cuda.txt / dlopen failed
[d-6-15-3:54301] Set MCA parameter "orte_base_help_aggregate" to 0 to see all help / error messages
[d-6-15-3:54301] 18 more processes have sent help message help-mpi-btl-openib-cpc-base.txt / no cpcs for port
	FillingsUpdate:  mu: -0.093910092  nElectrons: 9.000000
SCF: Cycle:  0   F: -28.399161108914043   dF: -3.578e-03   |Residual|: 5.581e-03   |deigs|: 1.744e-01  t[s]:      6.04
	FillingsUpdate:  mu: -0.094506091  nElectrons: 9.000000
SCF: Cycle:  1   F: -28.399336857720346   dF: -1.757e-04   |Residual|: 4.852e-03   |deigs|: 5.616e-03  t[s]:      7.33
	FillingsUpdate:  mu: -0.095214839  nElectrons: 9.000000
SCF: Cycle:  2   F: -28.399433482046675   dF: -9.662e-05   |Residual|: 1.652e-03   |deigs|: 4.266e-03  t[s]:      8.62
	FillingsUpdate:  mu: -0.095124037  nElectrons: 9.000000
SCF: Cycle:  3   F: -28.399512972413422   dF: -7.949e-05   |Residual|: 1.183e-03   |deigs|: 6.055e-03  t[s]:      9.94
	FillingsUpdate:  mu: -0.094852739  nElectrons: 9.000000
SCF: Cycle:  4   F: -28.399560777646339   dF: -4.781e-05   |Residual|: 6.796e-04   |deigs|: 1.139e-03  t[s]:     11.27
	FillingsUpdate:  mu: -0.094773327  nElectrons: 9.000000
SCF: Cycle:  5   F: -28.399574473395173   dF: -1.370e-05   |Residual|: 5.887e-04   |deigs|: 2.372e-04  t[s]:     12.60
	FillingsUpdate:  mu: -0.094171021  nElectrons: 9.000000
SCF: Cycle:  6   F: -28.399581885706308   dF: -7.412e-06   |Residual|: 5.559e-04   |deigs|: 1.200e-03  t[s]:     14.00
	FillingsUpdate:  mu: -0.093674567  nElectrons: 9.000000
SCF: Cycle:  7   F: -28.399586374669155   dF: -4.489e-06   |Residual|: 3.493e-04   |deigs|: 9.431e-04  t[s]:     15.41
	FillingsUpdate:  mu: -0.093264799  nElectrons: 9.000000
SCF: Cycle:  8   F: -28.399595399131009   dF: -9.024e-06   |Residual|: 3.399e-04   |deigs|: 1.078e-03  t[s]:     16.84
	FillingsUpdate:  mu: -0.093093442  nElectrons: 9.000000
SCF: Cycle:  9   F: -28.399599405659462   dF: -4.007e-06   |Residual|: 4.132e-04   |deigs|: 4.323e-04  t[s]:     18.26
	FillingsUpdate:  mu: -0.092929618  nElectrons: 9.000000
SCF: Cycle: 10   F: -28.399601706060512   dF: -2.300e-06   |Residual|: 4.017e-04   |deigs|: 1.973e-04  t[s]:     19.68
	FillingsUpdate:  mu: -0.092392170  nElectrons: 9.000000
SCF: Cycle: 11   F: -28.399602171801227   dF: -4.657e-07   |Residual|: 2.662e-04   |deigs|: 5.793e-04  t[s]:     21.14
	FillingsUpdate:  mu: -0.092256338  nElectrons: 9.000000
SCF: Cycle: 12   F: -28.399603696729439   dF: -1.525e-06   |Residual|: 2.906e-04   |deigs|: 9.020e-05  t[s]:     22.62
	FillingsUpdate:  mu: -0.092147546  nElectrons: 9.000000
SCF: Cycle: 13   F: -28.399606884030877   dF: -3.187e-06   |Residual|: 2.821e-04   |deigs|: 1.392e-04  t[s]:     24.01
	FillingsUpdate:  mu: -0.091019371  nElectrons: 9.000000
SCF: Cycle: 14   F: -28.399607834016088   dF: -9.500e-07   |Residual|: 1.191e-04   |deigs|: 1.255e-03  t[s]:     25.46
	FillingsUpdate:  mu: -0.091142012  nElectrons: 9.000000
SCF: Cycle: 15   F: -28.399608788083182   dF: -9.541e-07   |Residual|: 6.464e-05   |deigs|: 5.703e-04  t[s]:     26.90
	FillingsUpdate:  mu: -0.091022189  nElectrons: 9.000000
SCF: Cycle: 16   F: -28.399609929012371   dF: -1.141e-06   |Residual|: 3.717e-05   |deigs|: 7.523e-04  t[s]:     28.27
	FillingsUpdate:  mu: -0.091042104  nElectrons: 9.000000
SCF: Cycle: 17   F: -28.399611225616223   dF: -1.297e-06   |Residual|: 2.253e-05   |deigs|: 5.039e-04  t[s]:     29.67
	FillingsUpdate:  mu: -0.091075177  nElectrons: 9.000000
SCF: Cycle: 18   F: -28.399613012958543   dF: -1.787e-06   |Residual|: 1.634e-05   |deigs|: 4.370e-04  t[s]:     31.03
	FillingsUpdate:  mu: -0.091091003  nElectrons: 9.000000
SCF: Cycle: 19   F: -28.399613535698499   dF: -5.227e-07   |Residual|: 1.150e-05   |deigs|: 7.975e-05  t[s]:     32.27
	FillingsUpdate:  mu: -0.091102834  nElectrons: 9.000000
SCF: Cycle: 20   F: -28.399613812203054   dF: -2.765e-07   |Residual|: 8.504e-06   |deigs|: 3.066e-05  t[s]:     33.60
	FillingsUpdate:  mu: -0.091099446  nElectrons: 9.000000
SCF: Cycle: 21   F: -28.399614029873412   dF: -2.177e-07   |Residual|: 9.401e-06   |deigs|: 1.645e-05  t[s]:     34.97
	FillingsUpdate:  mu: -0.091101368  nElectrons: 9.000000
SCF: Cycle: 22   F: -28.399614189467147   dF: -1.596e-07   |Residual|: 9.786e-06   |deigs|: 9.842e-06  t[s]:     36.32
	FillingsUpdate:  mu: -0.091091495  nElectrons: 9.000000
SCF: Cycle: 23   F: -28.399614284996673   dF: -9.553e-08   |Residual|: 9.886e-06   |deigs|: 1.124e-05  t[s]:     37.60
	FillingsUpdate:  mu: -0.091091106  nElectrons: 9.000000
SCF: Cycle: 24   F: -28.399614354228003   dF: -6.923e-08   |Residual|: 1.128e-05   |deigs|: 5.345e-06  t[s]:     38.97
	FillingsUpdate:  mu: -0.091085527  nElectrons: 9.000000
SCF: Cycle: 25   F: -28.399614414554335   dF: -6.033e-08   |Residual|: 1.154e-05   |deigs|: 9.263e-06  t[s]:     40.33
	FillingsUpdate:  mu: -0.091088141  nElectrons: 9.000000
SCF: Cycle: 26   F: -28.399614469541763   dF: -5.499e-08   |Residual|: 1.135e-05   |deigs|: 6.308e-06  t[s]:     41.65
	FillingsUpdate:  mu: -0.091085384  nElectrons: 9.000000
SCF: Cycle: 27   F: -28.399614516167603   dF: -4.663e-08   |Residual|: 1.249e-05   |deigs|: 5.738e-06  t[s]:     43.01
	FillingsUpdate:  mu: -0.091088814  nElectrons: 9.000000
SCF: Cycle: 28   F: -28.399614554452882   dF: -3.829e-08   |Residual|: 1.186e-05   |deigs|: 5.969e-06  t[s]:     44.32
	FillingsUpdate:  mu: -0.091098638  nElectrons: 9.000000
SCF: Cycle: 29   F: -28.399614590003434   dF: -3.555e-08   |Residual|: 8.543e-06   |deigs|: 1.511e-05  t[s]:     45.71
	FillingsUpdate:  mu: -0.091099974  nElectrons: 9.000000
SCF: Cycle: 30   F: -28.399614643827228   dF: -5.382e-08   |Residual|: 4.362e-06   |deigs|: 1.345e-05  t[s]:     47.12
	FillingsUpdate:  mu: -0.091105846  nElectrons: 9.000000
SCF: Cycle: 31   F: -28.399614702000189   dF: -5.817e-08   |Residual|: 3.608e-06   |deigs|: 1.650e-05  t[s]:     48.43
	FillingsUpdate:  mu: -0.091104707  nElectrons: 9.000000
SCF: Cycle: 32   F: -28.399614737557705   dF: -3.556e-08   |Residual|: 1.643e-06   |deigs|: 8.041e-06  t[s]:     49.68
	FillingsUpdate:  mu: -0.091106034  nElectrons: 9.000000
SCF: Cycle: 33   F: -28.399614773213582   dF: -3.566e-08   |Residual|: 1.102e-06   |deigs|: 8.667e-06  t[s]:     51.00
	FillingsUpdate:  mu: -0.091107907  nElectrons: 9.000000
SCF: Cycle: 34   F: -28.399614807943752   dF: -3.473e-08   |Residual|: 4.621e-07   |deigs|: 8.839e-06  t[s]:     52.31
	FillingsUpdate:  mu: -0.091109339  nElectrons: 9.000000
SCF: Cycle: 35   F: -28.399614843690710   dF: -3.575e-08   |Residual|: 2.948e-07   |deigs|: 9.433e-06  t[s]:     53.55
	FillingsUpdate:  mu: -0.091109562  nElectrons: 9.000000
SCF: Cycle: 36   F: -28.399614877481749   dF: -3.379e-08   |Residual|: 3.816e-07   |deigs|: 8.577e-06  t[s]:     54.78
	FillingsUpdate:  mu: -0.091110575  nElectrons: 9.000000
SCF: Cycle: 37   F: -28.399614912005362   dF: -3.452e-08   |Residual|: 3.586e-07   |deigs|: 9.172e-06  t[s]:     56.06
	FillingsUpdate:  mu: -0.091111504  nElectrons: 9.000000
SCF: Cycle: 38   F: -28.399614945671352   dF: -3.367e-08   |Residual|: 4.371e-07   |deigs|: 9.058e-06  t[s]:     57.29
	FillingsUpdate:  mu: -0.091109536  nElectrons: 9.000000
SCF: Cycle: 39   F: -28.399614978085257   dF: -3.241e-08   |Residual|: 1.323e-06   |deigs|: 8.577e-06  t[s]:     58.51
	FillingsUpdate:  mu: -0.091112454  nElectrons: 9.000000
SCF: Cycle: 40   F: -28.399615009463414   dF: -3.138e-08   |Residual|: 8.263e-07   |deigs|: 9.256e-06  t[s]:     59.79
	FillingsUpdate:  mu: -0.091112642  nElectrons: 9.000000
SCF: Cycle: 41   F: -28.399615044979843   dF: -3.552e-08   |Residual|: 1.091e-06   |deigs|: 8.496e-06  t[s]:     61.07
	FillingsUpdate:  mu: -0.091112446  nElectrons: 9.000000
SCF: Cycle: 42   F: -28.399615076422563   dF: -3.144e-08   |Residual|: 1.558e-06   |deigs|: 8.469e-06  t[s]:     62.32
	FillingsUpdate:  mu: -0.091112724  nElectrons: 9.000000
SCF: Cycle: 43   F: -28.399615107555544   dF: -3.113e-08   |Residual|: 1.798e-06   |deigs|: 8.431e-06  t[s]:     63.60
	FillingsUpdate:  mu: -0.091112334  nElectrons: 9.000000
SCF: Cycle: 44   F: -28.399615139401082   dF: -3.185e-08   |Residual|: 2.306e-06   |deigs|: 8.435e-06  t[s]:     64.89
	FillingsUpdate:  mu: -0.091112333  nElectrons: 9.000000
SCF: Cycle: 45   F: -28.399615170680772   dF: -3.128e-08   |Residual|: 2.674e-06   |deigs|: 8.116e-06  t[s]:     66.13
	FillingsUpdate:  mu: -0.091112396  nElectrons: 9.000000
SCF: Cycle: 46   F: -28.399615201008022   dF: -3.033e-08   |Residual|: 3.026e-06   |deigs|: 7.692e-06  t[s]:     67.40
	FillingsUpdate:  mu: -0.091112319  nElectrons: 9.000000
SCF: Cycle: 47   F: -28.399615229986463   dF: -2.898e-08   |Residual|: 3.377e-06   |deigs|: 7.133e-06  t[s]:     68.68
	FillingsUpdate:  mu: -0.091112198  nElectrons: 9.000000
SCF: Cycle: 48   F: -28.399615258561695   dF: -2.858e-08   |Residual|: 3.778e-06   |deigs|: 6.858e-06  t[s]:     69.91
	FillingsUpdate:  mu: -0.091112127  nElectrons: 9.000000
SCF: Cycle: 49   F: -28.399615286789036   dF: -2.823e-08   |Residual|: 4.075e-06   |deigs|: 6.629e-06  t[s]:     71.13
	FillingsUpdate:  mu: -0.091113709  nElectrons: 9.000000
SCF: Cycle: 50   F: -28.399615315025461   dF: -2.824e-08   |Residual|: 3.904e-06   |deigs|: 6.928e-06  t[s]:     72.38
	FillingsUpdate:  mu: -0.091114883  nElectrons: 9.000000
SCF: Cycle: 51   F: -28.399615343277858   dF: -2.825e-08   |Residual|: 3.883e-06   |deigs|: 6.658e-06  t[s]:     73.61
	FillingsUpdate:  mu: -0.091114966  nElectrons: 9.000000
SCF: Cycle: 52   F: -28.399615372668961   dF: -2.939e-08   |Residual|: 4.200e-06   |deigs|: 6.470e-06  t[s]:     74.87
	FillingsUpdate:  mu: -0.091114527  nElectrons: 9.000000
SCF: Cycle: 53   F: -28.399615403582555   dF: -3.091e-08   |Residual|: 4.751e-06   |deigs|: 6.803e-06  t[s]:     76.10
	FillingsUpdate:  mu: -0.091114171  nElectrons: 9.000000
SCF: Cycle: 54   F: -28.399615433861882   dF: -3.028e-08   |Residual|: 5.124e-06   |deigs|: 6.678e-06  t[s]:     77.32
	FillingsUpdate:  mu: -0.091114050  nElectrons: 9.000000
SCF: Cycle: 55   F: -28.399615460937408   dF: -2.708e-08   |Residual|: 5.418e-06   |deigs|: 5.936e-06  t[s]:     78.56
	FillingsUpdate:  mu: -0.091115468  nElectrons: 9.000000
SCF: Cycle: 56   F: -28.399615487976391   dF: -2.704e-08   |Residual|: 5.284e-06   |deigs|: 6.377e-06  t[s]:     79.75
	FillingsUpdate:  mu: -0.091116448  nElectrons: 9.000000
SCF: Cycle: 57   F: -28.399615509637044   dF: -2.166e-08   |Residual|: 5.136e-06   |deigs|: 4.983e-06  t[s]:     81.01
	FillingsUpdate:  mu: -0.091115287  nElectrons: 9.000000
SCF: Cycle: 58   F: -28.399615525919415   dF: -1.628e-08   |Residual|: 6.239e-06   |deigs|: 4.146e-06  t[s]:     82.33
	FillingsUpdate:  mu: -0.091116296  nElectrons: 9.000000
SCF: Cycle: 59   F: -28.399615539947515   dF: -1.403e-08   |Residual|: 5.698e-06   |deigs|: 3.625e-06  t[s]:     83.63
	FillingsUpdate:  mu: -0.091116330  nElectrons: 9.000000
SCF: Cycle: 60   F: -28.399615798084593   dF: -2.581e-07   |Residual|: 1.034e-05   |deigs|: 7.498e-05  t[s]:     84.88
	FillingsUpdate:  mu: -0.091116765  nElectrons: 9.000000
SCF: Cycle: 61   F: -28.399615973741103   dF: -1.757e-07   |Residual|: 1.068e-05   |deigs|: 4.713e-05  t[s]:     86.08
	FillingsUpdate:  mu: -0.091116993  nElectrons: 9.000000
SCF: Cycle: 62   F: -28.399615994245611   dF: -2.050e-08   |Residual|: 1.115e-05   |deigs|: 4.405e-06  t[s]:     87.25
	FillingsUpdate:  mu: -0.091117288  nElectrons: 9.000000
SCF: Cycle: 63   F: -28.399616010341411   dF: -1.610e-08   |Residual|: 1.098e-05   |deigs|: 3.356e-06  t[s]:     88.48
	FillingsUpdate:  mu: -0.091119140  nElectrons: 9.000000
SCF: Cycle: 64   F: -28.399616022054765   dF: -1.171e-08   |Residual|: 1.042e-05   |deigs|: 3.582e-06  t[s]:     89.72
	FillingsUpdate:  mu: -0.091117847  nElectrons: 9.000000
SCF: Cycle: 65   F: -28.399616030557990   dF: -8.503e-09   |Residual|: 1.136e-05   |deigs|: 3.054e-06  t[s]:     90.98
	FillingsUpdate:  mu: -0.091116952  nElectrons: 9.000000
SCF: Cycle: 66   F: -28.399616046486145   dF: -1.593e-08   |Residual|: 1.169e-05   |deigs|: 3.470e-06  t[s]:     92.19
	FillingsUpdate:  mu: -0.091117115  nElectrons: 9.000000
SCF: Cycle: 67   F: -28.399616059456022   dF: -1.297e-08   |Residual|: 1.182e-05   |deigs|: 2.746e-06  t[s]:     93.45
	FillingsUpdate:  mu: -0.091118875  nElectrons: 9.000000
SCF: Cycle: 68   F: -28.399616064301103   dF: -4.845e-09   |Residual|: 1.116e-05   |deigs|: 2.625e-06  t[s]:     94.68
	FillingsUpdate:  mu: -0.091122230  nElectrons: 9.000000
SCF: Cycle: 69   F: -28.399616068481521   dF: -4.180e-09   |Residual|: 9.248e-06   |deigs|: 5.387e-06  t[s]:     96.00
SCF: Converged (|Delta E|<1.000000e-08 for 2 iters).


# Ionic positions in lattice coordinates:
ion K   0.000000000000000   0.000000000000000   0.000000000000000 0

# Forces in Lattice coordinates:
force K   0.000000000000000   0.000000000000000   0.000000000000000 0

# Energy components:
   Eewald =      -14.3808972911017232
       EH =        8.3997760522333902
     Eloc =      -25.2468024221671108
      Enl =       -2.7749117323622685
   Epulay =        0.0000000013052047
      Exc =       -4.2434426131068479
       KE =        9.8581240368298975
-------------------------------------
     Etot =      -28.3881539683694584
       TS =        0.0114621001120621
-------------------------------------
        F =      -28.3996160684815209

IonicMinimize: Iter:   0  F: -28.399616068481521  |grad|_K:  0.000e+00  t[s]:     96.11
IonicMinimize: Converged (|grad|_K<1.000000e-04).

#--- Lowdin population analysis ---
# oxidation-state K +0.084

End date and time: Sun Jan 16 14:53:53 2022  (Duration: 0-0:01:36.14)
Done!
