2.06
--------------------------------------------------------------------------
The library attempted to open the following supporting CUDA libraries,
but each of them failed.  CUDA-aware support is disabled.
libcuda.so.1: cannot open shared object file: No such file or directory
libcuda.dylib: cannot open shared object file: No such file or directory
/usr/lib64/libcuda.so.1: cannot open shared object file: No such file or directory
/usr/lib64/libcuda.dylib: cannot open shared object file: No such file or directory
If you are not interested in CUDA-aware support, then run with
--mca opal_warn_on_missing_libcuda 0 to suppress this message.  If you are interested
in CUDA-aware support, then try setting LD_LIBRARY_PATH to the location
of libcuda.so.1 to get passed this issue.
--------------------------------------------------------------------------
--------------------------------------------------------------------------
No OpenFabrics connection schemes reported that they were able to be
used on a specific port.  As such, the openib BTL (OpenFabrics
support) will be disabled for this port.

  Local host:           d-3-15-1
  Local device:         mlx5_1
  Local port:           1
  CPCs attempted:       rdmacm, udcm
--------------------------------------------------------------------------

*************** JDFTx 1.6.0 (git hash 42ebbcc2) ***************

Start date and time: Sun Jan 16 14:51:43 2022
Executable jdftx with command-line: -i Potassium.in
Running on hosts (process indices):  d-3-15-1 (0-18)
Divided in process groups (process indices):  0 (0)  1 (1)  2 (2)  3 (3)  4 (4)  5 (5)  6 (6)  7 (7)  8 (8)  9 (9)  10 (10)  11 (11)  12 (12)  13 (13)  14 (14)  15 (15)  16 (16)  17 (17)  18 (18)
Resource initialization completed at t[s]:      0.00
Run totals: 19 processes, 48 threads, 0 GPUs


Input parsed successfully to the following command list (including defaults):

basis kpoint-dependent
coords-type Lattice
core-overlap-check vector
coulomb-interaction Slab 001
davidson-band-ratio 1.1
dump End None
dump-name $INPUT.$VAR
elec-cutoff 20
elec-eigen-algo Davidson
elec-ex-corr gga-PBE
elec-smearing Fermi 0.01
electronic-minimize  \
	dirUpdateScheme      FletcherReeves \
	linminMethod         DirUpdateRecommended \
	nIterations          100 \
	history              15 \
	knormThreshold       0 \
	energyDiffThreshold  1e-08 \
	nEnergyDiff          2 \
	alphaTstart          1 \
	alphaTmin            1e-10 \
	updateTestStepSize   yes \
	alphaTreduceFactor   0.1 \
	alphaTincreaseFactor 3 \
	nAlphaAdjustMax      3 \
	wolfeEnergy          0.0001 \
	wolfeGradient        0.9 \
	fdTest               no
electronic-scf  \
	nIterations	10000 \
	energyDiffThreshold	1e-08 \
	residualThreshold	1e-07 \
	mixFraction	0.5 \
	qMetric	0.8 \
	history	10 \
	nEigSteps	2 \
	eigDiffThreshold	1e-08 \
	mixedVariable	Density \
	qKerker	0.8 \
	qKappa	-1 \
	verbose	no \
	mixFractionMag	1.5
exchange-regularization WignerSeitzTruncated
fluid None
fluid-ex-corr (null) lda-PZ
fluid-gummel-loop 10 1.000000e-05
fluid-minimize  \
	dirUpdateScheme      PolakRibiere \
	linminMethod         DirUpdateRecommended \
	nIterations          100 \
	history              15 \
	knormThreshold       0 \
	energyDiffThreshold  0 \
	nEnergyDiff          2 \
	alphaTstart          1 \
	alphaTmin            1e-10 \
	updateTestStepSize   yes \
	alphaTreduceFactor   0.1 \
	alphaTincreaseFactor 3 \
	nAlphaAdjustMax      3 \
	wolfeEnergy          0.0001 \
	wolfeGradient        0.9 \
	fdTest               no
fluid-solvent H2O 55.338 ScalarEOS \
	epsBulk 78.4 \
	pMol 0.92466 \
	epsInf 1.77 \
	Pvap 1.06736e-10 \
	sigmaBulk 4.62e-05 \
	Rvdw 2.61727 \
	Res 1.42 \
	tauNuc 343133 \
	poleEl 15 7 1
forces-output-coords Positions
ion K   0.000000000000000   0.000000000000000   0.000000000000000 0
ion-species SG15/$ID_ONCV_PBE.upf
ion-width 0
ionic-minimize  \
	dirUpdateScheme      L-BFGS \
	linminMethod         DirUpdateRecommended \
	nIterations          0 \
	history              15 \
	knormThreshold       0.0001 \
	energyDiffThreshold  1e-06 \
	nEnergyDiff          2 \
	alphaTstart          1 \
	alphaTmin            1e-10 \
	updateTestStepSize   yes \
	alphaTreduceFactor   0.1 \
	alphaTincreaseFactor 3 \
	nAlphaAdjustMax      3 \
	wolfeEnergy          0.0001 \
	wolfeGradient        0.9 \
	fdTest               no
kpoint   0.000000000000   0.000000000000   0.000000000000  1.00000000000000
kpoint-folding 12 12 1 
latt-move-scale 1 1 1
latt-scale 2.06 2.06 1 
lattice  \
	   4.727486978767153   -2.363743489383575    0.000000000000000  \
	  -0.000000000000000    4.094123819672498    0.000000000000000  \
	   0.000000000000000    0.000000000000000   40.000000000000000 
lattice-minimize  \
	dirUpdateScheme      L-BFGS \
	linminMethod         DirUpdateRecommended \
	nIterations          0 \
	history              15 \
	knormThreshold       0 \
	energyDiffThreshold  1e-06 \
	nEnergyDiff          2 \
	alphaTstart          1 \
	alphaTmin            1e-10 \
	updateTestStepSize   yes \
	alphaTreduceFactor   0.1 \
	alphaTincreaseFactor 3 \
	nAlphaAdjustMax      3 \
	wolfeEnergy          0.0001 \
	wolfeGradient        0.9 \
	fdTest               no
lcao-params -1 1e-06 0.01
pcm-variant GLSSA13
spintype no-spin
subspace-rotation-factor 1 yes
symmetries automatic
symmetry-threshold 0.0001



---------- Setting up symmetries ----------

Found 24 point-group symmetries of the bravais lattice
Found 24 space-group symmetries with basis
Applied RMS atom displacement 0 bohrs to make symmetries exact.

---------- Initializing the Grid ----------
R = 
[      9.73862     -4.86931            0  ]
[            0       8.4339            0  ]
[            0            0           40  ]
unit cell volume = 3285.38
G =
[   0.645182   0.372496         -0  ]
[          0   0.744992         -0  ]
[         -0         -0    0.15708  ]
Minimum fftbox size, Smin = [  40  40  164  ]
Chosen fftbox size, S = [  40  40  168  ]

---------- Exchange Correlation functional ----------
Initalized PBE GGA exchange.
Initalized PBE GGA correlation.

---------- Setting up pseudopotentials ----------
Width of ionic core gaussian charges (only for fluid interactions / plotting) set to 0

Reading pseudopotential file '/home/gridsan/aligho/DFT/build-Nov24/pseudopotentials/SG15/K_ONCV_PBE.upf':
  'K' pseudopotential, 'PBE' functional
  Generated using ONCVPSP code by D. R. Hamann
  Author: Martin Schlipf and Francois Gygi  Date: 150915.
  9 valence electrons, 3 orbitals, 6 projectors, 2222 radial grid points, with lMax = 2
  Transforming local potential to a uniform radial grid of dG=0.02 with 1455 points.
  Transforming nonlocal projectors to a uniform radial grid of dG=0.02 with 432 points.
    3S    l: 0   occupation:  2.0   eigenvalue: -1.298836
    3P    l: 1   occupation:  6.0   eigenvalue: -0.691386
    4S    l: 0   occupation:  1.0   eigenvalue: -0.085223
  Transforming atomic orbitals to a uniform radial grid of dG=0.02 with 432 points.
  Core radius for overlap checks: 2.06 bohrs.
  Reading pulay file /home/gridsan/aligho/DFT/build-Nov24/pseudopotentials/SG15/K_ONCV_PBE.pulay ... using dE_dnG = -1.597219e-05 computed for Ecut = 20.

Initialized 1 species with 1 total atoms.

Folded 1 k-points by 12x12x1 to 144 k-points.

---------- Setting up k-points, bands, fillings ----------
Reduced to 19 k-points under symmetry. 
Computing the number of bands and number of electrons
Calculating initial fillings.
nElectrons:   9.000000   nBands: 6   nStates: 19

----- Setting up reduced wavefunction bases (one per k-point) -----
average nbasis = 14036.604 , ideal nbasis = 14035.398

---------- Setting up coulomb interaction ----------
Initialized slab truncation along lattice direction 001

---------- Setting up 2D ewald sum ----------
Optimum gaussian width for ewald sums = 5.406491 bohr.
Real space sums over 289 unit cells with max indices [  8  8  0  ]
Reciprocal space sums over 81 terms with max indices [  4  4  0  ]

---------- Allocating electronic variables ----------
Initializing wave functions:  linear combination of atomic orbitals
Note: number of bands (6) exceeds available atomic orbitals (5)
K pseudo-atom occupations:   s ( 2 1 )  p ( 6 )
	FillingsUpdate:  mu: -0.095063293  nElectrons: 9.000000
LCAOMinimize: Iter:   0  F: -28.4014000293796158  |grad|_K:  1.276e-05  alpha:  1.000e+00
	FillingsUpdate:  mu: -0.095062725  nElectrons: 9.000000
LCAOMinimize: Iter:   1  F: -28.4014000849098878  |grad|_K:  1.401e-07  alpha:  9.967e-01  linmin: -6.886e-03  cgtest:  1.715e-01  t[s]:      2.64
LCAOMinimize: Encountered beta<0, resetting CG.
	FillingsUpdate:  mu: -0.095062766  nElectrons: 9.000000
LCAOMinimize: Iter:   2  F: -28.4014000849166521  |grad|_K:  2.396e-09  alpha:  9.783e-01  linmin: -5.253e-02  cgtest:  7.077e-01  t[s]:      3.27
LCAOMinimize: Encountered beta<0, resetting CG.
LCAOMinimize: Converged (|Delta F|<1.000000e-06 for 2 iters).


---- Citations for features of the code used in this run ----

   Software package:
      R. Sundararaman, K. Letchworth-Weaver, K.A. Schwarz, D. Gunceler, Y. Ozhabes and T.A. Arias, 'JDFTx: software for joint density-functional theory', SoftwareX 6, 278 (2017)

   gga-PBE exchange-correlation functional:
      J.P. Perdew, K. Burke and M. Ernzerhof, Phys. Rev. Lett. 77, 3865 (1996)

   Pseudopotentials:
      M Schlipf and F Gygi, Comput. Phys. Commun. 196, 36 (2015)

   Truncated Coulomb potentials:
      R. Sundararaman and T.A. Arias, Phys. Rev. B 87, 165122 (2013)

This list may not be complete. Please suggest additional citations or
report any other bugs at https://github.com/shankar1729/jdftx/issues

Initialization completed successfully at t[s]:      3.33


-------- Electronic minimization -----------
Will mix electronic density at each iteration.
	FillingsUpdate:  mu: -0.095062766  nElectrons: 9.000000
	FillingsUpdate:  mu: -0.104985366  nElectrons: 9.000000
SCF: Cycle:  0   F: -28.406814366432627   dF: -5.414e-03   |Residual|: 7.958e-03   |deigs|: 1.742e-01  t[s]:      4.56
[d-3-15-1:67960] 18 more processes have sent help message help-mpi-common-cuda.txt / dlopen failed
[d-3-15-1:67960] Set MCA parameter "orte_base_help_aggregate" to 0 to see all help / error messages
[d-3-15-1:67960] 18 more processes have sent help message help-mpi-btl-openib-cpc-base.txt / no cpcs for port
	FillingsUpdate:  mu: -0.105367302  nElectrons: 9.000000
SCF: Cycle:  1   F: -28.407027319182859   dF: -2.130e-04   |Residual|: 6.285e-03   |deigs|: 5.106e-03  t[s]:      5.50
	FillingsUpdate:  mu: -0.103978737  nElectrons: 9.000000
SCF: Cycle:  2   F: -28.407099639070498   dF: -7.232e-05   |Residual|: 2.282e-03   |deigs|: 3.564e-03  t[s]:      6.45
	FillingsUpdate:  mu: -0.104090716  nElectrons: 9.000000
SCF: Cycle:  3   F: -28.407168651366412   dF: -6.901e-05   |Residual|: 2.228e-03   |deigs|: 4.446e-03  t[s]:      7.42
	FillingsUpdate:  mu: -0.103346687  nElectrons: 9.000000
SCF: Cycle:  4   F: -28.407223917882853   dF: -5.527e-05   |Residual|: 1.885e-03   |deigs|: 3.115e-03  t[s]:      8.40
	FillingsUpdate:  mu: -0.102862368  nElectrons: 9.000000
SCF: Cycle:  5   F: -28.407248611981228   dF: -2.469e-05   |Residual|: 2.099e-03   |deigs|: 1.932e-03  t[s]:      9.38
	FillingsUpdate:  mu: -0.101308990  nElectrons: 9.000000
SCF: Cycle:  6   F: -28.407263833656856   dF: -1.522e-05   |Residual|: 2.817e-03   |deigs|: 2.663e-03  t[s]:     10.38
	FillingsUpdate:  mu: -0.100184133  nElectrons: 9.000000
SCF: Cycle:  7   F: -28.407282242985918   dF: -1.841e-05   |Residual|: 1.035e-03   |deigs|: 1.236e-03  t[s]:     11.39
	FillingsUpdate:  mu: -0.099889794  nElectrons: 9.000000
SCF: Cycle:  8   F: -28.407293556024914   dF: -1.131e-05   |Residual|: 8.016e-04   |deigs|: 6.227e-04  t[s]:     12.41
	FillingsUpdate:  mu: -0.098460792  nElectrons: 9.000000
SCF: Cycle:  9   F: -28.407301495694732   dF: -7.940e-06   |Residual|: 1.086e-03   |deigs|: 1.574e-03  t[s]:     13.43
	FillingsUpdate:  mu: -0.097934109  nElectrons: 9.000000
SCF: Cycle: 10   F: -28.407306175828793   dF: -4.680e-06   |Residual|: 7.535e-04   |deigs|: 5.593e-04  t[s]:     14.43
	FillingsUpdate:  mu: -0.096257372  nElectrons: 9.000000
SCF: Cycle: 11   F: -28.407310977431578   dF: -4.802e-06   |Residual|: 9.306e-04   |deigs|: 1.915e-03  t[s]:     15.47
	FillingsUpdate:  mu: -0.095398426  nElectrons: 9.000000
SCF: Cycle: 12   F: -28.407315946578663   dF: -4.969e-06   |Residual|: 9.106e-04   |deigs|: 7.186e-04  t[s]:     16.53
	FillingsUpdate:  mu: -0.092512125  nElectrons: 9.000000
SCF: Cycle: 13   F: -28.407321078887559   dF: -5.132e-06   |Residual|: 5.184e-04   |deigs|: 2.931e-03  t[s]:     17.56
	FillingsUpdate:  mu: -0.092902608  nElectrons: 9.000000
SCF: Cycle: 14   F: -28.407322460459493   dF: -1.382e-06   |Residual|: 2.886e-04   |deigs|: 3.814e-04  t[s]:     18.57
	FillingsUpdate:  mu: -0.093181545  nElectrons: 9.000000
SCF: Cycle: 15   F: -28.407323629971312   dF: -1.170e-06   |Residual|: 1.455e-04   |deigs|: 2.231e-04  t[s]:     19.61
	FillingsUpdate:  mu: -0.093129674  nElectrons: 9.000000
SCF: Cycle: 16   F: -28.407324277965188   dF: -6.480e-07   |Residual|: 4.943e-05   |deigs|: 3.612e-05  t[s]:     20.69
	FillingsUpdate:  mu: -0.093194015  nElectrons: 9.000000
SCF: Cycle: 17   F: -28.407324755625151   dF: -4.777e-07   |Residual|: 3.282e-05   |deigs|: 6.237e-05  t[s]:     21.69
	FillingsUpdate:  mu: -0.093130320  nElectrons: 9.000000
SCF: Cycle: 18   F: -28.407325124796262   dF: -3.692e-07   |Residual|: 2.007e-05   |deigs|: 8.228e-05  t[s]:     22.74
	FillingsUpdate:  mu: -0.093151815  nElectrons: 9.000000
SCF: Cycle: 19   F: -28.407325388144720   dF: -2.633e-07   |Residual|: 8.606e-06   |deigs|: 3.623e-05  t[s]:     23.70
	FillingsUpdate:  mu: -0.093162346  nElectrons: 9.000000
SCF: Cycle: 20   F: -28.407325603260883   dF: -2.151e-07   |Residual|: 5.979e-06   |deigs|: 1.882e-05  t[s]:     24.66
	FillingsUpdate:  mu: -0.093154408  nElectrons: 9.000000
SCF: Cycle: 21   F: -28.407325762992816   dF: -1.597e-07   |Residual|: 1.616e-06   |deigs|: 1.665e-05  t[s]:     25.66
	FillingsUpdate:  mu: -0.093160106  nElectrons: 9.000000
SCF: Cycle: 22   F: -28.407325877681284   dF: -1.147e-07   |Residual|: 3.200e-06   |deigs|: 9.269e-06  t[s]:     26.60
	FillingsUpdate:  mu: -0.093159222  nElectrons: 9.000000
SCF: Cycle: 23   F: -28.407325975231423   dF: -9.755e-08   |Residual|: 3.470e-06   |deigs|: 7.255e-06  t[s]:     27.53
	FillingsUpdate:  mu: -0.093157688  nElectrons: 9.000000
SCF: Cycle: 24   F: -28.407326051822086   dF: -7.659e-08   |Residual|: 4.169e-06   |deigs|: 6.136e-06  t[s]:     28.44
	FillingsUpdate:  mu: -0.093160149  nElectrons: 9.000000
SCF: Cycle: 25   F: -28.407326135242020   dF: -8.342e-08   |Residual|: 5.266e-06   |deigs|: 8.169e-06  t[s]:     29.34
	FillingsUpdate:  mu: -0.093157024  nElectrons: 9.000000
SCF: Cycle: 26   F: -28.407326171685543   dF: -3.644e-08   |Residual|: 4.246e-06   |deigs|: 4.949e-06  t[s]:     30.28
	FillingsUpdate:  mu: -0.093152373  nElectrons: 9.000000
SCF: Cycle: 27   F: -28.407326190794507   dF: -1.911e-08   |Residual|: 2.545e-06   |deigs|: 6.726e-06  t[s]:     31.28
	FillingsUpdate:  mu: -0.093152790  nElectrons: 9.000000
SCF: Cycle: 28   F: -28.407326204704393   dF: -1.391e-08   |Residual|: 2.392e-06   |deigs|: 1.154e-06  t[s]:     32.24
	FillingsUpdate:  mu: -0.093153746  nElectrons: 9.000000
SCF: Cycle: 29   F: -28.407326215832210   dF: -1.113e-08   |Residual|: 2.825e-06   |deigs|: 1.647e-06  t[s]:     33.25
	FillingsUpdate:  mu: -0.093152115  nElectrons: 9.000000
SCF: Cycle: 30   F: -28.407326224453804   dF: -8.622e-09   |Residual|: 3.049e-06   |deigs|: 1.925e-06  t[s]:     34.20
	FillingsUpdate:  mu: -0.093154146  nElectrons: 9.000000
SCF: Cycle: 31   F: -28.407326230815197   dF: -6.361e-09   |Residual|: 2.272e-06   |deigs|: 1.871e-06  t[s]:     35.17
SCF: Converged (|Delta E|<1.000000e-08 for 2 iters).


# Ionic positions in lattice coordinates:
ion K   0.000000000000000   0.000000000000000   0.000000000000000 0

# Forces in Lattice coordinates:
force K   0.000000000000000   0.000000000000000   0.000000000000000 0

# Energy components:
   Eewald =      -17.5223554372161736
       EH =        5.3586023512777672
     Eloc =      -19.0742421524634516
      Enl =       -2.7753307492662902
   Epulay =        0.0000000058630717
      Exc =       -4.2589017525416892
       KE =        9.8736938987830598
-------------------------------------
     Etot =      -28.3985338355637040
       TS =        0.0087923952514935
-------------------------------------
        F =      -28.4073262308151975

IonicMinimize: Iter:   0  F: -28.407326230815197  |grad|_K:  0.000e+00  t[s]:     35.24
IonicMinimize: Converged (|grad|_K<1.000000e-04).

#--- Lowdin population analysis ---
# oxidation-state K +0.080

End date and time: Sun Jan 16 14:52:19 2022  (Duration: 0-0:00:35.26)
Done!
