1.49
--------------------------------------------------------------------------
The library attempted to open the following supporting CUDA libraries,
but each of them failed.  CUDA-aware support is disabled.
libcuda.so.1: cannot open shared object file: No such file or directory
libcuda.dylib: cannot open shared object file: No such file or directory
/usr/lib64/libcuda.so.1: cannot open shared object file: No such file or directory
/usr/lib64/libcuda.dylib: cannot open shared object file: No such file or directory
If you are not interested in CUDA-aware support, then run with
--mca opal_warn_on_missing_libcuda 0 to suppress this message.  If you are interested
in CUDA-aware support, then try setting LD_LIBRARY_PATH to the location
of libcuda.so.1 to get passed this issue.
--------------------------------------------------------------------------
--------------------------------------------------------------------------
No OpenFabrics connection schemes reported that they were able to be
used on a specific port.  As such, the openib BTL (OpenFabrics
support) will be disabled for this port.

  Local host:           d-4-4-1
  Local device:         mlx5_1
  Local port:           1
  CPCs attempted:       rdmacm, udcm
--------------------------------------------------------------------------

*************** JDFTx 1.6.0 (git hash 42ebbcc2) ***************

Start date and time: Sun Jan 16 15:48:17 2022
Executable jdftx with command-line: -i Rubidium.in
Running on hosts (process indices):  d-4-4-1 (0-18)
Divided in process groups (process indices):  0 (0)  1 (1)  2 (2)  3 (3)  4 (4)  5 (5)  6 (6)  7 (7)  8 (8)  9 (9)  10 (10)  11 (11)  12 (12)  13 (13)  14 (14)  15 (15)  16 (16)  17 (17)  18 (18)
Resource initialization completed at t[s]:      0.00
Run totals: 19 processes, 48 threads, 0 GPUs


Input parsed successfully to the following command list (including defaults):

basis kpoint-dependent
coords-type Lattice
core-overlap-check vector
coulomb-interaction Slab 001
davidson-band-ratio 1.1
dump End None
dump-name $INPUT.$VAR
elec-cutoff 20 100
elec-eigen-algo Davidson
elec-ex-corr gga-PBE
elec-smearing Fermi 1e-05
electronic-minimize  \
	dirUpdateScheme      FletcherReeves \
	linminMethod         DirUpdateRecommended \
	nIterations          10000 \
	history              15 \
	knormThreshold       0 \
	energyDiffThreshold  1e-08 \
	nEnergyDiff          2 \
	alphaTstart          1 \
	alphaTmin            1e-10 \
	updateTestStepSize   yes \
	alphaTreduceFactor   0.1 \
	alphaTincreaseFactor 3 \
	nAlphaAdjustMax      3 \
	wolfeEnergy          0.0001 \
	wolfeGradient        0.9 \
	fdTest               no
exchange-regularization WignerSeitzTruncated
fluid None
fluid-ex-corr (null) lda-PZ
fluid-gummel-loop 10 1.000000e-05
fluid-minimize  \
	dirUpdateScheme      PolakRibiere \
	linminMethod         DirUpdateRecommended \
	nIterations          100 \
	history              15 \
	knormThreshold       0 \
	energyDiffThreshold  0 \
	nEnergyDiff          2 \
	alphaTstart          1 \
	alphaTmin            1e-10 \
	updateTestStepSize   yes \
	alphaTreduceFactor   0.1 \
	alphaTincreaseFactor 3 \
	nAlphaAdjustMax      3 \
	wolfeEnergy          0.0001 \
	wolfeGradient        0.9 \
	fdTest               no
fluid-solvent H2O 55.338 ScalarEOS \
	epsBulk 78.4 \
	pMol 0.92466 \
	epsInf 1.77 \
	Pvap 1.06736e-10 \
	sigmaBulk 4.62e-05 \
	Rvdw 2.61727 \
	Res 1.42 \
	tauNuc 343133 \
	poleEl 15 7 1
forces-output-coords Positions
ion Rb   0.000000000000000   0.000000000000000   0.000000000000000 0
ion-species SG15/$ID_ONCV_PBE.upf
ion-width 0
ionic-minimize  \
	dirUpdateScheme      L-BFGS \
	linminMethod         DirUpdateRecommended \
	nIterations          0 \
	history              15 \
	knormThreshold       0.0001 \
	energyDiffThreshold  1e-06 \
	nEnergyDiff          2 \
	alphaTstart          1 \
	alphaTmin            1e-10 \
	updateTestStepSize   yes \
	alphaTreduceFactor   0.1 \
	alphaTincreaseFactor 3 \
	nAlphaAdjustMax      3 \
	wolfeEnergy          0.0001 \
	wolfeGradient        0.9 \
	fdTest               no
kpoint   0.000000000000   0.000000000000   0.000000000000  1.00000000000000
kpoint-folding 48 48 1 
latt-move-scale 1 1 1
latt-scale 1.49 1.49 1 
lattice  \
	   4.727486978767153   -2.363743489383575    0.000000000000000  \
	  -0.000000000000000    4.094123819672498    0.000000000000000  \
	   0.000000000000000    0.000000000000000   40.000000000000000 
lattice-minimize  \
	dirUpdateScheme      L-BFGS \
	linminMethod         DirUpdateRecommended \
	nIterations          0 \
	history              15 \
	knormThreshold       0 \
	energyDiffThreshold  1e-06 \
	nEnergyDiff          2 \
	alphaTstart          1 \
	alphaTmin            1e-10 \
	updateTestStepSize   yes \
	alphaTreduceFactor   0.1 \
	alphaTincreaseFactor 3 \
	nAlphaAdjustMax      3 \
	wolfeEnergy          0.0001 \
	wolfeGradient        0.9 \
	fdTest               no
lcao-params -1 1e-06 1e-05
pcm-variant GLSSA13
spintype no-spin
subspace-rotation-factor 1 yes
symmetries automatic
symmetry-threshold 0.0001



---------- Setting up symmetries ----------

Found 24 point-group symmetries of the bravais lattice
Found 24 space-group symmetries with basis
Applied RMS atom displacement 0 bohrs to make symmetries exact.

---------- Initializing the Grid ----------
R = 
[      7.04396     -3.52198            0  ]
[            0      6.10024            0  ]
[            0            0           40  ]
unit cell volume = 1718.79
G =
[   0.891997   0.514995         -0  ]
[          0    1.02999         -0  ]
[         -0         -0    0.15708  ]
Minimum fftbox size, Smin = [  32  32  184  ]
Chosen fftbox size, S = [  32  32  192  ]

---------- Initializing tighter grid for wavefunction operations ----------
R = 
[      7.04396     -3.52198            0  ]
[            0      6.10024            0  ]
[            0            0           40  ]
unit cell volume = 1718.79
G =
[   0.891997   0.514995         -0  ]
[          0    1.02999         -0  ]
[         -0         -0    0.15708  ]
Minimum fftbox size, Smin = [  32  32  164  ]
Chosen fftbox size, S = [  32  32  168  ]

---------- Exchange Correlation functional ----------
Initalized PBE GGA exchange.
Initalized PBE GGA correlation.

---------- Setting up pseudopotentials ----------
Width of ionic core gaussian charges (only for fluid interactions / plotting) set to 0

Reading pseudopotential file '/home/gridsan/aligho/DFT/build-Nov24/pseudopotentials/SG15/Rb_ONCV_PBE.upf':
  'Rb' pseudopotential, 'PBE' functional
  Generated using ONCVPSP code by D. R. Hamann
  Author: Martin Schlipf and Francois Gygi  Date: 150915.
  9 valence electrons, 3 orbitals, 6 projectors, 2308 radial grid points, with lMax = 2
  Transforming local potential to a uniform radial grid of dG=0.02 with 1620 points.
  Transforming nonlocal projectors to a uniform radial grid of dG=0.02 with 432 points.
    4S    l: 0   occupation:  2.0   eigenvalue: -1.172069
    4P    l: 1   occupation:  6.0   eigenvalue: -0.586674
    5S    l: 0   occupation:  1.0   eigenvalue: -0.082006
  Transforming atomic orbitals to a uniform radial grid of dG=0.02 with 432 points.
  Core radius for overlap checks: 2.60 bohrs.
  Reading pulay file /home/gridsan/aligho/DFT/build-Nov24/pseudopotentials/SG15/Rb_ONCV_PBE.pulay ... using dE_dnG = -1.360715e-05 computed for Ecut = 20.

Initialized 1 species with 1 total atoms.

Folded 1 k-points by 48x48x1 to 2304 k-points.

---------- Setting up k-points, bands, fillings ----------
Reduced to 217 k-points under symmetry. 
Computing the number of bands and number of electrons
Calculating initial fillings.
nElectrons:   9.000000   nBands: 6   nStates: 217

----- Setting up reduced wavefunction bases (one per k-point) -----
average nbasis = 7343.051 , ideal nbasis = 7342.819

---------- Setting up coulomb interaction ----------
Initialized slab truncation along lattice direction 001

---------- Setting up 2D ewald sum ----------
Optimum gaussian width for ewald sums = 3.910520 bohr.
Real space sums over 289 unit cells with max indices [  8  8  0  ]
Reciprocal space sums over 81 terms with max indices [  4  4  0  ]

---------- Allocating electronic variables ----------
Initializing wave functions:  linear combination of atomic orbitals
Note: number of bands (6) exceeds available atomic orbitals (5)
Rb pseudo-atom occupations:   s ( 2 1 )  p ( 6 )
	FillingsUpdate:  mu: -0.107544381  nElectrons: 9.000000
LCAOMinimize: Iter:   0  F: -24.4234154420036624  |grad|_K:  1.452e-05  alpha:  1.000e+00
[d-4-4-1:60315] 18 more processes have sent help message help-mpi-common-cuda.txt / dlopen failed
[d-4-4-1:60315] Set MCA parameter "orte_base_help_aggregate" to 0 to see all help / error messages
[d-4-4-1:60315] 18 more processes have sent help message help-mpi-btl-openib-cpc-base.txt / no cpcs for port
	FillingsUpdate:  mu: -0.107500781  nElectrons: 9.000000
LCAOMinimize: Iter:   1  F: -24.4234162471777445  |grad|_K:  2.727e-07  alpha:  9.791e-01  linmin: -4.705e-02  cgtest:  1.022e+00  t[s]:      6.41
LCAOMinimize: Encountered beta<0, resetting CG.
	FillingsUpdate:  mu: -0.107499938  nElectrons: 9.000000
LCAOMinimize: Iter:   2  F: -24.4234162474675287  |grad|_K:  4.503e-10  alpha:  9.981e-01  linmin: -2.307e-02  cgtest:  3.800e-01  t[s]:      8.60
LCAOMinimize: Encountered beta<0, resetting CG.
LCAOMinimize: Converged (|Delta F|<1.000000e-06 for 2 iters).


---- Citations for features of the code used in this run ----

   Software package:
      R. Sundararaman, K. Letchworth-Weaver, K.A. Schwarz, D. Gunceler, Y. Ozhabes and T.A. Arias, 'JDFTx: software for joint density-functional theory', SoftwareX 6, 278 (2017)

   gga-PBE exchange-correlation functional:
      J.P. Perdew, K. Burke and M. Ernzerhof, Phys. Rev. Lett. 77, 3865 (1996)

   Pseudopotentials:
      M Schlipf and F Gygi, Comput. Phys. Commun. 196, 36 (2015)

   Truncated Coulomb potentials:
      R. Sundararaman and T.A. Arias, Phys. Rev. B 87, 165122 (2013)

   Total energy minimization with Auxiliary Hamiltonian:
      C. Freysoldt, S. Boeck, and J. Neugebauer, Phys. Rev. B 79, 241103(R) (2009)

This list may not be complete. Please suggest additional citations or
report any other bugs at https://github.com/shankar1729/jdftx/issues

Initialization completed successfully at t[s]:      8.82


-------- Electronic minimization -----------
	FillingsUpdate:  mu: -0.107499938  nElectrons: 9.000000
ElecMinimize: Iter:   0  F: -24.423416247467525  |grad|_K:  1.707e-05  alpha:  1.000e+00
	FillingsUpdate:  mu: -0.104603788  nElectrons: 9.000000
	SubspaceRotationAdjust: set factor to 1
ElecMinimize: Iter:   1  F: -24.427181030055603  |grad|_K:  1.241e-05  alpha:  1.353e+00  linmin:  2.567e-04  t[s]:     13.39
	FillingsUpdate:  mu: -0.094139421  nElectrons: 9.000000
	SubspaceRotationAdjust: set factor to 1.03
ElecMinimize: Iter:   2  F: -24.429289675918724  |grad|_K:  1.082e-05  alpha:  1.447e+00  linmin:  2.713e-04  t[s]:     16.14
	FillingsUpdate:  mu: -0.093856260  nElectrons: 9.000000
	SubspaceRotationAdjust: set factor to 1.06
ElecMinimize: Iter:   3  F: -24.429358631595225  |grad|_K:  1.047e-05  alpha:  3.297e-02  linmin: -3.565e-03  t[s]:     18.92
ElecMinimize: 	Predicted alpha/alphaT>3.000000, increasing alphaT to 9.892401e-02.
ElecMinimize: 	Predicted alpha/alphaT>3.000000, increasing alphaT to 2.967720e-01.
	FillingsUpdate:  mu: -0.086983967  nElectrons: 9.000000
	SubspaceRotationAdjust: set factor to 0.935
ElecMinimize: Iter:   4  F: -24.430431313717527  |grad|_K:  8.473e-06  alpha:  5.761e-01  linmin:  1.766e-03  t[s]:     23.46
	FillingsUpdate:  mu: -0.086877301  nElectrons: 9.000000
	SubspaceRotationAdjust: set factor to 1.07
ElecMinimize: Iter:   5  F: -24.430436870242648  |grad|_K:  8.406e-06  alpha:  8.616e-03  linmin: -1.588e-03  t[s]:     26.23
ElecMinimize: 	Predicted alpha/alphaT>3.000000, increasing alphaT to 2.584910e-02.
ElecMinimize: 	Predicted alpha/alphaT>3.000000, increasing alphaT to 7.754730e-02.
	FillingsUpdate:  mu: -0.086695265  nElectrons: 9.000000
	SubspaceRotationAdjust: set factor to 1.2
ElecMinimize: Iter:   6  F: -24.430463144613487  |grad|_K:  8.329e-06  alpha:  1.354e-02  linmin: -5.253e-03  t[s]:     30.71
ElecMinimize: 	Predicted alpha/alphaT>3.000000, increasing alphaT to 4.062350e-02.
ElecMinimize: 	Predicted alpha/alphaT>3.000000, increasing alphaT to 1.218705e-01.
ElecMinimize: 	Step increased F by 2.520378e-04, reducing alpha to 5.497467e-03.
	FillingsUpdate:  mu: -0.086618101  nElectrons: 9.000000
	SubspaceRotationAdjust: set factor to 1.37
ElecMinimize: Iter:   7  F: -24.430480669732248  |grad|_K:  8.267e-06  alpha:  5.497e-03  linmin: -9.108e-03  t[s]:     37.03
ElecMinimize: 	Predicted alpha/alphaT>3.000000, increasing alphaT to 1.649240e-02.
ElecMinimize: 	Predicted alpha/alphaT>3.000000, increasing alphaT to 4.947720e-02.
ElecMinimize: 	Predicted alpha/alphaT>3.000000, increasing alphaT to 1.484316e-01.
	FillingsUpdate:  mu: -0.082985884  nElectrons: 9.000000
	SubspaceRotationAdjust: set factor to 1.6
ElecMinimize: Iter:   8  F: -24.431028861959540  |grad|_K:  5.578e-06  alpha:  2.493e-01  linmin: -1.044e-04  t[s]:     41.50
	FillingsUpdate:  mu: -0.082574637  nElectrons: 9.000000
	SubspaceRotationAdjust: set factor to 1.76
ElecMinimize: Iter:   9  F: -24.431074588262163  |grad|_K:  5.923e-06  alpha:  9.059e-02  linmin: -3.588e-03  t[s]:     44.28
ElecMinimize: 	Predicted alpha/alphaT>3.000000, increasing alphaT to 2.717735e-01.
	FillingsUpdate:  mu: -0.081465982  nElectrons: 9.000000
	SubspaceRotationAdjust: set factor to 1.75
ElecMinimize: Iter:  10  F: -24.431284813012905  |grad|_K:  6.080e-06  alpha:  3.747e-01  linmin:  3.406e-05  t[s]:     47.90
	FillingsUpdate:  mu: -0.080993695  nElectrons: 9.000000
	SubspaceRotationAdjust: set factor to 2.1
ElecMinimize: Iter:  11  F: -24.431360443345049  |grad|_K:  6.094e-06  alpha:  2.058e-01  linmin: -1.339e-04  t[s]:     50.64
	FillingsUpdate:  mu: -0.080393462  nElectrons: 9.000000
	SubspaceRotationAdjust: set factor to 2.72
ElecMinimize: Iter:  12  F: -24.431440961678035  |grad|_K:  5.912e-06  alpha:  2.269e-01  linmin:  8.086e-04  t[s]:     53.40
	FillingsUpdate:  mu: -0.079002527  nElectrons: 9.000000
	SubspaceRotationAdjust: set factor to 3.54
ElecMinimize: Iter:  13  F: -24.431486769250085  |grad|_K:  5.736e-06  alpha:  1.579e-01  linmin: -1.581e-05  t[s]:     56.15
	FillingsUpdate:  mu: -0.077395757  nElectrons: 9.000000
	SubspaceRotationAdjust: set factor to 3.98
ElecMinimize: Iter:  14  F: -24.431533843268461  |grad|_K:  5.104e-06  alpha:  1.494e-01  linmin: -4.772e-05  t[s]:     58.93
	FillingsUpdate:  mu: -0.076114316  nElectrons: 9.000000
	SubspaceRotationAdjust: set factor to 4.08
ElecMinimize: Iter:  15  F: -24.431572902040305  |grad|_K:  4.821e-06  alpha:  1.553e-01  linmin: -6.200e-05  t[s]:     61.67
	FillingsUpdate:  mu: -0.076019995  nElectrons: 9.000000
	SubspaceRotationAdjust: set factor to 5.01
ElecMinimize: Iter:  16  F: -24.431583482710550  |grad|_K:  4.718e-06  alpha:  2.533e-02  linmin: -3.363e-03  t[s]:     64.44
ElecMinimize: 	Predicted alpha/alphaT>3.000000, increasing alphaT to 7.598592e-02.
ElecMinimize: 	Step increased F by 8.231386e-05, reducing alpha to 2.222242e-02.
	FillingsUpdate:  mu: -0.076091036  nElectrons: 9.000000
	SubspaceRotationAdjust: set factor to 6.42
ElecMinimize: Iter:  17  F: -24.431601204771628  |grad|_K:  4.583e-06  alpha:  2.222e-02  linmin: -4.784e-03  t[s]:     69.90
ElecMinimize: 	Predicted alpha/alphaT>3.000000, increasing alphaT to 6.666726e-02.
	FillingsUpdate:  mu: -0.076758981  nElectrons: 9.000000
	SubspaceRotationAdjust: set factor to 6.29
ElecMinimize: Iter:  18  F: -24.431686754821115  |grad|_K:  3.087e-06  alpha:  1.336e-01  linmin: -1.784e-03  t[s]:     73.52
	FillingsUpdate:  mu: -0.077098262  nElectrons: 9.000000
	SubspaceRotationAdjust: set factor to 6.92
ElecMinimize: Iter:  19  F: -24.431717164438165  |grad|_K:  3.283e-06  alpha:  2.132e-01  linmin:  2.009e-04  t[s]:     76.28
	FillingsUpdate:  mu: -0.076752495  nElectrons: 9.000000
	SubspaceRotationAdjust: set factor to 8.15
	SubspaceRotationAdjust: resetting CG because factor has changed by 8.15186
ElecMinimize: 	State modified externally: resetting search direction.
ElecMinimize: Iter:  20  F: -24.431727247631041  |grad|_K:  3.583e-06  alpha:  9.706e-02
	FillingsUpdate:  mu: -0.076145734  nElectrons: 9.000000
	SubspaceRotationAdjust: set factor to 5.93
ElecMinimize: Iter:  21  F: -24.431758178426428  |grad|_K:  2.601e-06  alpha:  2.286e-01  linmin: -1.293e-03  t[s]:     83.43
	FillingsUpdate:  mu: -0.077303169  nElectrons: 9.000000
	SubspaceRotationAdjust: set factor to 3.64
ElecMinimize: Iter:  22  F: -24.431793194224035  |grad|_K:  2.287e-06  alpha:  4.881e-01  linmin:  9.378e-04  t[s]:     86.19
	FillingsUpdate:  mu: -0.076438596  nElectrons: 9.000000
	SubspaceRotationAdjust: set factor to 2.87
ElecMinimize: Iter:  23  F: -24.431820835686729  |grad|_K:  2.547e-06  alpha:  6.409e-01  linmin: -1.184e-05  t[s]:     89.02
	FillingsUpdate:  mu: -0.077261905  nElectrons: 9.000000
	SubspaceRotationAdjust: set factor to 4.26
ElecMinimize: Iter:  24  F: -24.431849192619325  |grad|_K:  1.726e-06  alpha:  3.014e-01  linmin: -6.180e-03  t[s]:     91.78
	FillingsUpdate:  mu: -0.078721453  nElectrons: 9.000000
	SubspaceRotationAdjust: set factor to 3.12
ElecMinimize: Iter:  25  F: -24.431867218769192  |grad|_K:  1.216e-06  alpha:  4.186e-01  linmin: -1.020e-05  t[s]:     94.61
	FillingsUpdate:  mu: -0.078413517  nElectrons: 9.000000
	SubspaceRotationAdjust: set factor to 2.51
ElecMinimize: Iter:  26  F: -24.431874938514596  |grad|_K:  1.113e-06  alpha:  5.508e-01  linmin:  1.250e-04  t[s]:     97.40
	FillingsUpdate:  mu: -0.078705068  nElectrons: 9.000000
	SubspaceRotationAdjust: set factor to 3.07
ElecMinimize: Iter:  27  F: -24.431882332142667  |grad|_K:  8.857e-07  alpha:  6.450e-01  linmin: -4.488e-05  t[s]:    100.14
	FillingsUpdate:  mu: -0.079489250  nElectrons: 9.000000
	SubspaceRotationAdjust: set factor to 2.63
ElecMinimize: Iter:  28  F: -24.431886177461479  |grad|_K:  6.820e-07  alpha:  5.093e-01  linmin: -8.215e-06  t[s]:    102.92
	FillingsUpdate:  mu: -0.079888332  nElectrons: 9.000000
	SubspaceRotationAdjust: set factor to 2.92
ElecMinimize: Iter:  29  F: -24.431889602549663  |grad|_K:  6.308e-07  alpha:  7.702e-01  linmin:  4.264e-05  t[s]:    105.72
	FillingsUpdate:  mu: -0.079729871  nElectrons: 9.000000
	SubspaceRotationAdjust: set factor to 2.6
ElecMinimize: Iter:  30  F: -24.431891700727387  |grad|_K:  4.765e-07  alpha:  5.501e-01  linmin:  5.567e-06  t[s]:    108.52
	FillingsUpdate:  mu: -0.079852129  nElectrons: 9.000000
	SubspaceRotationAdjust: set factor to 2.71
ElecMinimize: Iter:  31  F: -24.431893136897539  |grad|_K:  4.235e-07  alpha:  6.613e-01  linmin: -5.114e-05  t[s]:    111.28
	FillingsUpdate:  mu: -0.079951500  nElectrons: 9.000000
	SubspaceRotationAdjust: set factor to 3.21
ElecMinimize: Iter:  32  F: -24.431893772554243  |grad|_K:  3.495e-07  alpha:  2.193e-01  linmin: -4.367e-03  t[s]:    114.03
ElecMinimize: 	Step increased F by 1.336678e-06, reducing alpha to 4.721508e-02.
	FillingsUpdate:  mu: -0.079970418  nElectrons: 9.000000
	SubspaceRotationAdjust: set factor to 3.66
ElecMinimize: Iter:  33  F: -24.431893949252594  |grad|_K:  3.206e-07  alpha:  4.722e-02  linmin: -6.163e-03  t[s]:    118.67
ElecMinimize: 	Predicted alpha/alphaT>3.000000, increasing alphaT to 1.416452e-01.
	FillingsUpdate:  mu: -0.080124562  nElectrons: 9.000000
	SubspaceRotationAdjust: set factor to 2.89
ElecMinimize: Iter:  34  F: -24.431894716251417  |grad|_K:  3.477e-07  alpha:  3.166e-01  linmin:  1.229e-03  t[s]:    122.30
	FillingsUpdate:  mu: -0.080111362  nElectrons: 9.000000
	SubspaceRotationAdjust: set factor to 3.73
ElecMinimize: Iter:  35  F: -24.431894796843565  |grad|_K:  3.437e-07  alpha:  1.074e-01  linmin:  2.979e-05  t[s]:    125.08
	FillingsUpdate:  mu: -0.080034244  nElectrons: 9.000000
	SubspaceRotationAdjust: set factor to 4.47
ElecMinimize: Iter:  36  F: -24.431895031326661  |grad|_K:  3.741e-07  alpha:  1.862e-01  linmin: -5.442e-04  t[s]:    127.88
	FillingsUpdate:  mu: -0.079902664  nElectrons: 9.000000
	SubspaceRotationAdjust: set factor to 4.21
ElecMinimize: Iter:  37  F: -24.431895479388107  |grad|_K:  3.860e-07  alpha:  2.766e-01  linmin:  1.597e-05  t[s]:    130.65
	FillingsUpdate:  mu: -0.079877014  nElectrons: 9.000000
	SubspaceRotationAdjust: set factor to 4.84
ElecMinimize: Iter:  38  F: -24.431895820078161  |grad|_K:  3.846e-07  alpha:  2.440e-01  linmin: -3.677e-05  t[s]:    133.44
	FillingsUpdate:  mu: -0.080096337  nElectrons: 9.000000
	SubspaceRotationAdjust: set factor to 5.72
ElecMinimize: Iter:  39  F: -24.431895954814827  |grad|_K:  3.687e-07  alpha:  4.947e-02  linmin: -7.319e-04  t[s]:    136.23
	FillingsUpdate:  mu: -0.080196347  nElectrons: 9.000000
	SubspaceRotationAdjust: set factor to 4.86
ElecMinimize: Iter:  40  F: -24.431895973283243  |grad|_K:  4.423e-07  alpha:  8.022e-03  linmin: -6.455e-04  t[s]:    138.97
	FillingsUpdate:  mu: -0.080403479  nElectrons: 9.000000
	SubspaceRotationAdjust: set factor to 2.96
ElecMinimize: Iter:  41  F: -24.431896005862960  |grad|_K:  6.630e-07  alpha:  1.279e-02  linmin:  1.149e-04  t[s]:    141.75
	FillingsUpdate:  mu: -0.080528693  nElectrons: 9.000000
	SubspaceRotationAdjust: set factor to 1.77
ElecMinimize: Iter:  42  F: -24.431896021648157  |grad|_K:  6.830e-07  alpha:  4.594e-03  linmin:  8.648e-07  t[s]:    144.55
	FillingsUpdate:  mu: -0.080696460  nElectrons: 9.000000
	SubspaceRotationAdjust: set factor to 1.03
	SubspaceRotationAdjust: resetting CG because factor has changed by 0.126505
ElecMinimize: 	State modified externally: resetting search direction.
ElecMinimize: Iter:  43  F: -24.431896064852925  |grad|_K:  5.533e-07  alpha:  9.610e-03
ElecMinimize: 	Predicted alpha/alphaT>3.000000, increasing alphaT to 2.882870e-02.
ElecMinimize: 	Predicted alpha/alphaT>3.000000, increasing alphaT to 8.648611e-02.
	FillingsUpdate:  mu: -0.080114480  nElectrons: 9.000000
	SubspaceRotationAdjust: set factor to 1.51
ElecMinimize: Iter:  44  F: -24.431896431007047  |grad|_K:  2.071e-07  alpha:  1.181e-01  linmin: -9.392e-03  t[s]:    153.49
ElecMinimize: 	Predicted alpha/alphaT>3.000000, increasing alphaT to 3.542288e-01.
	FillingsUpdate:  mu: -0.079887846  nElectrons: 9.000000
	SubspaceRotationAdjust: set factor to 1.48
ElecMinimize: Iter:  45  F: -24.431896778465877  |grad|_K:  1.553e-07  alpha:  6.373e-01  linmin: -1.034e-02  t[s]:    157.10
	FillingsUpdate:  mu: -0.080003392  nElectrons: 9.000000
	SubspaceRotationAdjust: set factor to 1.26
ElecMinimize: Iter:  46  F: -24.431896863275416  |grad|_K:  1.549e-07  alpha:  1.236e-01  linmin: -9.340e-03  t[s]:    159.86
	FillingsUpdate:  mu: -0.080195819  nElectrons: 9.000000
	SubspaceRotationAdjust: set factor to 1.13
ElecMinimize: Iter:  47  F: -24.431896917002149  |grad|_K:  9.879e-08  alpha:  5.610e-02  linmin: -7.974e-03  t[s]:    162.65
	FillingsUpdate:  mu: -0.080336981  nElectrons: 9.000000
	SubspaceRotationAdjust: set factor to 0.991
ElecMinimize: Iter:  48  F: -24.431896929738226  |grad|_K:  1.508e-07  alpha:  7.183e-02  linmin:  5.203e-04  t[s]:    165.38
	FillingsUpdate:  mu: -0.080387223  nElectrons: 9.000000
	SubspaceRotationAdjust: set factor to 0.737
ElecMinimize: Iter:  49  F: -24.431896931952458  |grad|_K:  1.737e-07  alpha:  1.256e-02  linmin: -7.670e-05  t[s]:    168.15
	FillingsUpdate:  mu: -0.080486135  nElectrons: 9.000000
	SubspaceRotationAdjust: set factor to 0.478
ElecMinimize: Iter:  50  F: -24.431896939487238  |grad|_K:  2.085e-07  alpha:  2.512e-02  linmin:  2.781e-05  t[s]:    170.94
ElecMinimize: Converged (|Delta F|<1.000000e-08 for 2 iters).
Setting wave functions to eigenvectors of Hamiltonian

# Ionic positions in lattice coordinates:
ion Rb   0.000000000000000   0.000000000000000   0.000000000000000 0

# Forces in Lattice coordinates:
force Rb   0.000000000000000  -0.000000000000000   0.000000000000000 0

# Energy components:
   Eewald =      -24.2255383897082801
       EH =       -4.6707169896868486
     Eloc =        1.9037301542950744
      Enl =       -0.7791179043981349
   Epulay =        0.0000000018335096
      Exc =       -3.7169088357164379
       KE =        7.0566551229389951
-------------------------------------
     Etot =      -24.4318968404421213
       TS =        0.0000000990451166
-------------------------------------
        F =      -24.4318969394872383

IonicMinimize: Iter:   0  F: -24.431896939487238  |grad|_K:  0.000e+00  t[s]:    171.22
IonicMinimize: Converged (|grad|_K<1.000000e-04).

#--- Lowdin population analysis ---
# oxidation-state Rb +0.053

End date and time: Sun Jan 16 15:51:09 2022  (Duration: 0-0:02:51.29)
Done!
