2.24
--------------------------------------------------------------------------
The library attempted to open the following supporting CUDA libraries,
but each of them failed.  CUDA-aware support is disabled.
libcuda.so.1: cannot open shared object file: No such file or directory
libcuda.dylib: cannot open shared object file: No such file or directory
/usr/lib64/libcuda.so.1: cannot open shared object file: No such file or directory
/usr/lib64/libcuda.dylib: cannot open shared object file: No such file or directory
If you are not interested in CUDA-aware support, then run with
--mca opal_warn_on_missing_libcuda 0 to suppress this message.  If you are interested
in CUDA-aware support, then try setting LD_LIBRARY_PATH to the location
of libcuda.so.1 to get passed this issue.
--------------------------------------------------------------------------
--------------------------------------------------------------------------
No OpenFabrics connection schemes reported that they were able to be
used on a specific port.  As such, the openib BTL (OpenFabrics
support) will be disabled for this port.

  Local host:           d-5-3-1
  Local device:         mlx5_1
  Local port:           1
  CPCs attempted:       rdmacm, udcm
--------------------------------------------------------------------------

*************** JDFTx 1.6.0 (git hash 42ebbcc2) ***************

Start date and time: Sun Jan 16 15:52:48 2022
Executable jdftx with command-line: -i Rubidium.in
Running on hosts (process indices):  d-5-3-1 (0-18)
Divided in process groups (process indices):  0 (0)  1 (1)  2 (2)  3 (3)  4 (4)  5 (5)  6 (6)  7 (7)  8 (8)  9 (9)  10 (10)  11 (11)  12 (12)  13 (13)  14 (14)  15 (15)  16 (16)  17 (17)  18 (18)
Resource initialization completed at t[s]:      0.00
Run totals: 19 processes, 48 threads, 0 GPUs


Input parsed successfully to the following command list (including defaults):

basis kpoint-dependent
coords-type Lattice
core-overlap-check vector
coulomb-interaction Slab 001
davidson-band-ratio 1.1
dump End None
dump-name $INPUT.$VAR
elec-cutoff 20 100
elec-eigen-algo Davidson
elec-ex-corr gga-PBE
elec-smearing Fermi 1e-05
electronic-minimize  \
	dirUpdateScheme      FletcherReeves \
	linminMethod         DirUpdateRecommended \
	nIterations          10000 \
	history              15 \
	knormThreshold       0 \
	energyDiffThreshold  1e-08 \
	nEnergyDiff          2 \
	alphaTstart          1 \
	alphaTmin            1e-10 \
	updateTestStepSize   yes \
	alphaTreduceFactor   0.1 \
	alphaTincreaseFactor 3 \
	nAlphaAdjustMax      3 \
	wolfeEnergy          0.0001 \
	wolfeGradient        0.9 \
	fdTest               no
exchange-regularization WignerSeitzTruncated
fluid None
fluid-ex-corr (null) lda-PZ
fluid-gummel-loop 10 1.000000e-05
fluid-minimize  \
	dirUpdateScheme      PolakRibiere \
	linminMethod         DirUpdateRecommended \
	nIterations          100 \
	history              15 \
	knormThreshold       0 \
	energyDiffThreshold  0 \
	nEnergyDiff          2 \
	alphaTstart          1 \
	alphaTmin            1e-10 \
	updateTestStepSize   yes \
	alphaTreduceFactor   0.1 \
	alphaTincreaseFactor 3 \
	nAlphaAdjustMax      3 \
	wolfeEnergy          0.0001 \
	wolfeGradient        0.9 \
	fdTest               no
fluid-solvent H2O 55.338 ScalarEOS \
	epsBulk 78.4 \
	pMol 0.92466 \
	epsInf 1.77 \
	Pvap 1.06736e-10 \
	sigmaBulk 4.62e-05 \
	Rvdw 2.61727 \
	Res 1.42 \
	tauNuc 343133 \
	poleEl 15 7 1
forces-output-coords Positions
ion Rb   0.000000000000000   0.000000000000000   0.000000000000000 0
ion-species SG15/$ID_ONCV_PBE.upf
ion-width 0
ionic-minimize  \
	dirUpdateScheme      L-BFGS \
	linminMethod         DirUpdateRecommended \
	nIterations          0 \
	history              15 \
	knormThreshold       0.0001 \
	energyDiffThreshold  1e-06 \
	nEnergyDiff          2 \
	alphaTstart          1 \
	alphaTmin            1e-10 \
	updateTestStepSize   yes \
	alphaTreduceFactor   0.1 \
	alphaTincreaseFactor 3 \
	nAlphaAdjustMax      3 \
	wolfeEnergy          0.0001 \
	wolfeGradient        0.9 \
	fdTest               no
kpoint   0.000000000000   0.000000000000   0.000000000000  1.00000000000000
kpoint-folding 48 48 1 
latt-move-scale 1 1 1
latt-scale 2.24 2.24 1 
lattice  \
	   4.727486978767153   -2.363743489383575    0.000000000000000  \
	  -0.000000000000000    4.094123819672498    0.000000000000000  \
	   0.000000000000000    0.000000000000000   40.000000000000000 
lattice-minimize  \
	dirUpdateScheme      L-BFGS \
	linminMethod         DirUpdateRecommended \
	nIterations          0 \
	history              15 \
	knormThreshold       0 \
	energyDiffThreshold  1e-06 \
	nEnergyDiff          2 \
	alphaTstart          1 \
	alphaTmin            1e-10 \
	updateTestStepSize   yes \
	alphaTreduceFactor   0.1 \
	alphaTincreaseFactor 3 \
	nAlphaAdjustMax      3 \
	wolfeEnergy          0.0001 \
	wolfeGradient        0.9 \
	fdTest               no
lcao-params -1 1e-06 1e-05
pcm-variant GLSSA13
spintype no-spin
subspace-rotation-factor 1 yes
symmetries automatic
symmetry-threshold 0.0001



---------- Setting up symmetries ----------

Found 24 point-group symmetries of the bravais lattice
Found 24 space-group symmetries with basis
Applied RMS atom displacement 0 bohrs to make symmetries exact.

---------- Initializing the Grid ----------
R = 
[      10.5896     -5.29479            0  ]
[            0      9.17084            0  ]
[            0            0           40  ]
unit cell volume = 3884.61
G =
[   0.593337   0.342563         -0  ]
[          0   0.685127         -0  ]
[         -0         -0    0.15708  ]
Minimum fftbox size, Smin = [  48  48  184  ]
Chosen fftbox size, S = [  48  48  192  ]

---------- Initializing tighter grid for wavefunction operations ----------
R = 
[      10.5896     -5.29479            0  ]
[            0      9.17084            0  ]
[            0            0           40  ]
unit cell volume = 3884.61
G =
[   0.593337   0.342563         -0  ]
[          0   0.685127         -0  ]
[         -0         -0    0.15708  ]
Minimum fftbox size, Smin = [  44  44  164  ]
Chosen fftbox size, S = [  48  48  168  ]

---------- Exchange Correlation functional ----------
Initalized PBE GGA exchange.
Initalized PBE GGA correlation.

---------- Setting up pseudopotentials ----------
Width of ionic core gaussian charges (only for fluid interactions / plotting) set to 0

Reading pseudopotential file '/home/gridsan/aligho/DFT/build-Nov24/pseudopotentials/SG15/Rb_ONCV_PBE.upf':
  'Rb' pseudopotential, 'PBE' functional
  Generated using ONCVPSP code by D. R. Hamann
  Author: Martin Schlipf and Francois Gygi  Date: 150915.
  9 valence electrons, 3 orbitals, 6 projectors, 2308 radial grid points, with lMax = 2
  Transforming local potential to a uniform radial grid of dG=0.02 with 1617 points.
  Transforming nonlocal projectors to a uniform radial grid of dG=0.02 with 432 points.
    4S    l: 0   occupation:  2.0   eigenvalue: -1.172069
    4P    l: 1   occupation:  6.0   eigenvalue: -0.586674
    5S    l: 0   occupation:  1.0   eigenvalue: -0.082006
  Transforming atomic orbitals to a uniform radial grid of dG=0.02 with 432 points.
  Core radius for overlap checks: 2.60 bohrs.
  Reading pulay file /home/gridsan/aligho/DFT/build-Nov24/pseudopotentials/SG15/Rb_ONCV_PBE.pulay ... using dE_dnG = -1.360715e-05 computed for Ecut = 20.

Initialized 1 species with 1 total atoms.

Folded 1 k-points by 48x48x1 to 2304 k-points.

---------- Setting up k-points, bands, fillings ----------
Reduced to 217 k-points under symmetry. 
Computing the number of bands and number of electrons
Calculating initial fillings.
nElectrons:   9.000000   nBands: 6   nStates: 217

----- Setting up reduced wavefunction bases (one per k-point) -----
average nbasis = 16595.837 , ideal nbasis = 16595.347

---------- Setting up coulomb interaction ----------
Initialized slab truncation along lattice direction 001

---------- Setting up 2D ewald sum ----------
Optimum gaussian width for ewald sums = 5.878902 bohr.
Real space sums over 289 unit cells with max indices [  8  8  0  ]
Reciprocal space sums over 81 terms with max indices [  4  4  0  ]

---------- Allocating electronic variables ----------
Initializing wave functions:  linear combination of atomic orbitals
Note: number of bands (6) exceeds available atomic orbitals (5)
Rb pseudo-atom occupations:   s ( 2 1 )  p ( 6 )
[d-5-3-1:64929] 18 more processes have sent help message help-mpi-common-cuda.txt / dlopen failed
[d-5-3-1:64929] Set MCA parameter "orte_base_help_aggregate" to 0 to see all help / error messages
[d-5-3-1:64929] 18 more processes have sent help message help-mpi-btl-openib-cpc-base.txt / no cpcs for port
	FillingsUpdate:  mu: -0.089922948  nElectrons: 9.000000
LCAOMinimize: Iter:   0  F: -24.4485756779476127  |grad|_K:  5.398e-06  alpha:  1.000e+00
	FillingsUpdate:  mu: -0.089918426  nElectrons: 9.000000
LCAOMinimize: Iter:   1  F: -24.4485757897398699  |grad|_K:  4.776e-08  alpha:  9.824e-01  linmin: -1.464e-02  cgtest:  2.398e-01  t[s]:     13.89
LCAOMinimize: Encountered beta<0, resetting CG.
	FillingsUpdate:  mu: -0.089918423  nElectrons: 9.000000
LCAOMinimize: Iter:   2  F: -24.4485757897488334  |grad|_K:  1.529e-09  alpha:  9.678e-01  linmin: -1.012e-01  cgtest:  9.883e-01  t[s]:     18.98
LCAOMinimize: Encountered beta<0, resetting CG.
LCAOMinimize: Converged (|Delta F|<1.000000e-06 for 2 iters).


---- Citations for features of the code used in this run ----

   Software package:
      R. Sundararaman, K. Letchworth-Weaver, K.A. Schwarz, D. Gunceler, Y. Ozhabes and T.A. Arias, 'JDFTx: software for joint density-functional theory', SoftwareX 6, 278 (2017)

   gga-PBE exchange-correlation functional:
      J.P. Perdew, K. Burke and M. Ernzerhof, Phys. Rev. Lett. 77, 3865 (1996)

   Pseudopotentials:
      M Schlipf and F Gygi, Comput. Phys. Commun. 196, 36 (2015)

   Truncated Coulomb potentials:
      R. Sundararaman and T.A. Arias, Phys. Rev. B 87, 165122 (2013)

   Total energy minimization with Auxiliary Hamiltonian:
      C. Freysoldt, S. Boeck, and J. Neugebauer, Phys. Rev. B 79, 241103(R) (2009)

This list may not be complete. Please suggest additional citations or
report any other bugs at https://github.com/shankar1729/jdftx/issues

Initialization completed successfully at t[s]:     19.43


-------- Electronic minimization -----------
	FillingsUpdate:  mu: -0.089918423  nElectrons: 9.000000
ElecMinimize: Iter:   0  F: -24.448575789748812  |grad|_K:  4.746e-06  alpha:  1.000e+00
ElecMinimize: 	Predicted alpha/alphaT>3.000000, increasing alphaT to 3.000000e+00.
	FillingsUpdate:  mu: -0.089041197  nElectrons: 9.000000
	SubspaceRotationAdjust: set factor to 1
ElecMinimize: Iter:   1  F: -24.451231780440271  |grad|_K:  5.559e-06  alpha:  5.449e+00  linmin:  4.058e-04  t[s]:     31.92
	FillingsUpdate:  mu: -0.089038737  nElectrons: 9.000000
	SubspaceRotationAdjust: set factor to 1.05
ElecMinimize: Iter:   2  F: -24.451256727363976  |grad|_K:  5.387e-06  alpha:  1.920e-02  linmin: -1.879e-03  t[s]:     38.32
ElecMinimize: 	Predicted alpha/alphaT>3.000000, increasing alphaT to 5.759661e-02.
ElecMinimize: 	Predicted alpha/alphaT>3.000000, increasing alphaT to 1.727898e-01.
ElecMinimize: 	Predicted alpha/alphaT>3.000000, increasing alphaT to 5.183694e-01.
	FillingsUpdate:  mu: -0.088561181  nElectrons: 9.000000
	SubspaceRotationAdjust: set factor to 1.08
ElecMinimize: Iter:   3  F: -24.452012918614155  |grad|_K:  3.362e-06  alpha:  6.434e-01  linmin:  4.012e-04  t[s]:     48.78
	FillingsUpdate:  mu: -0.087875756  nElectrons: 9.000000
	SubspaceRotationAdjust: set factor to 1.01
ElecMinimize: Iter:   4  F: -24.452126353827122  |grad|_K:  3.416e-06  alpha:  5.896e-01  linmin:  1.299e-04  t[s]:     55.14
	FillingsUpdate:  mu: -0.087709463  nElectrons: 9.000000
	SubspaceRotationAdjust: set factor to 1.18
ElecMinimize: Iter:   5  F: -24.452164228613238  |grad|_K:  3.219e-06  alpha:  1.035e-01  linmin: -5.734e-04  t[s]:     61.57
ElecMinimize: 	Predicted alpha/alphaT>3.000000, increasing alphaT to 3.104028e-01.
	FillingsUpdate:  mu: -0.087099067  nElectrons: 9.000000
	SubspaceRotationAdjust: set factor to 1.16
ElecMinimize: Iter:   6  F: -24.452276009838759  |grad|_K:  2.923e-06  alpha:  3.189e-01  linmin:  3.367e-04  t[s]:     70.07
	FillingsUpdate:  mu: -0.086815757  nElectrons: 9.000000
	SubspaceRotationAdjust: set factor to 1.1
ElecMinimize: Iter:   7  F: -24.452300094262778  |grad|_K:  3.150e-06  alpha:  1.563e-01  linmin: -5.880e-05  t[s]:     76.53
	FillingsUpdate:  mu: -0.086468313  nElectrons: 9.000000
	SubspaceRotationAdjust: set factor to 1.54
ElecMinimize: Iter:   8  F: -24.452346403878778  |grad|_K:  3.100e-06  alpha:  2.073e-01  linmin: -5.759e-05  t[s]:     83.04
	FillingsUpdate:  mu: -0.086344648  nElectrons: 9.000000
	SubspaceRotationAdjust: set factor to 1.83
ElecMinimize: Iter:   9  F: -24.452383832109398  |grad|_K:  2.723e-06  alpha:  1.778e-01  linmin: -9.504e-05  t[s]:     89.52
	FillingsUpdate:  mu: -0.086379163  nElectrons: 9.000000
	SubspaceRotationAdjust: set factor to 1.95
ElecMinimize: Iter:  10  F: -24.452413288967168  |grad|_K:  2.314e-06  alpha:  1.790e-01  linmin: -2.703e-04  t[s]:     96.00
	FillingsUpdate:  mu: -0.086342793  nElectrons: 9.000000
	SubspaceRotationAdjust: set factor to 2.32
ElecMinimize: Iter:  11  F: -24.452452881580175  |grad|_K:  1.927e-06  alpha:  2.933e-01  linmin: -2.451e-04  t[s]:    102.41
	FillingsUpdate:  mu: -0.086063677  nElectrons: 9.000000
	SubspaceRotationAdjust: set factor to 3.04
ElecMinimize: Iter:  12  F: -24.452485151986625  |grad|_K:  1.559e-06  alpha:  3.538e-01  linmin:  8.949e-06  t[s]:    108.83
	FillingsUpdate:  mu: -0.085708441  nElectrons: 9.000000
	SubspaceRotationAdjust: set factor to 3.16
ElecMinimize: Iter:  13  F: -24.452502584230430  |grad|_K:  1.322e-06  alpha:  3.301e-01  linmin:  9.173e-05  t[s]:    115.28
	FillingsUpdate:  mu: -0.085458769  nElectrons: 9.000000
	SubspaceRotationAdjust: set factor to 3.11
ElecMinimize: Iter:  14  F: -24.452511911042478  |grad|_K:  1.231e-06  alpha:  2.399e-01  linmin:  8.740e-06  t[s]:    121.77
	FillingsUpdate:  mu: -0.085319640  nElectrons: 9.000000
	SubspaceRotationAdjust: set factor to 3.09
ElecMinimize: Iter:  15  F: -24.452518404625540  |grad|_K:  1.206e-06  alpha:  1.950e-01  linmin:  2.443e-05  t[s]:    128.17
	FillingsUpdate:  mu: -0.085313741  nElectrons: 9.000000
	SubspaceRotationAdjust: set factor to 3.13
ElecMinimize: Iter:  16  F: -24.452523560730210  |grad|_K:  1.099e-06  alpha:  1.686e-01  linmin:  2.617e-06  t[s]:    134.67
	FillingsUpdate:  mu: -0.085418283  nElectrons: 9.000000
	SubspaceRotationAdjust: set factor to 4.15
ElecMinimize: Iter:  17  F: -24.452527474540400  |grad|_K:  8.988e-07  alpha:  1.511e-01  linmin: -1.305e-04  t[s]:    141.16
	FillingsUpdate:  mu: -0.085538287  nElectrons: 9.000000
	SubspaceRotationAdjust: set factor to 4.33
ElecMinimize: Iter:  18  F: -24.452530737771717  |grad|_K:  8.020e-07  alpha:  1.788e-01  linmin: -9.862e-05  t[s]:    147.61
	FillingsUpdate:  mu: -0.085591294  nElectrons: 9.000000
	SubspaceRotationAdjust: set factor to 5.06
ElecMinimize: Iter:  19  F: -24.452534794390814  |grad|_K:  7.434e-07  alpha:  2.618e-01  linmin: -6.344e-05  t[s]:    154.01
	FillingsUpdate:  mu: -0.085504676  nElectrons: 9.000000
	SubspaceRotationAdjust: set factor to 6.58
ElecMinimize: Iter:  20  F: -24.452538066146747  |grad|_K:  6.183e-07  alpha:  2.567e-01  linmin:  3.868e-05  t[s]:    160.46
	FillingsUpdate:  mu: -0.085415880  nElectrons: 9.000000
	SubspaceRotationAdjust: set factor to 6.14
ElecMinimize: Iter:  21  F: -24.452539697820441  |grad|_K:  5.786e-07  alpha:  1.873e-01  linmin:  6.640e-06  t[s]:    166.90
	FillingsUpdate:  mu: -0.085392276  nElectrons: 9.000000
	SubspaceRotationAdjust: set factor to 5.42
ElecMinimize: Iter:  22  F: -24.452540955255042  |grad|_K:  6.882e-07  alpha:  1.743e-01  linmin:  3.465e-05  t[s]:    173.39
	FillingsUpdate:  mu: -0.085454023  nElectrons: 9.000000
	SubspaceRotationAdjust: set factor to 4.2
ElecMinimize: Iter:  23  F: -24.452542288216716  |grad|_K:  6.844e-07  alpha:  1.384e-01  linmin:  7.323e-06  t[s]:    179.82
	FillingsUpdate:  mu: -0.085542446  nElectrons: 9.000000
	SubspaceRotationAdjust: set factor to 6.07
ElecMinimize: Iter:  24  F: -24.452543385645061  |grad|_K:  5.056e-07  alpha:  1.107e-01  linmin: -2.576e-05  t[s]:    186.23
	FillingsUpdate:  mu: -0.085594385  nElectrons: 9.000000
	SubspaceRotationAdjust: set factor to 6.74
ElecMinimize: Iter:  25  F: -24.452544260772914  |grad|_K:  4.499e-07  alpha:  1.507e-01  linmin: -5.310e-05  t[s]:    192.71
	FillingsUpdate:  mu: -0.085592214  nElectrons: 9.000000
	SubspaceRotationAdjust: set factor to 7.02
ElecMinimize: Iter:  26  F: -24.452545289667036  |grad|_K:  4.503e-07  alpha:  2.115e-01  linmin: -3.863e-05  t[s]:    199.16
	FillingsUpdate:  mu: -0.085566342  nElectrons: 9.000000
	SubspaceRotationAdjust: set factor to 7.97
	SubspaceRotationAdjust: resetting CG because factor has changed by 7.97303
ElecMinimize: 	State modified externally: resetting search direction.
ElecMinimize: Iter:  27  F: -24.452546267209797  |grad|_K:  4.344e-07  alpha:  2.122e-01
	FillingsUpdate:  mu: -0.085640379  nElectrons: 9.000000
	SubspaceRotationAdjust: set factor to 5.51
ElecMinimize: Iter:  28  F: -24.452547166355362  |grad|_K:  3.537e-07  alpha:  2.220e-01  linmin:  8.724e-05  t[s]:    215.93
	FillingsUpdate:  mu: -0.085635709  nElectrons: 9.000000
	SubspaceRotationAdjust: set factor to 10.7
ElecMinimize: Iter:  29  F: -24.452548442418827  |grad|_K:  1.632e-07  alpha:  5.151e-01  linmin:  3.639e-05  t[s]:    222.37
	FillingsUpdate:  mu: -0.085625949  nElectrons: 9.000000
	SubspaceRotationAdjust: set factor to 6.98
ElecMinimize: Iter:  30  F: -24.452548711217183  |grad|_K:  2.330e-07  alpha:  4.712e-01  linmin: -3.600e-05  t[s]:    228.81
	FillingsUpdate:  mu: -0.085690449  nElectrons: 9.000000
	SubspaceRotationAdjust: set factor to 3.15
ElecMinimize: Iter:  31  F: -24.452549185905223  |grad|_K:  1.486e-07  alpha:  3.877e-01  linmin:  2.778e-05  t[s]:    235.24
	FillingsUpdate:  mu: -0.085687724  nElectrons: 9.000000
	SubspaceRotationAdjust: set factor to 1.66
ElecMinimize: Iter:  32  F: -24.452549445188296  |grad|_K:  1.222e-07  alpha:  5.438e-01  linmin: -9.176e-05  t[s]:    241.68
	FillingsUpdate:  mu: -0.085757262  nElectrons: 9.000000
	SubspaceRotationAdjust: set factor to 1.8
ElecMinimize: Iter:  33  F: -24.452549772228316  |grad|_K:  8.203e-08  alpha:  9.730e-01  linmin:  1.764e-05  t[s]:    248.15
	FillingsUpdate:  mu: -0.085801467  nElectrons: 9.000000
	SubspaceRotationAdjust: set factor to 1.72
ElecMinimize: Iter:  34  F: -24.452549937234341  |grad|_K:  6.695e-08  alpha:  1.144e+00  linmin:  1.083e-05  t[s]:    254.64
	FillingsUpdate:  mu: -0.085819269  nElectrons: 9.000000
	SubspaceRotationAdjust: set factor to 1.49
ElecMinimize: Iter:  35  F: -24.452550040810959  |grad|_K:  4.718e-08  alpha:  1.074e+00  linmin: -3.893e-06  t[s]:    261.11
	FillingsUpdate:  mu: -0.085843580  nElectrons: 9.000000
	SubspaceRotationAdjust: set factor to 1.66
ElecMinimize: Iter:  36  F: -24.452550098045759  |grad|_K:  3.286e-08  alpha:  1.188e+00  linmin:  8.115e-07  t[s]:    267.53
	FillingsUpdate:  mu: -0.085858955  nElectrons: 9.000000
	SubspaceRotationAdjust: set factor to 1.45
ElecMinimize: Iter:  37  F: -24.452550120929601  |grad|_K:  2.028e-08  alpha:  9.798e-01  linmin:  2.450e-06  t[s]:    273.95
	FillingsUpdate:  mu: -0.085862178  nElectrons: 9.000000
	SubspaceRotationAdjust: set factor to 1.56
ElecMinimize: Iter:  38  F: -24.452550130477004  |grad|_K:  1.565e-08  alpha:  1.076e+00  linmin:  4.696e-07  t[s]:    280.38
	FillingsUpdate:  mu: -0.085863549  nElectrons: 9.000000
	SubspaceRotationAdjust: set factor to 1.46
ElecMinimize: Iter:  39  F: -24.452550136086703  |grad|_K:  1.105e-08  alpha:  1.061e+00  linmin:  7.456e-07  t[s]:    286.86
ElecMinimize: Converged (|Delta F|<1.000000e-08 for 2 iters).
Setting wave functions to eigenvectors of Hamiltonian

# Ionic positions in lattice coordinates:
ion Rb   0.000000000000000   0.000000000000000   0.000000000000000 0

# Forces in Lattice coordinates:
force Rb  -0.000000000000000   0.000000000000000   0.000000000000000 0

# Energy components:
   Eewald =      -16.1143090181541666
       EH =        3.5265260258999285
     Eloc =      -14.3629581957325314
      Enl =       -0.7982461279421149
   Epulay =        0.0000000017177880
      Exc =       -3.6643700409896125
       KE =        6.9608072898633084
-------------------------------------
     Etot =      -24.4525500653374053
       TS =        0.0000000707492985
-------------------------------------
        F =      -24.4525501360867032

IonicMinimize: Iter:   0  F: -24.452550136086703  |grad|_K:  0.000e+00  t[s]:    287.51
IonicMinimize: Converged (|grad|_K<1.000000e-04).

#--- Lowdin population analysis ---
# oxidation-state Rb +0.035

End date and time: Sun Jan 16 15:57:35 2022  (Duration: 0-0:04:47.64)
Done!
