3.5
--------------------------------------------------------------------------
The library attempted to open the following supporting CUDA libraries,
but each of them failed.  CUDA-aware support is disabled.
libcuda.so.1: cannot open shared object file: No such file or directory
libcuda.dylib: cannot open shared object file: No such file or directory
/usr/lib64/libcuda.so.1: cannot open shared object file: No such file or directory
/usr/lib64/libcuda.dylib: cannot open shared object file: No such file or directory
If you are not interested in CUDA-aware support, then run with
--mca opal_warn_on_missing_libcuda 0 to suppress this message.  If you are interested
in CUDA-aware support, then try setting LD_LIBRARY_PATH to the location
of libcuda.so.1 to get passed this issue.
--------------------------------------------------------------------------
--------------------------------------------------------------------------
No OpenFabrics connection schemes reported that they were able to be
used on a specific port.  As such, the openib BTL (OpenFabrics
support) will be disabled for this port.

  Local host:           d-4-7-2
  Local device:         mlx5_1
  Local port:           1
  CPCs attempted:       rdmacm, udcm
--------------------------------------------------------------------------

*************** JDFTx 1.6.0 (git hash 42ebbcc2) ***************

Start date and time: Sun Jan 16 16:05:06 2022
Executable jdftx with command-line: -i Rubidium.in
Running on hosts (process indices):  d-4-7-2 (0-18)
Divided in process groups (process indices):  0 (0)  1 (1)  2 (2)  3 (3)  4 (4)  5 (5)  6 (6)  7 (7)  8 (8)  9 (9)  10 (10)  11 (11)  12 (12)  13 (13)  14 (14)  15 (15)  16 (16)  17 (17)  18 (18)
Resource initialization completed at t[s]:      0.00
Run totals: 19 processes, 48 threads, 0 GPUs


Input parsed successfully to the following command list (including defaults):

basis kpoint-dependent
coords-type Lattice
core-overlap-check vector
coulomb-interaction Slab 001
davidson-band-ratio 1.1
dump End None
dump-name $INPUT.$VAR
elec-cutoff 20 100
elec-eigen-algo Davidson
elec-ex-corr gga-PBE
elec-smearing Fermi 1e-05
electronic-minimize  \
	dirUpdateScheme      FletcherReeves \
	linminMethod         DirUpdateRecommended \
	nIterations          10000 \
	history              15 \
	knormThreshold       0 \
	energyDiffThreshold  1e-08 \
	nEnergyDiff          2 \
	alphaTstart          1 \
	alphaTmin            1e-10 \
	updateTestStepSize   yes \
	alphaTreduceFactor   0.1 \
	alphaTincreaseFactor 3 \
	nAlphaAdjustMax      3 \
	wolfeEnergy          0.0001 \
	wolfeGradient        0.9 \
	fdTest               no
exchange-regularization WignerSeitzTruncated
fluid None
fluid-ex-corr (null) lda-PZ
fluid-gummel-loop 10 1.000000e-05
fluid-minimize  \
	dirUpdateScheme      PolakRibiere \
	linminMethod         DirUpdateRecommended \
	nIterations          100 \
	history              15 \
	knormThreshold       0 \
	energyDiffThreshold  0 \
	nEnergyDiff          2 \
	alphaTstart          1 \
	alphaTmin            1e-10 \
	updateTestStepSize   yes \
	alphaTreduceFactor   0.1 \
	alphaTincreaseFactor 3 \
	nAlphaAdjustMax      3 \
	wolfeEnergy          0.0001 \
	wolfeGradient        0.9 \
	fdTest               no
fluid-solvent H2O 55.338 ScalarEOS \
	epsBulk 78.4 \
	pMol 0.92466 \
	epsInf 1.77 \
	Pvap 1.06736e-10 \
	sigmaBulk 4.62e-05 \
	Rvdw 2.61727 \
	Res 1.42 \
	tauNuc 343133 \
	poleEl 15 7 1
forces-output-coords Positions
ion Rb   0.000000000000000   0.000000000000000   0.000000000000000 0
ion-species SG15/$ID_ONCV_PBE.upf
ion-width 0
ionic-minimize  \
	dirUpdateScheme      L-BFGS \
	linminMethod         DirUpdateRecommended \
	nIterations          0 \
	history              15 \
	knormThreshold       0.0001 \
	energyDiffThreshold  1e-06 \
	nEnergyDiff          2 \
	alphaTstart          1 \
	alphaTmin            1e-10 \
	updateTestStepSize   yes \
	alphaTreduceFactor   0.1 \
	alphaTincreaseFactor 3 \
	nAlphaAdjustMax      3 \
	wolfeEnergy          0.0001 \
	wolfeGradient        0.9 \
	fdTest               no
kpoint   0.000000000000   0.000000000000   0.000000000000  1.00000000000000
kpoint-folding 48 48 1 
latt-move-scale 1 1 1
latt-scale 3.5 3.5 1 
lattice  \
	   4.727486978767153   -2.363743489383575    0.000000000000000  \
	  -0.000000000000000    4.094123819672498    0.000000000000000  \
	   0.000000000000000    0.000000000000000   40.000000000000000 
lattice-minimize  \
	dirUpdateScheme      L-BFGS \
	linminMethod         DirUpdateRecommended \
	nIterations          0 \
	history              15 \
	knormThreshold       0 \
	energyDiffThreshold  1e-06 \
	nEnergyDiff          2 \
	alphaTstart          1 \
	alphaTmin            1e-10 \
	updateTestStepSize   yes \
	alphaTreduceFactor   0.1 \
	alphaTincreaseFactor 3 \
	nAlphaAdjustMax      3 \
	wolfeEnergy          0.0001 \
	wolfeGradient        0.9 \
	fdTest               no
lcao-params -1 1e-06 1e-05
pcm-variant GLSSA13
spintype no-spin
subspace-rotation-factor 1 yes
symmetries automatic
symmetry-threshold 0.0001



---------- Setting up symmetries ----------

Found 24 point-group symmetries of the bravais lattice
Found 24 space-group symmetries with basis
Applied RMS atom displacement 0 bohrs to make symmetries exact.

---------- Initializing the Grid ----------
R = 
[      16.5462      -8.2731            0  ]
[            0      14.3294            0  ]
[            0            0           40  ]
unit cell volume = 9483.91
G =
[   0.379736   0.219241         -0  ]
[          0   0.438481         -0  ]
[         -0         -0    0.15708  ]
Minimum fftbox size, Smin = [  76  76  184  ]
Chosen fftbox size, S = [  80  80  192  ]

---------- Initializing tighter grid for wavefunction operations ----------
R = 
[      16.5462      -8.2731            0  ]
[            0      14.3294            0  ]
[            0            0           40  ]
unit cell volume = 9483.91
G =
[   0.379736   0.219241         -0  ]
[          0   0.438481         -0  ]
[         -0         -0    0.15708  ]
Minimum fftbox size, Smin = [  68  68  164  ]
Chosen fftbox size, S = [  70  70  168  ]

---------- Exchange Correlation functional ----------
Initalized PBE GGA exchange.
Initalized PBE GGA correlation.

---------- Setting up pseudopotentials ----------
Width of ionic core gaussian charges (only for fluid interactions / plotting) set to 0

Reading pseudopotential file '/home/gridsan/aligho/DFT/build-Nov24/pseudopotentials/SG15/Rb_ONCV_PBE.upf':
  'Rb' pseudopotential, 'PBE' functional
  Generated using ONCVPSP code by D. R. Hamann
  Author: Martin Schlipf and Francois Gygi  Date: 150915.
  9 valence electrons, 3 orbitals, 6 projectors, 2308 radial grid points, with lMax = 2
  Transforming local potential to a uniform radial grid of dG=0.02 with 1701 points.
  Transforming nonlocal projectors to a uniform radial grid of dG=0.02 with 432 points.
    4S    l: 0   occupation:  2.0   eigenvalue: -1.172069
    4P    l: 1   occupation:  6.0   eigenvalue: -0.586674
    5S    l: 0   occupation:  1.0   eigenvalue: -0.082006
  Transforming atomic orbitals to a uniform radial grid of dG=0.02 with 432 points.
  Core radius for overlap checks: 2.60 bohrs.
  Reading pulay file /home/gridsan/aligho/DFT/build-Nov24/pseudopotentials/SG15/Rb_ONCV_PBE.pulay ... using dE_dnG = -1.360715e-05 computed for Ecut = 20.

Initialized 1 species with 1 total atoms.

Folded 1 k-points by 48x48x1 to 2304 k-points.

---------- Setting up k-points, bands, fillings ----------
Reduced to 217 k-points under symmetry. 
Computing the number of bands and number of electrons
Calculating initial fillings.
nElectrons:   9.000000   nBands: 6   nStates: 217

----- Setting up reduced wavefunction bases (one per k-point) -----
average nbasis = 40517.204 , ideal nbasis = 40515.983

---------- Setting up coulomb interaction ----------
Initialized slab truncation along lattice direction 001

---------- Setting up 2D ewald sum ----------
Optimum gaussian width for ewald sums = 9.185785 bohr.
Real space sums over 289 unit cells with max indices [  8  8  0  ]
Reciprocal space sums over 81 terms with max indices [  4  4  0  ]

---------- Allocating electronic variables ----------
Initializing wave functions:  linear combination of atomic orbitals
Note: number of bands (6) exceeds available atomic orbitals (5)
Rb pseudo-atom occupations:   s ( 2 1 )  p ( 6 )
[d-4-7-2:44510] 18 more processes have sent help message help-mpi-common-cuda.txt / dlopen failed
[d-4-7-2:44510] Set MCA parameter "orte_base_help_aggregate" to 0 to see all help / error messages
[d-4-7-2:44510] 18 more processes have sent help message help-mpi-btl-openib-cpc-base.txt / no cpcs for port
	FillingsUpdate:  mu: -0.082860547  nElectrons: 9.000000
LCAOMinimize: Iter:   0  F: -24.4325762230960990  |grad|_K:  4.448e-06  alpha:  1.000e+00
	FillingsUpdate:  mu: -0.082858411  nElectrons: 9.000000
LCAOMinimize: Iter:   1  F: -24.4325762994561693  |grad|_K:  3.118e-08  alpha:  9.881e-01  linmin: -6.219e-03  cgtest:  2.999e-01  t[s]:     31.29
LCAOMinimize: Encountered beta<0, resetting CG.
	FillingsUpdate:  mu: -0.082858413  nElectrons: 9.000000
LCAOMinimize: Iter:   2  F: -24.4325762994601234  |grad|_K:  2.550e-09  alpha:  1.081e+00  linmin:  2.549e-02  cgtest: -9.987e-01  t[s]:     42.27
LCAOMinimize: Converged (|Delta F|<1.000000e-06 for 2 iters).


---- Citations for features of the code used in this run ----

   Software package:
      R. Sundararaman, K. Letchworth-Weaver, K.A. Schwarz, D. Gunceler, Y. Ozhabes and T.A. Arias, 'JDFTx: software for joint density-functional theory', SoftwareX 6, 278 (2017)

   gga-PBE exchange-correlation functional:
      J.P. Perdew, K. Burke and M. Ernzerhof, Phys. Rev. Lett. 77, 3865 (1996)

   Pseudopotentials:
      M Schlipf and F Gygi, Comput. Phys. Commun. 196, 36 (2015)

   Truncated Coulomb potentials:
      R. Sundararaman and T.A. Arias, Phys. Rev. B 87, 165122 (2013)

   Total energy minimization with Auxiliary Hamiltonian:
      C. Freysoldt, S. Boeck, and J. Neugebauer, Phys. Rev. B 79, 241103(R) (2009)

This list may not be complete. Please suggest additional citations or
report any other bugs at https://github.com/shankar1729/jdftx/issues

Initialization completed successfully at t[s]:     43.31


-------- Electronic minimization -----------
	FillingsUpdate:  mu: -0.082858413  nElectrons: 9.000000
ElecMinimize: Iter:   0  F: -24.432576299460127  |grad|_K:  8.408e-07  alpha:  1.000e+00
ElecMinimize: 	Predicted alpha/alphaT>3.000000, increasing alphaT to 3.000000e+00.
	FillingsUpdate:  mu: -0.082472720  nElectrons: 9.000000
	SubspaceRotationAdjust: set factor to 1
ElecMinimize: Iter:   1  F: -24.432753967817710  |grad|_K:  1.563e-06  alpha:  4.762e+00  linmin:  2.976e-05  t[s]:     70.86
	FillingsUpdate:  mu: -0.082473993  nElectrons: 9.000000
	SubspaceRotationAdjust: set factor to 1.02
ElecMinimize: Iter:   2  F: -24.432755424089098  |grad|_K:  1.554e-06  alpha:  5.683e-03  linmin: -4.035e-04  t[s]:     85.15
ElecMinimize: 	Predicted alpha/alphaT>3.000000, increasing alphaT to 1.704866e-02.
ElecMinimize: 	Predicted alpha/alphaT>3.000000, increasing alphaT to 5.114599e-02.
ElecMinimize: 	Predicted alpha/alphaT>3.000000, increasing alphaT to 1.534380e-01.
	FillingsUpdate:  mu: -0.082925426  nElectrons: 9.000000
	SubspaceRotationAdjust: set factor to 1.01
ElecMinimize: Iter:   3  F: -24.432933263846422  |grad|_K:  1.169e-06  alpha:  7.087e-01  linmin:  3.206e-05  t[s]:    108.23
	FillingsUpdate:  mu: -0.082989834  nElectrons: 9.000000
	SubspaceRotationAdjust: set factor to 1.02
ElecMinimize: Iter:   4  F: -24.432960607993188  |grad|_K:  1.136e-06  alpha:  2.552e-01  linmin: -1.762e-04  t[s]:    122.68
	FillingsUpdate:  mu: -0.083102039  nElectrons: 9.000000
	SubspaceRotationAdjust: set factor to 0.831
ElecMinimize: Iter:   5  F: -24.432998810428234  |grad|_K:  1.404e-06  alpha:  4.997e-01  linmin:  6.392e-04  t[s]:    137.08
ElecMinimize: 	Bad step direction: g.d > 0.
ElecMinimize: 	Undoing step.
ElecMinimize: 	Step failed: resetting search direction.
	FillingsUpdate:  mu: -0.083102039  nElectrons: 9.000000
	SubspaceRotationAdjust: set factor to 0.727
ElecMinimize: Iter:   6  F: -24.432998810428234  |grad|_K:  1.314e-06  alpha:  0.000e+00
	FillingsUpdate:  mu: -0.083071733  nElectrons: 9.000000
	SubspaceRotationAdjust: set factor to 1.15
ElecMinimize: Iter:   7  F: -24.433052440796054  |grad|_K:  4.819e-07  alpha:  5.655e-01  linmin: -9.183e-04  t[s]:    161.34
	FillingsUpdate:  mu: -0.083065261  nElectrons: 9.000000
	SubspaceRotationAdjust: set factor to 1.04
ElecMinimize: Iter:   8  F: -24.433072936815915  |grad|_K:  3.861e-07  alpha:  1.227e+00  linmin: -4.695e-04  t[s]:    175.69
ElecMinimize: 	Predicted alpha/alphaT>3.000000, increasing alphaT to 3.681081e+00.
	FillingsUpdate:  mu: -0.083251527  nElectrons: 9.000000
	SubspaceRotationAdjust: set factor to 0.857
ElecMinimize: Iter:   9  F: -24.433109657169126  |grad|_K:  6.252e-07  alpha:  3.523e+00  linmin:  2.635e-04  t[s]:    194.41
	FillingsUpdate:  mu: -0.083251805  nElectrons: 9.000000
	SubspaceRotationAdjust: set factor to 1.09
ElecMinimize: Iter:  10  F: -24.433109702997360  |grad|_K:  5.915e-07  alpha:  1.858e-03  linmin: -1.425e-03  t[s]:    208.75
ElecMinimize: 	Predicted alpha/alphaT>3.000000, increasing alphaT to 5.575344e-03.
ElecMinimize: 	Predicted alpha/alphaT>3.000000, increasing alphaT to 1.672603e-02.
ElecMinimize: 	Predicted alpha/alphaT>3.000000, increasing alphaT to 5.017810e-02.
	FillingsUpdate:  mu: -0.083354881  nElectrons: 9.000000
	SubspaceRotationAdjust: set factor to 1.12
ElecMinimize: Iter:  11  F: -24.433136264812301  |grad|_K:  5.248e-07  alpha:  8.111e-01  linmin: -2.741e-04  t[s]:    231.81
	FillingsUpdate:  mu: -0.083390383  nElectrons: 9.000000
	SubspaceRotationAdjust: set factor to 1.11
ElecMinimize: Iter:  12  F: -24.433150781226221  |grad|_K:  4.008e-07  alpha:  8.558e-01  linmin:  4.611e-05  t[s]:    246.18
	FillingsUpdate:  mu: -0.083388065  nElectrons: 9.000000
	SubspaceRotationAdjust: set factor to 1.15
ElecMinimize: Iter:  13  F: -24.433156041020538  |grad|_K:  3.384e-07  alpha:  6.333e-01  linmin:  2.264e-05  t[s]:    260.52
	FillingsUpdate:  mu: -0.083382938  nElectrons: 9.000000
	SubspaceRotationAdjust: set factor to 1.17
ElecMinimize: Iter:  14  F: -24.433160474258802  |grad|_K:  3.195e-07  alpha:  7.510e-01  linmin:  2.967e-05  t[s]:    274.84
	FillingsUpdate:  mu: -0.083384313  nElectrons: 9.000000
	SubspaceRotationAdjust: set factor to 1.21
ElecMinimize: Iter:  15  F: -24.433163623638471  |grad|_K:  2.988e-07  alpha:  5.994e-01  linmin:  1.233e-05  t[s]:    289.12
	FillingsUpdate:  mu: -0.083380956  nElectrons: 9.000000
	SubspaceRotationAdjust: set factor to 1.38
ElecMinimize: Iter:  16  F: -24.433166183552526  |grad|_K:  2.703e-07  alpha:  5.526e-01  linmin:  2.938e-05  t[s]:    303.51
	FillingsUpdate:  mu: -0.083370081  nElectrons: 9.000000
	SubspaceRotationAdjust: set factor to 1.61
ElecMinimize: Iter:  17  F: -24.433167971700282  |grad|_K:  2.183e-07  alpha:  4.720e-01  linmin: -8.201e-07  t[s]:    317.78
	FillingsUpdate:  mu: -0.083363129  nElectrons: 9.000000
	SubspaceRotationAdjust: set factor to 1.7
ElecMinimize: Iter:  18  F: -24.433169118995082  |grad|_K:  1.770e-07  alpha:  4.564e-01  linmin: -1.319e-05  t[s]:    332.11
	FillingsUpdate:  mu: -0.083365469  nElectrons: 9.000000
	SubspaceRotationAdjust: set factor to 1.69
ElecMinimize: Iter:  19  F: -24.433170004835294  |grad|_K:  1.600e-07  alpha:  5.291e-01  linmin: -7.903e-06  t[s]:    346.41
	FillingsUpdate:  mu: -0.083374297  nElectrons: 9.000000
	SubspaceRotationAdjust: set factor to 1.84
ElecMinimize: Iter:  20  F: -24.433170752987799  |grad|_K:  1.459e-07  alpha:  5.520e-01  linmin:  1.139e-05  t[s]:    360.76
	FillingsUpdate:  mu: -0.083379391  nElectrons: 9.000000
	SubspaceRotationAdjust: set factor to 2.04
ElecMinimize: Iter:  21  F: -24.433171317028396  |grad|_K:  1.284e-07  alpha:  5.053e-01  linmin:  5.220e-06  t[s]:    375.06
	FillingsUpdate:  mu: -0.083374850  nElectrons: 9.000000
	SubspaceRotationAdjust: set factor to 2.03
ElecMinimize: Iter:  22  F: -24.433171740532561  |grad|_K:  1.197e-07  alpha:  4.906e-01  linmin:  9.312e-06  t[s]:    389.40
	FillingsUpdate:  mu: -0.083364097  nElectrons: 9.000000
	SubspaceRotationAdjust: set factor to 2.3
ElecMinimize: Iter:  23  F: -24.433172117082979  |grad|_K:  1.114e-07  alpha:  5.029e-01  linmin: -1.854e-05  t[s]:    403.72
	FillingsUpdate:  mu: -0.083358055  nElectrons: 9.000000
	SubspaceRotationAdjust: set factor to 2.65
ElecMinimize: Iter:  24  F: -24.433172425773545  |grad|_K:  9.609e-08  alpha:  4.688e-01  linmin: -8.541e-06  t[s]:    418.04
	FillingsUpdate:  mu: -0.083361745  nElectrons: 9.000000
	SubspaceRotationAdjust: set factor to 2.52
ElecMinimize: Iter:  25  F: -24.433172663645966  |grad|_K:  8.811e-08  alpha:  4.850e-01  linmin: -3.854e-06  t[s]:    432.36
	FillingsUpdate:  mu: -0.083369567  nElectrons: 9.000000
	SubspaceRotationAdjust: set factor to 2.84
ElecMinimize: Iter:  26  F: -24.433172875112071  |grad|_K:  8.340e-08  alpha:  5.155e-01  linmin:  7.671e-06  t[s]:    446.73
	FillingsUpdate:  mu: -0.083372228  nElectrons: 9.000000
	SubspaceRotationAdjust: set factor to 3.2
ElecMinimize: Iter:  27  F: -24.433173044480736  |grad|_K:  7.475e-08  alpha:  4.648e-01  linmin:  4.188e-06  t[s]:    461.08
	FillingsUpdate:  mu: -0.083369467  nElectrons: 9.000000
	SubspaceRotationAdjust: set factor to 3.07
ElecMinimize: Iter:  28  F: -24.433173184812574  |grad|_K:  7.763e-08  alpha:  4.780e-01  linmin: -1.461e-05  t[s]:    475.50
	FillingsUpdate:  mu: -0.083368199  nElectrons: 9.000000
	SubspaceRotationAdjust: set factor to 3.76
ElecMinimize: Iter:  29  F: -24.433173355949943  |grad|_K:  7.371e-08  alpha:  5.329e-01  linmin: -7.519e-06  t[s]:    489.85
	FillingsUpdate:  mu: -0.083371978  nElectrons: 9.000000
	SubspaceRotationAdjust: set factor to 3.79
ElecMinimize: Iter:  30  F: -24.433173476820251  |grad|_K:  5.933e-08  alpha:  4.177e-01  linmin:  2.036e-06  t[s]:    504.12
	FillingsUpdate:  mu: -0.083375812  nElectrons: 9.000000
	SubspaceRotationAdjust: set factor to 3.71
ElecMinimize: Iter:  31  F: -24.433173560723191  |grad|_K:  5.901e-08  alpha:  4.538e-01  linmin:  1.197e-05  t[s]:    518.40
	FillingsUpdate:  mu: -0.083375016  nElectrons: 9.000000
	SubspaceRotationAdjust: set factor to 4.46
ElecMinimize: Iter:  32  F: -24.433173635593825  |grad|_K:  5.057e-08  alpha:  4.165e-01  linmin:  9.346e-07  t[s]:    532.82
	FillingsUpdate:  mu: -0.083373198  nElectrons: 9.000000
	SubspaceRotationAdjust: set factor to 4.16
ElecMinimize: Iter:  33  F: -24.433173688699391  |grad|_K:  4.625e-08  alpha:  3.946e-01  linmin: -9.390e-06  t[s]:    547.15
	FillingsUpdate:  mu: -0.083375662  nElectrons: 9.000000
	SubspaceRotationAdjust: set factor to 4.49
ElecMinimize: Iter:  34  F: -24.433173741654734  |grad|_K:  4.188e-08  alpha:  4.611e-01  linmin: -5.207e-06  t[s]:    561.54
	FillingsUpdate:  mu: -0.083379385  nElectrons: 9.000000
	SubspaceRotationAdjust: set factor to 4.14
ElecMinimize: Iter:  35  F: -24.433173781124975  |grad|_K:  3.810e-08  alpha:  4.237e-01  linmin:  5.495e-06  t[s]:    575.88
	FillingsUpdate:  mu: -0.083380027  nElectrons: 9.000000
	SubspaceRotationAdjust: set factor to 4.32
ElecMinimize: Iter:  36  F: -24.433173815746901  |grad|_K:  3.707e-08  alpha:  4.579e-01  linmin:  3.589e-06  t[s]:    590.21
	FillingsUpdate:  mu: -0.083379515  nElectrons: 9.000000
	SubspaceRotationAdjust: set factor to 4.43
ElecMinimize: Iter:  37  F: -24.433173845550833  |grad|_K:  3.260e-08  alpha:  4.141e-01  linmin: -4.705e-06  t[s]:    604.51
	FillingsUpdate:  mu: -0.083381335  nElectrons: 9.000000
	SubspaceRotationAdjust: set factor to 4.23
ElecMinimize: Iter:  38  F: -24.433173870606598  |grad|_K:  3.074e-08  alpha:  4.434e-01  linmin: -4.861e-06  t[s]:    618.80
	FillingsUpdate:  mu: -0.083383706  nElectrons: 9.000000
	SubspaceRotationAdjust: set factor to 4.45
ElecMinimize: Iter:  39  F: -24.433173891651968  |grad|_K:  2.569e-08  alpha:  4.196e-01  linmin:  2.944e-06  t[s]:    633.15
	FillingsUpdate:  mu: -0.083383548  nElectrons: 9.000000
	SubspaceRotationAdjust: set factor to 4.16
ElecMinimize: Iter:  40  F: -24.433173906386997  |grad|_K:  2.455e-08  alpha:  4.257e-01  linmin:  2.524e-06  t[s]:    647.49
	FillingsUpdate:  mu: -0.083382269  nElectrons: 9.000000
	SubspaceRotationAdjust: set factor to 4.54
ElecMinimize: Iter:  41  F: -24.433173920416245  |grad|_K:  2.163e-08  alpha:  4.428e-01  linmin: -3.635e-06  t[s]:    661.78
	FillingsUpdate:  mu: -0.083382101  nElectrons: 9.000000
	SubspaceRotationAdjust: set factor to 4.22
ElecMinimize: Iter:  42  F: -24.433173930785273  |grad|_K:  1.970e-08  alpha:  4.184e-01  linmin: -1.764e-06  t[s]:    676.10
	FillingsUpdate:  mu: -0.083382145  nElectrons: 9.000000
	SubspaceRotationAdjust: set factor to 4.34
ElecMinimize: Iter:  43  F: -24.433173940466716  |grad|_K:  1.868e-08  alpha:  4.723e-01  linmin:  2.602e-06  t[s]:    690.45
	FillingsUpdate:  mu: -0.083381161  nElectrons: 9.000000
	SubspaceRotationAdjust: set factor to 4.2
ElecMinimize: Iter:  44  F: -24.433173948507402  |grad|_K:  1.729e-08  alpha:  4.391e-01  linmin:  9.897e-07  t[s]:    704.75
ElecMinimize: Converged (|Delta F|<1.000000e-08 for 2 iters).
Setting wave functions to eigenvectors of Hamiltonian

# Ionic positions in lattice coordinates:
ion Rb   0.000000000000000   0.000000000000000   0.000000000000000 0

# Forces in Lattice coordinates:
force Rb  -0.000000000000000   0.000000000000000   0.000000000000000 0

# Energy components:
   Eewald =      -10.3131577716186680
       EH =        9.2034783660369435
     Eloc =      -25.8349659588299616
      Enl =       -0.7951835359399050
   Epulay =        0.0000000017517436
      Exc =       -3.6451983932776404
       KE =        6.9518534145321986
-------------------------------------
     Etot =      -24.4331738773452862
       TS =        0.0000000711621153
-------------------------------------
        F =      -24.4331739485074024

IonicMinimize: Iter:   0  F: -24.433173948507402  |grad|_K:  0.000e+00  t[s]:    706.32
IonicMinimize: Converged (|grad|_K<1.000000e-04).

#--- Lowdin population analysis ---
# oxidation-state Rb +0.012

End date and time: Sun Jan 16 16:16:53 2022  (Duration: 0-0:11:46.64)
Done!
