1.79
--------------------------------------------------------------------------
The library attempted to open the following supporting CUDA libraries,
but each of them failed.  CUDA-aware support is disabled.
libcuda.so.1: cannot open shared object file: No such file or directory
libcuda.dylib: cannot open shared object file: No such file or directory
/usr/lib64/libcuda.so.1: cannot open shared object file: No such file or directory
/usr/lib64/libcuda.dylib: cannot open shared object file: No such file or directory
If you are not interested in CUDA-aware support, then run with
--mca opal_warn_on_missing_libcuda 0 to suppress this message.  If you are interested
in CUDA-aware support, then try setting LD_LIBRARY_PATH to the location
of libcuda.so.1 to get passed this issue.
--------------------------------------------------------------------------
--------------------------------------------------------------------------
No OpenFabrics connection schemes reported that they were able to be
used on a specific port.  As such, the openib BTL (OpenFabrics
support) will be disabled for this port.

  Local host:           d-16-7-2
  Local device:         mlx5_1
  Local port:           1
  CPCs attempted:       rdmacm, udcm
--------------------------------------------------------------------------

*************** JDFTx 1.6.0 (git hash 42ebbcc2) ***************

Start date and time: Sun Jan 16 15:49:25 2022
Executable jdftx with command-line: -i Rubidium.in
Running on hosts (process indices):  d-16-7-2 (0-18)
Divided in process groups (process indices):  0 (0)  1 (1)  2 (2)  3 (3)  4 (4)  5 (5)  6 (6)  7 (7)  8 (8)  9 (9)  10 (10)  11 (11)  12 (12)  13 (13)  14 (14)  15 (15)  16 (16)  17 (17)  18 (18)
Resource initialization completed at t[s]:      0.00
Run totals: 19 processes, 48 threads, 0 GPUs


Input parsed successfully to the following command list (including defaults):

basis kpoint-dependent
coords-type Lattice
core-overlap-check vector
coulomb-interaction Slab 001
davidson-band-ratio 1.1
dump End None
dump-name $INPUT.$VAR
elec-cutoff 20 100
elec-eigen-algo Davidson
elec-ex-corr gga-PBE
elec-smearing Fermi 1e-05
electronic-minimize  \
	dirUpdateScheme      FletcherReeves \
	linminMethod         DirUpdateRecommended \
	nIterations          10000 \
	history              15 \
	knormThreshold       0 \
	energyDiffThreshold  1e-08 \
	nEnergyDiff          2 \
	alphaTstart          1 \
	alphaTmin            1e-10 \
	updateTestStepSize   yes \
	alphaTreduceFactor   0.1 \
	alphaTincreaseFactor 3 \
	nAlphaAdjustMax      3 \
	wolfeEnergy          0.0001 \
	wolfeGradient        0.9 \
	fdTest               no
exchange-regularization WignerSeitzTruncated
fluid None
fluid-ex-corr (null) lda-PZ
fluid-gummel-loop 10 1.000000e-05
fluid-minimize  \
	dirUpdateScheme      PolakRibiere \
	linminMethod         DirUpdateRecommended \
	nIterations          100 \
	history              15 \
	knormThreshold       0 \
	energyDiffThreshold  0 \
	nEnergyDiff          2 \
	alphaTstart          1 \
	alphaTmin            1e-10 \
	updateTestStepSize   yes \
	alphaTreduceFactor   0.1 \
	alphaTincreaseFactor 3 \
	nAlphaAdjustMax      3 \
	wolfeEnergy          0.0001 \
	wolfeGradient        0.9 \
	fdTest               no
fluid-solvent H2O 55.338 ScalarEOS \
	epsBulk 78.4 \
	pMol 0.92466 \
	epsInf 1.77 \
	Pvap 1.06736e-10 \
	sigmaBulk 4.62e-05 \
	Rvdw 2.61727 \
	Res 1.42 \
	tauNuc 343133 \
	poleEl 15 7 1
forces-output-coords Positions
ion Rb   0.000000000000000   0.000000000000000   0.000000000000000 0
ion-species SG15/$ID_ONCV_PBE.upf
ion-width 0
ionic-minimize  \
	dirUpdateScheme      L-BFGS \
	linminMethod         DirUpdateRecommended \
	nIterations          0 \
	history              15 \
	knormThreshold       0.0001 \
	energyDiffThreshold  1e-06 \
	nEnergyDiff          2 \
	alphaTstart          1 \
	alphaTmin            1e-10 \
	updateTestStepSize   yes \
	alphaTreduceFactor   0.1 \
	alphaTincreaseFactor 3 \
	nAlphaAdjustMax      3 \
	wolfeEnergy          0.0001 \
	wolfeGradient        0.9 \
	fdTest               no
kpoint   0.000000000000   0.000000000000   0.000000000000  1.00000000000000
kpoint-folding 48 48 1 
latt-move-scale 1 1 1
latt-scale 1.79 1.79 1 
lattice  \
	   4.727486978767153   -2.363743489383575    0.000000000000000  \
	  -0.000000000000000    4.094123819672498    0.000000000000000  \
	   0.000000000000000    0.000000000000000   40.000000000000000 
lattice-minimize  \
	dirUpdateScheme      L-BFGS \
	linminMethod         DirUpdateRecommended \
	nIterations          0 \
	history              15 \
	knormThreshold       0 \
	energyDiffThreshold  1e-06 \
	nEnergyDiff          2 \
	alphaTstart          1 \
	alphaTmin            1e-10 \
	updateTestStepSize   yes \
	alphaTreduceFactor   0.1 \
	alphaTincreaseFactor 3 \
	nAlphaAdjustMax      3 \
	wolfeEnergy          0.0001 \
	wolfeGradient        0.9 \
	fdTest               no
lcao-params -1 1e-06 1e-05
pcm-variant GLSSA13
spintype no-spin
subspace-rotation-factor 1 yes
symmetries automatic
symmetry-threshold 0.0001



---------- Setting up symmetries ----------

Found 24 point-group symmetries of the bravais lattice
Found 24 space-group symmetries with basis
Applied RMS atom displacement 0 bohrs to make symmetries exact.

---------- Initializing the Grid ----------
R = 
[       8.4622      -4.2311            0  ]
[            0      7.32848            0  ]
[            0            0           40  ]
unit cell volume = 2480.6
G =
[     0.7425   0.428683         -0  ]
[          0   0.857365         -0  ]
[         -0         -0    0.15708  ]
Minimum fftbox size, Smin = [  40  40  184  ]
Chosen fftbox size, S = [  40  40  192  ]

---------- Initializing tighter grid for wavefunction operations ----------
R = 
[       8.4622      -4.2311            0  ]
[            0      7.32848            0  ]
[            0            0           40  ]
unit cell volume = 2480.6
G =
[     0.7425   0.428683         -0  ]
[          0   0.857365         -0  ]
[         -0         -0    0.15708  ]
Minimum fftbox size, Smin = [  36  36  164  ]
Chosen fftbox size, S = [  36  36  168  ]

---------- Exchange Correlation functional ----------
Initalized PBE GGA exchange.
Initalized PBE GGA correlation.

---------- Setting up pseudopotentials ----------
Width of ionic core gaussian charges (only for fluid interactions / plotting) set to 0

Reading pseudopotential file '/home/gridsan/aligho/DFT/build-Nov24/pseudopotentials/SG15/Rb_ONCV_PBE.upf':
  'Rb' pseudopotential, 'PBE' functional
  Generated using ONCVPSP code by D. R. Hamann
  Author: Martin Schlipf and Francois Gygi  Date: 150915.
  9 valence electrons, 3 orbitals, 6 projectors, 2308 radial grid points, with lMax = 2
  Transforming local potential to a uniform radial grid of dG=0.02 with 1671 points.
  Transforming nonlocal projectors to a uniform radial grid of dG=0.02 with 432 points.
    4S    l: 0   occupation:  2.0   eigenvalue: -1.172069
    4P    l: 1   occupation:  6.0   eigenvalue: -0.586674
    5S    l: 0   occupation:  1.0   eigenvalue: -0.082006
  Transforming atomic orbitals to a uniform radial grid of dG=0.02 with 432 points.
  Core radius for overlap checks: 2.60 bohrs.
  Reading pulay file /home/gridsan/aligho/DFT/build-Nov24/pseudopotentials/SG15/Rb_ONCV_PBE.pulay ... using dE_dnG = -1.360715e-05 computed for Ecut = 20.

Initialized 1 species with 1 total atoms.

Folded 1 k-points by 48x48x1 to 2304 k-points.

---------- Setting up k-points, bands, fillings ----------
Reduced to 217 k-points under symmetry. 
Computing the number of bands and number of electrons
Calculating initial fillings.
nElectrons:   9.000000   nBands: 6   nStates: 217

----- Setting up reduced wavefunction bases (one per k-point) -----
average nbasis = 10597.686 , ideal nbasis = 10597.328

---------- Setting up coulomb interaction ----------
Initialized slab truncation along lattice direction 001

---------- Setting up 2D ewald sum ----------
Optimum gaussian width for ewald sums = 4.697873 bohr.
Real space sums over 289 unit cells with max indices [  8  8  0  ]
Reciprocal space sums over 81 terms with max indices [  4  4  0  ]

---------- Allocating electronic variables ----------
Initializing wave functions:  linear combination of atomic orbitals
Note: number of bands (6) exceeds available atomic orbitals (5)
Rb pseudo-atom occupations:   s ( 2 1 )  p ( 6 )
[d-16-7-2:65920] 18 more processes have sent help message help-mpi-common-cuda.txt / dlopen failed
[d-16-7-2:65920] Set MCA parameter "orte_base_help_aggregate" to 0 to see all help / error messages
[d-16-7-2:65920] 18 more processes have sent help message help-mpi-btl-openib-cpc-base.txt / no cpcs for port
	FillingsUpdate:  mu: -0.100476952  nElectrons: 9.000000
LCAOMinimize: Iter:   0  F: -24.4482165822102715  |grad|_K:  3.147e-06  alpha:  1.000e+00
	FillingsUpdate:  mu: -0.100473284  nElectrons: 9.000000
LCAOMinimize: Iter:   1  F: -24.4482166205995100  |grad|_K:  2.965e-08  alpha:  9.926e-01  linmin: -2.044e-02  cgtest:  4.411e-01  t[s]:      9.63
LCAOMinimize: Encountered beta<0, resetting CG.
	FillingsUpdate:  mu: -0.100473211  nElectrons: 9.000000
LCAOMinimize: Iter:   2  F: -24.4482166206032758  |grad|_K:  3.721e-09  alpha:  1.108e+00  linmin:  6.669e-02  cgtest: -9.919e-01  t[s]:     13.01
LCAOMinimize: Converged (|Delta F|<1.000000e-06 for 2 iters).


---- Citations for features of the code used in this run ----

   Software package:
      R. Sundararaman, K. Letchworth-Weaver, K.A. Schwarz, D. Gunceler, Y. Ozhabes and T.A. Arias, 'JDFTx: software for joint density-functional theory', SoftwareX 6, 278 (2017)

   gga-PBE exchange-correlation functional:
      J.P. Perdew, K. Burke and M. Ernzerhof, Phys. Rev. Lett. 77, 3865 (1996)

   Pseudopotentials:
      M Schlipf and F Gygi, Comput. Phys. Commun. 196, 36 (2015)

   Truncated Coulomb potentials:
      R. Sundararaman and T.A. Arias, Phys. Rev. B 87, 165122 (2013)

   Total energy minimization with Auxiliary Hamiltonian:
      C. Freysoldt, S. Boeck, and J. Neugebauer, Phys. Rev. B 79, 241103(R) (2009)

This list may not be complete. Please suggest additional citations or
report any other bugs at https://github.com/shankar1729/jdftx/issues

Initialization completed successfully at t[s]:     13.33


-------- Electronic minimization -----------
	FillingsUpdate:  mu: -0.100473211  nElectrons: 9.000000
ElecMinimize: Iter:   0  F: -24.448216620603290  |grad|_K:  8.658e-06  alpha:  1.000e+00
	FillingsUpdate:  mu: -0.097942619  nElectrons: 9.000000
	SubspaceRotationAdjust: set factor to 1
ElecMinimize: Iter:   1  F: -24.450751933576523  |grad|_K:  9.009e-06  alpha:  2.466e+00  linmin:  4.826e-04  t[s]:     20.29
	FillingsUpdate:  mu: -0.097479318  nElectrons: 9.000000
	SubspaceRotationAdjust: set factor to 1.04
ElecMinimize: Iter:   2  F: -24.451031954363422  |grad|_K:  8.135e-06  alpha:  1.331e-01  linmin: -2.902e-03  t[s]:     24.57
ElecMinimize: 	Predicted alpha/alphaT>3.000000, increasing alphaT to 3.994492e-01.
	FillingsUpdate:  mu: -0.093208966  nElectrons: 9.000000
	SubspaceRotationAdjust: set factor to 1.07
ElecMinimize: Iter:   3  F: -24.452150363043692  |grad|_K:  6.203e-06  alpha:  6.583e-01  linmin:  2.017e-04  t[s]:     30.14
	FillingsUpdate:  mu: -0.092100695  nElectrons: 9.000000
	SubspaceRotationAdjust: set factor to 1.09
ElecMinimize: Iter:   4  F: -24.452309107903691  |grad|_K:  5.872e-06  alpha:  1.928e-01  linmin: -1.073e-03  t[s]:     34.39
ElecMinimize: 	Step increased F by 9.532379e-05, reducing alpha to 4.935445e-02.
	FillingsUpdate:  mu: -0.091834755  nElectrons: 9.000000
	SubspaceRotationAdjust: set factor to 1.11
ElecMinimize: Iter:   5  F: -24.452382347759755  |grad|_K:  5.406e-06  alpha:  4.935e-02  linmin: -2.458e-03  t[s]:     41.54
ElecMinimize: 	Predicted alpha/alphaT>3.000000, increasing alphaT to 1.480634e-01.
	FillingsUpdate:  mu: -0.089490292  nElectrons: 9.000000
	SubspaceRotationAdjust: set factor to 1.39
ElecMinimize: Iter:   6  F: -24.452713105674935  |grad|_K:  4.296e-06  alpha:  3.528e-01  linmin:  7.451e-04  t[s]:     47.11
	FillingsUpdate:  mu: -0.089262996  nElectrons: 9.000000
	SubspaceRotationAdjust: set factor to 1.81
ElecMinimize: Iter:   7  F: -24.452720948300186  |grad|_K:  4.410e-06  alpha:  3.564e-02  linmin: -7.597e-04  t[s]:     51.37
ElecMinimize: 	Predicted alpha/alphaT>3.000000, increasing alphaT to 1.069060e-01.
	FillingsUpdate:  mu: -0.087785176  nElectrons: 9.000000
	SubspaceRotationAdjust: set factor to 2.32
ElecMinimize: Iter:   8  F: -24.452813682486688  |grad|_K:  4.268e-06  alpha:  2.071e-01  linmin: -1.468e-03  t[s]:     56.92
ElecMinimize: 	Step increased F by 5.837760e-04, reducing alpha to 3.564273e-02.
	FillingsUpdate:  mu: -0.087565816  nElectrons: 9.000000
	SubspaceRotationAdjust: set factor to 3.12
ElecMinimize: Iter:   9  F: -24.452838891669934  |grad|_K:  4.221e-06  alpha:  3.564e-02  linmin: -5.789e-03  t[s]:     64.03
ElecMinimize: 	Predicted alpha/alphaT>3.000000, increasing alphaT to 1.069282e-01.
	FillingsUpdate:  mu: -0.086396195  nElectrons: 9.000000
	SubspaceRotationAdjust: set factor to 2.97
ElecMinimize: Iter:  10  F: -24.452990636999495  |grad|_K:  2.265e-06  alpha:  2.482e-01  linmin: -1.998e-03  t[s]:     69.63
	FillingsUpdate:  mu: -0.085574346  nElectrons: 9.000000
	SubspaceRotationAdjust: set factor to 3.24
ElecMinimize: Iter:  11  F: -24.453035397647007  |grad|_K:  2.218e-06  alpha:  4.754e-01  linmin: -4.788e-04  t[s]:     73.89
	FillingsUpdate:  mu: -0.084207541  nElectrons: 9.000000
	SubspaceRotationAdjust: set factor to 3.35
ElecMinimize: Iter:  12  F: -24.453069059530058  |grad|_K:  1.990e-06  alpha:  4.523e-01  linmin:  1.081e-04  t[s]:     78.20
	FillingsUpdate:  mu: -0.083189024  nElectrons: 9.000000
	SubspaceRotationAdjust: set factor to 3.54
ElecMinimize: Iter:  13  F: -24.453087296954845  |grad|_K:  1.771e-06  alpha:  3.352e-01  linmin:  2.505e-05  t[s]:     82.44
	FillingsUpdate:  mu: -0.082694518  nElectrons: 9.000000
	SubspaceRotationAdjust: set factor to 4.58
ElecMinimize: Iter:  14  F: -24.453099593796033  |grad|_K:  1.409e-06  alpha:  2.851e-01  linmin:  5.111e-05  t[s]:     86.72
	FillingsUpdate:  mu: -0.082683893  nElectrons: 9.000000
	SubspaceRotationAdjust: set factor to 5.18
ElecMinimize: Iter:  15  F: -24.453106547916864  |grad|_K:  1.069e-06  alpha:  2.582e-01  linmin: -1.543e-04  t[s]:     91.00
	FillingsUpdate:  mu: -0.082704943  nElectrons: 9.000000
	SubspaceRotationAdjust: set factor to 5.11
ElecMinimize: Iter:  16  F: -24.453111192742046  |grad|_K:  8.987e-07  alpha:  2.881e-01  linmin: -4.623e-05  t[s]:     95.24
	FillingsUpdate:  mu: -0.082454520  nElectrons: 9.000000
	SubspaceRotationAdjust: set factor to 5.52
ElecMinimize: Iter:  17  F: -24.453114562138492  |grad|_K:  7.034e-07  alpha:  2.978e-01  linmin:  3.995e-05  t[s]:     99.52
	FillingsUpdate:  mu: -0.082245058  nElectrons: 9.000000
	SubspaceRotationAdjust: set factor to 5.29
ElecMinimize: Iter:  18  F: -24.453116537750361  |grad|_K:  6.191e-07  alpha:  2.924e-01  linmin:  5.122e-05  t[s]:    103.78
	FillingsUpdate:  mu: -0.082260864  nElectrons: 9.000000
	SubspaceRotationAdjust: set factor to 5.98
ElecMinimize: Iter:  19  F: -24.453117970605881  |grad|_K:  5.663e-07  alpha:  2.787e-01  linmin: -5.159e-05  t[s]:    108.08
	FillingsUpdate:  mu: -0.082381817  nElectrons: 9.000000
	SubspaceRotationAdjust: set factor to 6.49
ElecMinimize: Iter:  20  F: -24.453119220014351  |grad|_K:  4.943e-07  alpha:  2.774e-01  linmin: -1.185e-05  t[s]:    112.36
	FillingsUpdate:  mu: -0.082369254  nElectrons: 9.000000
	SubspaceRotationAdjust: set factor to 6.34
ElecMinimize: Iter:  21  F: -24.453120164886094  |grad|_K:  4.502e-07  alpha:  2.791e-01  linmin: -4.414e-05  t[s]:    116.69
	FillingsUpdate:  mu: -0.082294064  nElectrons: 9.000000
	SubspaceRotationAdjust: set factor to 6.33
ElecMinimize: Iter:  22  F: -24.453121035353650  |grad|_K:  4.241e-07  alpha:  3.040e-01  linmin:  2.943e-05  t[s]:    120.97
	FillingsUpdate:  mu: -0.082359229  nElectrons: 9.000000
	SubspaceRotationAdjust: set factor to 6.5
ElecMinimize: Iter:  23  F: -24.453121653524452  |grad|_K:  3.625e-07  alpha:  2.507e-01  linmin:  2.589e-05  t[s]:    125.26
	FillingsUpdate:  mu: -0.082477344  nElectrons: 9.000000
	SubspaceRotationAdjust: set factor to 6.61
ElecMinimize: Iter:  24  F: -24.453122115553064  |grad|_K:  3.333e-07  alpha:  2.578e-01  linmin: -1.307e-05  t[s]:    129.50
	FillingsUpdate:  mu: -0.082493921  nElectrons: 9.000000
	SubspaceRotationAdjust: set factor to 7.16
ElecMinimize: Iter:  25  F: -24.453122523221886  |grad|_K:  2.869e-07  alpha:  2.646e-01  linmin: -2.612e-05  t[s]:    133.78
	FillingsUpdate:  mu: -0.082453610  nElectrons: 9.000000
	SubspaceRotationAdjust: set factor to 6.66
ElecMinimize: Iter:  26  F: -24.453122825709158  |grad|_K:  2.679e-07  alpha:  2.620e-01  linmin:  1.604e-05  t[s]:    138.04
	FillingsUpdate:  mu: -0.082499339  nElectrons: 9.000000
	SubspaceRotationAdjust: set factor to 6.9
ElecMinimize: Iter:  27  F: -24.453123080192839  |grad|_K:  2.414e-07  alpha:  2.590e-01  linmin:  2.728e-05  t[s]:    142.31
	FillingsUpdate:  mu: -0.082585045  nElectrons: 9.000000
	SubspaceRotationAdjust: set factor to 7.13
ElecMinimize: Iter:  28  F: -24.453123270115057  |grad|_K:  2.117e-07  alpha:  2.403e-01  linmin: -5.971e-06  t[s]:    146.61
	FillingsUpdate:  mu: -0.082612465  nElectrons: 9.000000
	SubspaceRotationAdjust: set factor to 7.22
ElecMinimize: Iter:  29  F: -24.453123426658230  |grad|_K:  1.913e-07  alpha:  2.523e-01  linmin: -1.700e-05  t[s]:    150.88
	FillingsUpdate:  mu: -0.082604516  nElectrons: 9.000000
	SubspaceRotationAdjust: set factor to 7.1
ElecMinimize: Iter:  30  F: -24.453123557961256  |grad|_K:  1.750e-07  alpha:  2.563e-01  linmin:  1.161e-05  t[s]:    155.16
	FillingsUpdate:  mu: -0.082643253  nElectrons: 9.000000
	SubspaceRotationAdjust: set factor to 7.1
ElecMinimize: Iter:  31  F: -24.453123659487716  |grad|_K:  1.539e-07  alpha:  2.414e-01  linmin:  1.515e-05  t[s]:    159.42
	FillingsUpdate:  mu: -0.082700462  nElectrons: 9.000000
	SubspaceRotationAdjust: set factor to 7.33
ElecMinimize: Iter:  32  F: -24.453123735718790  |grad|_K:  1.349e-07  alpha:  2.360e-01  linmin: -6.785e-06  t[s]:    163.71
	FillingsUpdate:  mu: -0.082716992  nElectrons: 9.000000
	SubspaceRotationAdjust: set factor to 7.59
	SubspaceRotationAdjust: resetting CG because factor has changed by 7.58836
ElecMinimize: 	State modified externally: resetting search direction.
ElecMinimize: Iter:  33  F: -24.453123793807915  |grad|_K:  1.130e-07  alpha:  2.306e-01
	FillingsUpdate:  mu: -0.082694689  nElectrons: 9.000000
	SubspaceRotationAdjust: set factor to 6.28
ElecMinimize: Iter:  34  F: -24.453123840326747  |grad|_K:  9.677e-08  alpha:  2.653e-01  linmin:  3.494e-05  t[s]:    174.88
	FillingsUpdate:  mu: -0.082713374  nElectrons: 9.000000
	SubspaceRotationAdjust: set factor to 6.27
ElecMinimize: Iter:  35  F: -24.453123896761603  |grad|_K:  4.867e-08  alpha:  4.460e-01  linmin: -1.426e-05  t[s]:    179.16
	FillingsUpdate:  mu: -0.082720163  nElectrons: 9.000000
	SubspaceRotationAdjust: set factor to 4.04
ElecMinimize: Iter:  36  F: -24.453123936376208  |grad|_K:  6.780e-08  alpha:  1.207e+00  linmin: -3.980e-06  t[s]:    183.40
	FillingsUpdate:  mu: -0.082729318  nElectrons: 9.000000
	SubspaceRotationAdjust: set factor to 2.63
ElecMinimize: Iter:  37  F: -24.453123953648038  |grad|_K:  3.484e-08  alpha:  2.523e-01  linmin: -5.596e-05  t[s]:    187.67
	FillingsUpdate:  mu: -0.082738671  nElectrons: 9.000000
	SubspaceRotationAdjust: set factor to 2.12
ElecMinimize: Iter:  38  F: -24.453123967166139  |grad|_K:  3.010e-08  alpha:  7.567e-01  linmin:  6.751e-06  t[s]:    191.95
	FillingsUpdate:  mu: -0.082741669  nElectrons: 9.000000
	SubspaceRotationAdjust: set factor to 1.84
ElecMinimize: Iter:  39  F: -24.453123974401244  |grad|_K:  2.005e-08  alpha:  5.807e-01  linmin: -6.671e-07  t[s]:    196.26
	FillingsUpdate:  mu: -0.082744393  nElectrons: 9.000000
	SubspaceRotationAdjust: set factor to 1.91
ElecMinimize: Iter:  40  F: -24.453123977877755  |grad|_K:  1.397e-08  alpha:  6.260e-01  linmin:  1.590e-07  t[s]:    200.53
ElecMinimize: Converged (|Delta F|<1.000000e-08 for 2 iters).
Setting wave functions to eigenvectors of Hamiltonian

# Ionic positions in lattice coordinates:
ion Rb   0.000000000000000   0.000000000000000   0.000000000000000 0

# Forces in Lattice coordinates:
force Rb   0.000000000000000   0.000000000000000   0.000000000000000 0

# Energy components:
   Eewald =      -20.1653922908744789
       EH =       -0.4568900628266428
     Eloc =       -6.3483541335532410
      Enl =       -0.7909968418595852
   Epulay =        0.0000000019672287
      Exc =       -3.6888126150312699
       KE =        6.9973220534592606
-------------------------------------
     Etot =      -24.4531238887187250
       TS =        0.0000000891590305
-------------------------------------
        F =      -24.4531239778777554

IonicMinimize: Iter:   0  F: -24.453123977877755  |grad|_K:  0.000e+00  t[s]:    200.96
IonicMinimize: Converged (|grad|_K<1.000000e-04).

#--- Lowdin population analysis ---
# oxidation-state Rb +0.030

End date and time: Sun Jan 16 15:52:46 2022  (Duration: 0-0:03:21.07)
Done!
