3.26
--------------------------------------------------------------------------
The library attempted to open the following supporting CUDA libraries,
but each of them failed.  CUDA-aware support is disabled.
libcuda.so.1: cannot open shared object file: No such file or directory
libcuda.dylib: cannot open shared object file: No such file or directory
/usr/lib64/libcuda.so.1: cannot open shared object file: No such file or directory
/usr/lib64/libcuda.dylib: cannot open shared object file: No such file or directory
If you are not interested in CUDA-aware support, then run with
--mca opal_warn_on_missing_libcuda 0 to suppress this message.  If you are interested
in CUDA-aware support, then try setting LD_LIBRARY_PATH to the location
of libcuda.so.1 to get passed this issue.
--------------------------------------------------------------------------
--------------------------------------------------------------------------
No OpenFabrics connection schemes reported that they were able to be
used on a specific port.  As such, the openib BTL (OpenFabrics
support) will be disabled for this port.

  Local host:           d-4-3-2
  Local device:         mlx5_1
  Local port:           1
  CPCs attempted:       rdmacm, udcm
--------------------------------------------------------------------------

*************** JDFTx 1.6.0 (git hash 42ebbcc2) ***************

Start date and time: Sun Jan 16 16:01:57 2022
Executable jdftx with command-line: -i Rubidium.in
Running on hosts (process indices):  d-4-3-2 (0-18)
Divided in process groups (process indices):  0 (0)  1 (1)  2 (2)  3 (3)  4 (4)  5 (5)  6 (6)  7 (7)  8 (8)  9 (9)  10 (10)  11 (11)  12 (12)  13 (13)  14 (14)  15 (15)  16 (16)  17 (17)  18 (18)
Resource initialization completed at t[s]:      0.00
Run totals: 19 processes, 48 threads, 0 GPUs


Input parsed successfully to the following command list (including defaults):

basis kpoint-dependent
coords-type Lattice
core-overlap-check vector
coulomb-interaction Slab 001
davidson-band-ratio 1.1
dump End None
dump-name $INPUT.$VAR
elec-cutoff 20 100
elec-eigen-algo Davidson
elec-ex-corr gga-PBE
elec-smearing Fermi 1e-05
electronic-minimize  \
	dirUpdateScheme      FletcherReeves \
	linminMethod         DirUpdateRecommended \
	nIterations          10000 \
	history              15 \
	knormThreshold       0 \
	energyDiffThreshold  1e-08 \
	nEnergyDiff          2 \
	alphaTstart          1 \
	alphaTmin            1e-10 \
	updateTestStepSize   yes \
	alphaTreduceFactor   0.1 \
	alphaTincreaseFactor 3 \
	nAlphaAdjustMax      3 \
	wolfeEnergy          0.0001 \
	wolfeGradient        0.9 \
	fdTest               no
exchange-regularization WignerSeitzTruncated
fluid None
fluid-ex-corr (null) lda-PZ
fluid-gummel-loop 10 1.000000e-05
fluid-minimize  \
	dirUpdateScheme      PolakRibiere \
	linminMethod         DirUpdateRecommended \
	nIterations          100 \
	history              15 \
	knormThreshold       0 \
	energyDiffThreshold  0 \
	nEnergyDiff          2 \
	alphaTstart          1 \
	alphaTmin            1e-10 \
	updateTestStepSize   yes \
	alphaTreduceFactor   0.1 \
	alphaTincreaseFactor 3 \
	nAlphaAdjustMax      3 \
	wolfeEnergy          0.0001 \
	wolfeGradient        0.9 \
	fdTest               no
fluid-solvent H2O 55.338 ScalarEOS \
	epsBulk 78.4 \
	pMol 0.92466 \
	epsInf 1.77 \
	Pvap 1.06736e-10 \
	sigmaBulk 4.62e-05 \
	Rvdw 2.61727 \
	Res 1.42 \
	tauNuc 343133 \
	poleEl 15 7 1
forces-output-coords Positions
ion Rb   0.000000000000000   0.000000000000000   0.000000000000000 0
ion-species SG15/$ID_ONCV_PBE.upf
ion-width 0
ionic-minimize  \
	dirUpdateScheme      L-BFGS \
	linminMethod         DirUpdateRecommended \
	nIterations          0 \
	history              15 \
	knormThreshold       0.0001 \
	energyDiffThreshold  1e-06 \
	nEnergyDiff          2 \
	alphaTstart          1 \
	alphaTmin            1e-10 \
	updateTestStepSize   yes \
	alphaTreduceFactor   0.1 \
	alphaTincreaseFactor 3 \
	nAlphaAdjustMax      3 \
	wolfeEnergy          0.0001 \
	wolfeGradient        0.9 \
	fdTest               no
kpoint   0.000000000000   0.000000000000   0.000000000000  1.00000000000000
kpoint-folding 48 48 1 
latt-move-scale 1 1 1
latt-scale 3.26 3.26 1 
lattice  \
	   4.727486978767153   -2.363743489383575    0.000000000000000  \
	  -0.000000000000000    4.094123819672498    0.000000000000000  \
	   0.000000000000000    0.000000000000000   40.000000000000000 
lattice-minimize  \
	dirUpdateScheme      L-BFGS \
	linminMethod         DirUpdateRecommended \
	nIterations          0 \
	history              15 \
	knormThreshold       0 \
	energyDiffThreshold  1e-06 \
	nEnergyDiff          2 \
	alphaTstart          1 \
	alphaTmin            1e-10 \
	updateTestStepSize   yes \
	alphaTreduceFactor   0.1 \
	alphaTincreaseFactor 3 \
	nAlphaAdjustMax      3 \
	wolfeEnergy          0.0001 \
	wolfeGradient        0.9 \
	fdTest               no
lcao-params -1 1e-06 1e-05
pcm-variant GLSSA13
spintype no-spin
subspace-rotation-factor 1 yes
symmetries automatic
symmetry-threshold 0.0001



---------- Setting up symmetries ----------

Found 24 point-group symmetries of the bravais lattice
Found 24 space-group symmetries with basis
Applied RMS atom displacement 0 bohrs to make symmetries exact.

---------- Initializing the Grid ----------
R = 
[      15.4116      -7.7058            0  ]
[            0      13.3468            0  ]
[            0            0           40  ]
unit cell volume = 8227.85
G =
[   0.407692   0.235381         -0  ]
[          0   0.470762         -0  ]
[         -0         -0    0.15708  ]
Minimum fftbox size, Smin = [  72  72  184  ]
Chosen fftbox size, S = [  72  72  192  ]

---------- Initializing tighter grid for wavefunction operations ----------
R = 
[      15.4116      -7.7058            0  ]
[            0      13.3468            0  ]
[            0            0           40  ]
unit cell volume = 8227.85
G =
[   0.407692   0.235381         -0  ]
[          0   0.470762         -0  ]
[         -0         -0    0.15708  ]
Minimum fftbox size, Smin = [  64  64  164  ]
Chosen fftbox size, S = [  64  64  168  ]

---------- Exchange Correlation functional ----------
Initalized PBE GGA exchange.
Initalized PBE GGA correlation.

---------- Setting up pseudopotentials ----------
Width of ionic core gaussian charges (only for fluid interactions / plotting) set to 0

Reading pseudopotential file '/home/gridsan/aligho/DFT/build-Nov24/pseudopotentials/SG15/Rb_ONCV_PBE.upf':
  'Rb' pseudopotential, 'PBE' functional
  Generated using ONCVPSP code by D. R. Hamann
  Author: Martin Schlipf and Francois Gygi  Date: 150915.
  9 valence electrons, 3 orbitals, 6 projectors, 2308 radial grid points, with lMax = 2
  Transforming local potential to a uniform radial grid of dG=0.02 with 1656 points.
  Transforming nonlocal projectors to a uniform radial grid of dG=0.02 with 432 points.
    4S    l: 0   occupation:  2.0   eigenvalue: -1.172069
    4P    l: 1   occupation:  6.0   eigenvalue: -0.586674
    5S    l: 0   occupation:  1.0   eigenvalue: -0.082006
  Transforming atomic orbitals to a uniform radial grid of dG=0.02 with 432 points.
  Core radius for overlap checks: 2.60 bohrs.
  Reading pulay file /home/gridsan/aligho/DFT/build-Nov24/pseudopotentials/SG15/Rb_ONCV_PBE.pulay ... using dE_dnG = -1.360715e-05 computed for Ecut = 20.

Initialized 1 species with 1 total atoms.

Folded 1 k-points by 48x48x1 to 2304 k-points.

---------- Setting up k-points, bands, fillings ----------
Reduced to 217 k-points under symmetry. 
Computing the number of bands and number of electrons
Calculating initial fillings.
nElectrons:   9.000000   nBands: 6   nStates: 217

----- Setting up reduced wavefunction bases (one per k-point) -----
average nbasis = 35150.952 , ideal nbasis = 35150.014

---------- Setting up coulomb interaction ----------
Initialized slab truncation along lattice direction 001

---------- Setting up 2D ewald sum ----------
Optimum gaussian width for ewald sums = 8.555902 bohr.
Real space sums over 289 unit cells with max indices [  8  8  0  ]
Reciprocal space sums over 81 terms with max indices [  4  4  0  ]

---------- Allocating electronic variables ----------
Initializing wave functions:  linear combination of atomic orbitals
Note: number of bands (6) exceeds available atomic orbitals (5)
Rb pseudo-atom occupations:   s ( 2 1 )  p ( 6 )
[d-4-3-2:96001] 18 more processes have sent help message help-mpi-common-cuda.txt / dlopen failed
[d-4-3-2:96001] Set MCA parameter "orte_base_help_aggregate" to 0 to see all help / error messages
[d-4-3-2:96001] 18 more processes have sent help message help-mpi-btl-openib-cpc-base.txt / no cpcs for port
	FillingsUpdate:  mu: -0.083055643  nElectrons: 9.000000
LCAOMinimize: Iter:   0  F: -24.4342912258032285  |grad|_K:  5.729e-06  alpha:  1.000e+00
	FillingsUpdate:  mu: -0.083052916  nElectrons: 9.000000
LCAOMinimize: Iter:   1  F: -24.4342913523815177  |grad|_K:  4.259e-08  alpha:  9.875e-01  linmin: -1.301e-02  cgtest:  3.404e-01  t[s]:     24.76
LCAOMinimize: Encountered beta<0, resetting CG.
	FillingsUpdate:  mu: -0.083052920  nElectrons: 9.000000
LCAOMinimize: Iter:   2  F: -24.4342913523885272  |grad|_K:  5.025e-10  alpha:  1.011e+00  linmin:  5.041e-02  cgtest: -9.517e-01  t[s]:     33.14
LCAOMinimize: Converged (|Delta F|<1.000000e-06 for 2 iters).


---- Citations for features of the code used in this run ----

   Software package:
      R. Sundararaman, K. Letchworth-Weaver, K.A. Schwarz, D. Gunceler, Y. Ozhabes and T.A. Arias, 'JDFTx: software for joint density-functional theory', SoftwareX 6, 278 (2017)

   gga-PBE exchange-correlation functional:
      J.P. Perdew, K. Burke and M. Ernzerhof, Phys. Rev. Lett. 77, 3865 (1996)

   Pseudopotentials:
      M Schlipf and F Gygi, Comput. Phys. Commun. 196, 36 (2015)

   Truncated Coulomb potentials:
      R. Sundararaman and T.A. Arias, Phys. Rev. B 87, 165122 (2013)

   Total energy minimization with Auxiliary Hamiltonian:
      C. Freysoldt, S. Boeck, and J. Neugebauer, Phys. Rev. B 79, 241103(R) (2009)

This list may not be complete. Please suggest additional citations or
report any other bugs at https://github.com/shankar1729/jdftx/issues

Initialization completed successfully at t[s]:     34.04


-------- Electronic minimization -----------
	FillingsUpdate:  mu: -0.083052920  nElectrons: 9.000000
ElecMinimize: Iter:   0  F: -24.434291352388520  |grad|_K:  1.246e-06  alpha:  1.000e+00
ElecMinimize: 	Predicted alpha/alphaT>3.000000, increasing alphaT to 3.000000e+00.
	FillingsUpdate:  mu: -0.082524167  nElectrons: 9.000000
	SubspaceRotationAdjust: set factor to 1
ElecMinimize: Iter:   1  F: -24.434703256763900  |grad|_K:  2.381e-06  alpha:  5.790e+00  linmin:  5.794e-05  t[s]:     55.77
	FillingsUpdate:  mu: -0.082530516  nElectrons: 9.000000
	SubspaceRotationAdjust: set factor to 1.02
ElecMinimize: Iter:   2  F: -24.434710829387797  |grad|_K:  2.350e-06  alpha:  1.474e-02  linmin: -7.237e-04  t[s]:     67.08
ElecMinimize: 	Predicted alpha/alphaT>3.000000, increasing alphaT to 4.421200e-02.
ElecMinimize: 	Predicted alpha/alphaT>3.000000, increasing alphaT to 1.326360e-01.
ElecMinimize: 	Predicted alpha/alphaT>3.000000, increasing alphaT to 3.979080e-01.
	FillingsUpdate:  mu: -0.083196849  nElectrons: 9.000000
	SubspaceRotationAdjust: set factor to 1.05
ElecMinimize: Iter:   3  F: -24.435022513557271  |grad|_K:  1.605e-06  alpha:  6.268e-01  linmin:  3.277e-05  t[s]:     85.37
	FillingsUpdate:  mu: -0.083459097  nElectrons: 9.000000
	SubspaceRotationAdjust: set factor to 0.892
ElecMinimize: Iter:   4  F: -24.435087634925853  |grad|_K:  2.024e-06  alpha:  7.183e-01  linmin:  4.341e-04  t[s]:     96.65
ElecMinimize: 	Bad step direction: g.d > 0.
ElecMinimize: 	Undoing step.
ElecMinimize: 	Step failed: resetting search direction.
	FillingsUpdate:  mu: -0.083459097  nElectrons: 9.000000
	SubspaceRotationAdjust: set factor to 1.27
ElecMinimize: Iter:   5  F: -24.435087634925857  |grad|_K:  1.959e-06  alpha:  0.000e+00
	FillingsUpdate:  mu: -0.083351589  nElectrons: 9.000000
	SubspaceRotationAdjust: set factor to 1.46
ElecMinimize: Iter:   6  F: -24.435203079780294  |grad|_K:  6.437e-07  alpha:  6.688e-01  linmin: -7.692e-04  t[s]:    115.87
	FillingsUpdate:  mu: -0.083461217  nElectrons: 9.000000
	SubspaceRotationAdjust: set factor to 1.37
ElecMinimize: Iter:   7  F: -24.435238123993443  |grad|_K:  7.019e-07  alpha:  1.592e+00  linmin: -3.565e-04  t[s]:    127.14
ElecMinimize: 	Step increased F by 1.094853e-05, reducing alpha to 2.279701e-01.
	FillingsUpdate:  mu: -0.083486525  nElectrons: 9.000000
	SubspaceRotationAdjust: set factor to 1.75
ElecMinimize: Iter:   8  F: -24.435249049049474  |grad|_K:  6.471e-07  alpha:  2.280e-01  linmin: -1.014e-03  t[s]:    146.02
ElecMinimize: 	Predicted alpha/alphaT>3.000000, increasing alphaT to 6.839102e-01.
	FillingsUpdate:  mu: -0.083643689  nElectrons: 9.000000
	SubspaceRotationAdjust: set factor to 1.17
ElecMinimize: Iter:   9  F: -24.435268211858659  |grad|_K:  1.503e-06  alpha:  1.107e+00  linmin:  1.714e-03  t[s]:    160.86
ElecMinimize: 	Bad step direction: g.d > 0.
ElecMinimize: 	Undoing step.
ElecMinimize: 	Step failed: resetting search direction.
	FillingsUpdate:  mu: -0.083643689  nElectrons: 9.000000
	SubspaceRotationAdjust: set factor to 0.95
ElecMinimize: Iter:  10  F: -24.435268211858656  |grad|_K:  1.313e-06  alpha:  0.000e+00
	FillingsUpdate:  mu: -0.083641948  nElectrons: 9.000000
	SubspaceRotationAdjust: set factor to 1.04
ElecMinimize: Iter:  11  F: -24.435310589566019  |grad|_K:  4.298e-07  alpha:  6.912e-01  linmin: -1.084e-04  t[s]:    179.94
	FillingsUpdate:  mu: -0.083611837  nElectrons: 9.000000
	SubspaceRotationAdjust: set factor to 1.02
ElecMinimize: Iter:  12  F: -24.435324095106434  |grad|_K:  5.109e-07  alpha:  1.534e+00  linmin: -1.994e-04  t[s]:    191.26
	FillingsUpdate:  mu: -0.083632423  nElectrons: 9.000000
	SubspaceRotationAdjust: set factor to 1.02
ElecMinimize: Iter:  13  F: -24.435357147889011  |grad|_K:  6.216e-07  alpha:  2.786e+00  linmin:  4.030e-04  t[s]:    202.57
	FillingsUpdate:  mu: -0.083630772  nElectrons: 9.000000
	SubspaceRotationAdjust: set factor to 1.04
ElecMinimize: Iter:  14  F: -24.435374945752923  |grad|_K:  4.911e-07  alpha:  1.040e+00  linmin: -5.030e-04  t[s]:    213.89
	FillingsUpdate:  mu: -0.083638539  nElectrons: 9.000000
	SubspaceRotationAdjust: set factor to 1.03
ElecMinimize: Iter:  15  F: -24.435390288062564  |grad|_K:  3.093e-07  alpha:  1.289e+00  linmin:  2.484e-04  t[s]:    225.23
	FillingsUpdate:  mu: -0.083666845  nElectrons: 9.000000
	SubspaceRotationAdjust: set factor to 1.04
ElecMinimize: Iter:  16  F: -24.435393640469357  |grad|_K:  2.123e-07  alpha:  7.769e-01  linmin: -2.868e-06  t[s]:    236.56
	FillingsUpdate:  mu: -0.083704795  nElectrons: 9.000000
	SubspaceRotationAdjust: set factor to 1.03
ElecMinimize: Iter:  17  F: -24.435396951331775  |grad|_K:  1.956e-07  alpha:  1.620e+00  linmin:  5.296e-05  t[s]:    247.81
	FillingsUpdate:  mu: -0.083702868  nElectrons: 9.000000
	SubspaceRotationAdjust: set factor to 1.08
ElecMinimize: Iter:  18  F: -24.435398541163355  |grad|_K:  1.507e-07  alpha:  9.214e-01  linmin: -1.498e-05  t[s]:    259.04
	FillingsUpdate:  mu: -0.083695575  nElectrons: 9.000000
	SubspaceRotationAdjust: set factor to 1.05
ElecMinimize: Iter:  19  F: -24.435399881217705  |grad|_K:  1.196e-07  alpha:  1.291e+00  linmin:  6.622e-05  t[s]:    270.31
	FillingsUpdate:  mu: -0.083693014  nElectrons: 9.000000
	SubspaceRotationAdjust: set factor to 1.13
ElecMinimize: Iter:  20  F: -24.435400476208873  |grad|_K:  8.893e-08  alpha:  9.206e-01  linmin:  3.019e-06  t[s]:    281.59
	FillingsUpdate:  mu: -0.083688589  nElectrons: 9.000000
	SubspaceRotationAdjust: set factor to 1.13
ElecMinimize: Iter:  21  F: -24.435400852995368  |grad|_K:  6.640e-08  alpha:  1.041e+00  linmin: -3.885e-06  t[s]:    292.93
	FillingsUpdate:  mu: -0.083687154  nElectrons: 9.000000
	SubspaceRotationAdjust: set factor to 1.14
ElecMinimize: Iter:  22  F: -24.435401079124443  |grad|_K:  5.733e-08  alpha:  1.119e+00  linmin:  1.615e-07  t[s]:    304.22
	FillingsUpdate:  mu: -0.083690962  nElectrons: 9.000000
	SubspaceRotationAdjust: set factor to 1.19
ElecMinimize: Iter:  23  F: -24.435401242706316  |grad|_K:  4.636e-08  alpha:  1.088e+00  linmin:  3.692e-07  t[s]:    315.55
	FillingsUpdate:  mu: -0.083695937  nElectrons: 9.000000
	SubspaceRotationAdjust: set factor to 1.16
ElecMinimize: Iter:  24  F: -24.435401357744020  |grad|_K:  3.904e-08  alpha:  1.170e+00  linmin:  3.137e-06  t[s]:    326.86
	FillingsUpdate:  mu: -0.083698386  nElectrons: 9.000000
	SubspaceRotationAdjust: set factor to 1.24
ElecMinimize: Iter:  25  F: -24.435401430514567  |grad|_K:  3.221e-08  alpha:  1.044e+00  linmin:  1.272e-07  t[s]:    338.20
	FillingsUpdate:  mu: -0.083700695  nElectrons: 9.000000
	SubspaceRotationAdjust: set factor to 1.2
ElecMinimize: Iter:  26  F: -24.435401481206128  |grad|_K:  2.317e-08  alpha:  1.068e+00  linmin:  1.235e-06  t[s]:    349.50
	FillingsUpdate:  mu: -0.083703624  nElectrons: 9.000000
	SubspaceRotationAdjust: set factor to 1.24
ElecMinimize: Iter:  27  F: -24.435401506969271  |grad|_K:  1.971e-08  alpha:  1.049e+00  linmin:  1.891e-07  t[s]:    360.75
	FillingsUpdate:  mu: -0.083706377  nElectrons: 9.000000
	SubspaceRotationAdjust: set factor to 1.25
ElecMinimize: Iter:  28  F: -24.435401526045883  |grad|_K:  1.469e-08  alpha:  1.073e+00  linmin:  1.170e-07  t[s]:    372.06
	FillingsUpdate:  mu: -0.083707457  nElectrons: 9.000000
	SubspaceRotationAdjust: set factor to 1.26
ElecMinimize: Iter:  29  F: -24.435401537174162  |grad|_K:  1.317e-08  alpha:  1.127e+00  linmin:  2.670e-07  t[s]:    383.34
	FillingsUpdate:  mu: -0.083708057  nElectrons: 9.000000
	SubspaceRotationAdjust: set factor to 1.29
ElecMinimize: Iter:  30  F: -24.435401545645171  |grad|_K:  1.009e-08  alpha:  1.067e+00  linmin:  4.565e-07  t[s]:    394.61
	FillingsUpdate:  mu: -0.083708663  nElectrons: 9.000000
	SubspaceRotationAdjust: set factor to 1.28
ElecMinimize: Iter:  31  F: -24.435401550823556  |grad|_K:  8.212e-09  alpha:  1.111e+00  linmin:  1.115e-07  t[s]:    405.92
ElecMinimize: Converged (|Delta F|<1.000000e-08 for 2 iters).
Setting wave functions to eigenvectors of Hamiltonian

# Ionic positions in lattice coordinates:
ion Rb   0.000000000000000   0.000000000000000   0.000000000000000 0

# Forces in Lattice coordinates:
force Rb  -0.000000000000000   0.000000000000000   0.000000000000000 0

# Energy components:
   Eewald =      -11.0724086505108392
       EH =        8.4379638560256840
     Eloc =      -24.3084020455010581
      Enl =       -0.7965445795462298
   Epulay =        0.0000000015516769
      Exc =       -3.6450215492948814
       KE =        6.9490114872019557
-------------------------------------
     Etot =      -24.4354014800736934
       TS =        0.0000000707498616
-------------------------------------
        F =      -24.4354015508235562

IonicMinimize: Iter:   0  F: -24.435401550823556  |grad|_K:  0.000e+00  t[s]:    407.23
IonicMinimize: Converged (|grad|_K<1.000000e-04).

#--- Lowdin population analysis ---
# oxidation-state Rb +0.020

End date and time: Sun Jan 16 16:08:45 2022  (Duration: 0-0:06:47.50)
Done!
