2.75
--------------------------------------------------------------------------
The library attempted to open the following supporting CUDA libraries,
but each of them failed.  CUDA-aware support is disabled.
libcuda.so.1: cannot open shared object file: No such file or directory
libcuda.dylib: cannot open shared object file: No such file or directory
/usr/lib64/libcuda.so.1: cannot open shared object file: No such file or directory
/usr/lib64/libcuda.dylib: cannot open shared object file: No such file or directory
If you are not interested in CUDA-aware support, then run with
--mca opal_warn_on_missing_libcuda 0 to suppress this message.  If you are interested
in CUDA-aware support, then try setting LD_LIBRARY_PATH to the location
of libcuda.so.1 to get passed this issue.
--------------------------------------------------------------------------
--------------------------------------------------------------------------
No OpenFabrics connection schemes reported that they were able to be
used on a specific port.  As such, the openib BTL (OpenFabrics
support) will be disabled for this port.

  Local host:           d-16-5-1
  Local device:         mlx5_1
  Local port:           1
  CPCs attempted:       rdmacm, udcm
--------------------------------------------------------------------------

*************** JDFTx 1.6.0 (git hash 42ebbcc2) ***************

Start date and time: Sun Jan 16 15:55:36 2022
Executable jdftx with command-line: -i Rubidium.in
Running on hosts (process indices):  d-16-5-1 (0-18)
Divided in process groups (process indices):  0 (0)  1 (1)  2 (2)  3 (3)  4 (4)  5 (5)  6 (6)  7 (7)  8 (8)  9 (9)  10 (10)  11 (11)  12 (12)  13 (13)  14 (14)  15 (15)  16 (16)  17 (17)  18 (18)
Resource initialization completed at t[s]:      0.00
Run totals: 19 processes, 48 threads, 0 GPUs


Input parsed successfully to the following command list (including defaults):

basis kpoint-dependent
coords-type Lattice
core-overlap-check vector
coulomb-interaction Slab 001
davidson-band-ratio 1.1
dump End None
dump-name $INPUT.$VAR
elec-cutoff 20 100
elec-eigen-algo Davidson
elec-ex-corr gga-PBE
elec-smearing Fermi 1e-05
electronic-minimize  \
	dirUpdateScheme      FletcherReeves \
	linminMethod         DirUpdateRecommended \
	nIterations          10000 \
	history              15 \
	knormThreshold       0 \
	energyDiffThreshold  1e-08 \
	nEnergyDiff          2 \
	alphaTstart          1 \
	alphaTmin            1e-10 \
	updateTestStepSize   yes \
	alphaTreduceFactor   0.1 \
	alphaTincreaseFactor 3 \
	nAlphaAdjustMax      3 \
	wolfeEnergy          0.0001 \
	wolfeGradient        0.9 \
	fdTest               no
exchange-regularization WignerSeitzTruncated
fluid None
fluid-ex-corr (null) lda-PZ
fluid-gummel-loop 10 1.000000e-05
fluid-minimize  \
	dirUpdateScheme      PolakRibiere \
	linminMethod         DirUpdateRecommended \
	nIterations          100 \
	history              15 \
	knormThreshold       0 \
	energyDiffThreshold  0 \
	nEnergyDiff          2 \
	alphaTstart          1 \
	alphaTmin            1e-10 \
	updateTestStepSize   yes \
	alphaTreduceFactor   0.1 \
	alphaTincreaseFactor 3 \
	nAlphaAdjustMax      3 \
	wolfeEnergy          0.0001 \
	wolfeGradient        0.9 \
	fdTest               no
fluid-solvent H2O 55.338 ScalarEOS \
	epsBulk 78.4 \
	pMol 0.92466 \
	epsInf 1.77 \
	Pvap 1.06736e-10 \
	sigmaBulk 4.62e-05 \
	Rvdw 2.61727 \
	Res 1.42 \
	tauNuc 343133 \
	poleEl 15 7 1
forces-output-coords Positions
ion Rb   0.000000000000000   0.000000000000000   0.000000000000000 0
ion-species SG15/$ID_ONCV_PBE.upf
ion-width 0
ionic-minimize  \
	dirUpdateScheme      L-BFGS \
	linminMethod         DirUpdateRecommended \
	nIterations          0 \
	history              15 \
	knormThreshold       0.0001 \
	energyDiffThreshold  1e-06 \
	nEnergyDiff          2 \
	alphaTstart          1 \
	alphaTmin            1e-10 \
	updateTestStepSize   yes \
	alphaTreduceFactor   0.1 \
	alphaTincreaseFactor 3 \
	nAlphaAdjustMax      3 \
	wolfeEnergy          0.0001 \
	wolfeGradient        0.9 \
	fdTest               no
kpoint   0.000000000000   0.000000000000   0.000000000000  1.00000000000000
kpoint-folding 48 48 1 
latt-move-scale 1 1 1
latt-scale 2.75 2.75 1 
lattice  \
	   4.727486978767153   -2.363743489383575    0.000000000000000  \
	  -0.000000000000000    4.094123819672498    0.000000000000000  \
	   0.000000000000000    0.000000000000000   40.000000000000000 
lattice-minimize  \
	dirUpdateScheme      L-BFGS \
	linminMethod         DirUpdateRecommended \
	nIterations          0 \
	history              15 \
	knormThreshold       0 \
	energyDiffThreshold  1e-06 \
	nEnergyDiff          2 \
	alphaTstart          1 \
	alphaTmin            1e-10 \
	updateTestStepSize   yes \
	alphaTreduceFactor   0.1 \
	alphaTincreaseFactor 3 \
	nAlphaAdjustMax      3 \
	wolfeEnergy          0.0001 \
	wolfeGradient        0.9 \
	fdTest               no
lcao-params -1 1e-06 1e-05
pcm-variant GLSSA13
spintype no-spin
subspace-rotation-factor 1 yes
symmetries automatic
symmetry-threshold 0.0001



---------- Setting up symmetries ----------

Found 24 point-group symmetries of the bravais lattice
Found 24 space-group symmetries with basis
Applied RMS atom displacement 0 bohrs to make symmetries exact.

---------- Initializing the Grid ----------
R = 
[      13.0006     -6.50029            0  ]
[            0      11.2588            0  ]
[            0            0           40  ]
unit cell volume = 5854.86
G =
[     0.4833   0.279033         -0  ]
[          0   0.558067         -0  ]
[         -0         -0    0.15708  ]
Minimum fftbox size, Smin = [  60  60  184  ]
Chosen fftbox size, S = [  60  60  192  ]

---------- Initializing tighter grid for wavefunction operations ----------
R = 
[      13.0006     -6.50029            0  ]
[            0      11.2588            0  ]
[            0            0           40  ]
unit cell volume = 5854.86
G =
[     0.4833   0.279033         -0  ]
[          0   0.558067         -0  ]
[         -0         -0    0.15708  ]
Minimum fftbox size, Smin = [  56  56  164  ]
Chosen fftbox size, S = [  56  56  168  ]

---------- Exchange Correlation functional ----------
Initalized PBE GGA exchange.
Initalized PBE GGA correlation.

---------- Setting up pseudopotentials ----------
Width of ionic core gaussian charges (only for fluid interactions / plotting) set to 0

Reading pseudopotential file '/home/gridsan/aligho/DFT/build-Nov24/pseudopotentials/SG15/Rb_ONCV_PBE.upf':
  'Rb' pseudopotential, 'PBE' functional
  Generated using ONCVPSP code by D. R. Hamann
  Author: Martin Schlipf and Francois Gygi  Date: 150915.
  9 valence electrons, 3 orbitals, 6 projectors, 2308 radial grid points, with lMax = 2
  Transforming local potential to a uniform radial grid of dG=0.02 with 1640 points.
  Transforming nonlocal projectors to a uniform radial grid of dG=0.02 with 432 points.
    4S    l: 0   occupation:  2.0   eigenvalue: -1.172069
    4P    l: 1   occupation:  6.0   eigenvalue: -0.586674
    5S    l: 0   occupation:  1.0   eigenvalue: -0.082006
  Transforming atomic orbitals to a uniform radial grid of dG=0.02 with 432 points.
  Core radius for overlap checks: 2.60 bohrs.
  Reading pulay file /home/gridsan/aligho/DFT/build-Nov24/pseudopotentials/SG15/Rb_ONCV_PBE.pulay ... using dE_dnG = -1.360715e-05 computed for Ecut = 20.

Initialized 1 species with 1 total atoms.

Folded 1 k-points by 48x48x1 to 2304 k-points.

---------- Setting up k-points, bands, fillings ----------
Reduced to 217 k-points under symmetry. 
Computing the number of bands and number of electrons
Calculating initial fillings.
nElectrons:   9.000000   nBands: 6   nStates: 217

----- Setting up reduced wavefunction bases (one per k-point) -----
average nbasis = 25013.210 , ideal nbasis = 25012.418

---------- Setting up coulomb interaction ----------
Initialized slab truncation along lattice direction 001

---------- Setting up 2D ewald sum ----------
Optimum gaussian width for ewald sums = 7.217402 bohr.
Real space sums over 289 unit cells with max indices [  8  8  0  ]
Reciprocal space sums over 81 terms with max indices [  4  4  0  ]

---------- Allocating electronic variables ----------
Initializing wave functions:  linear combination of atomic orbitals
Note: number of bands (6) exceeds available atomic orbitals (5)
Rb pseudo-atom occupations:   s ( 2 1 )  p ( 6 )
[d-16-5-1:61627] 18 more processes have sent help message help-mpi-common-cuda.txt / dlopen failed
[d-16-5-1:61627] Set MCA parameter "orte_base_help_aggregate" to 0 to see all help / error messages
[d-16-5-1:61627] 18 more processes have sent help message help-mpi-btl-openib-cpc-base.txt / no cpcs for port
	FillingsUpdate:  mu: -0.084448621  nElectrons: 9.000000
LCAOMinimize: Iter:   0  F: -24.4403013770606989  |grad|_K:  7.355e-06  alpha:  1.000e+00
	FillingsUpdate:  mu: -0.084444315  nElectrons: 9.000000
LCAOMinimize: Iter:   1  F: -24.4403015850175827  |grad|_K:  5.696e-08  alpha:  9.844e-01  linmin: -1.848e-02  cgtest:  3.978e-01  t[s]:     19.80
LCAOMinimize: Encountered beta<0, resetting CG.
	FillingsUpdate:  mu: -0.084444313  nElectrons: 9.000000
LCAOMinimize: Iter:   2  F: -24.4403015850301948  |grad|_K:  9.855e-11  alpha:  1.001e+00  linmin:  2.882e-02  cgtest: -3.898e-01  t[s]:     26.93
LCAOMinimize: Converged (|Delta F|<1.000000e-06 for 2 iters).


---- Citations for features of the code used in this run ----

   Software package:
      R. Sundararaman, K. Letchworth-Weaver, K.A. Schwarz, D. Gunceler, Y. Ozhabes and T.A. Arias, 'JDFTx: software for joint density-functional theory', SoftwareX 6, 278 (2017)

   gga-PBE exchange-correlation functional:
      J.P. Perdew, K. Burke and M. Ernzerhof, Phys. Rev. Lett. 77, 3865 (1996)

   Pseudopotentials:
      M Schlipf and F Gygi, Comput. Phys. Commun. 196, 36 (2015)

   Truncated Coulomb potentials:
      R. Sundararaman and T.A. Arias, Phys. Rev. B 87, 165122 (2013)

   Total energy minimization with Auxiliary Hamiltonian:
      C. Freysoldt, S. Boeck, and J. Neugebauer, Phys. Rev. B 79, 241103(R) (2009)

This list may not be complete. Please suggest additional citations or
report any other bugs at https://github.com/shankar1729/jdftx/issues

Initialization completed successfully at t[s]:     27.58


-------- Electronic minimization -----------
	FillingsUpdate:  mu: -0.084444313  nElectrons: 9.000000
ElecMinimize: Iter:   0  F: -24.440301585030220  |grad|_K:  2.596e-06  alpha:  1.000e+00
ElecMinimize: 	Predicted alpha/alphaT>3.000000, increasing alphaT to 3.000000e+00.
	FillingsUpdate:  mu: -0.083944357  nElectrons: 9.000000
	SubspaceRotationAdjust: set factor to 1
ElecMinimize: Iter:   1  F: -24.441690895170709  |grad|_K:  4.140e-06  alpha:  6.325e+00  linmin:  2.542e-04  t[s]:     45.41
	FillingsUpdate:  mu: -0.083972490  nElectrons: 9.000000
	SubspaceRotationAdjust: set factor to 1.04
ElecMinimize: Iter:   2  F: -24.441724188440258  |grad|_K:  4.007e-06  alpha:  3.059e-02  linmin: -1.561e-03  t[s]:     54.57
ElecMinimize: 	Predicted alpha/alphaT>3.000000, increasing alphaT to 9.177863e-02.
ElecMinimize: 	Predicted alpha/alphaT>3.000000, increasing alphaT to 2.753359e-01.
	FillingsUpdate:  mu: -0.084947631  nElectrons: 9.000000
	SubspaceRotationAdjust: set factor to 1.09
ElecMinimize: Iter:   3  F: -24.442345185725760  |grad|_K:  2.738e-06  alpha:  6.159e-01  linmin:  1.315e-04  t[s]:     69.38
	FillingsUpdate:  mu: -0.085023553  nElectrons: 9.000000
	SubspaceRotationAdjust: set factor to 1
ElecMinimize: Iter:   4  F: -24.442472255536789  |grad|_K:  2.758e-06  alpha:  5.159e-01  linmin:  8.961e-05  t[s]:     78.56
	FillingsUpdate:  mu: -0.085021529  nElectrons: 9.000000
	SubspaceRotationAdjust: set factor to 1.15
ElecMinimize: Iter:   5  F: -24.442486021657128  |grad|_K:  2.690e-06  alpha:  3.412e-02  linmin: -5.630e-04  t[s]:     87.77
ElecMinimize: 	Predicted alpha/alphaT>3.000000, increasing alphaT to 1.023687e-01.
ElecMinimize: 	Predicted alpha/alphaT>3.000000, increasing alphaT to 3.071060e-01.
	FillingsUpdate:  mu: -0.084939253  nElectrons: 9.000000
	SubspaceRotationAdjust: set factor to 1.1
ElecMinimize: Iter:   6  F: -24.442601673178110  |grad|_K:  2.383e-06  alpha:  2.695e-01  linmin:  1.686e-04  t[s]:    102.56
	FillingsUpdate:  mu: -0.084879606  nElectrons: 9.000000
	SubspaceRotationAdjust: set factor to 0.95
ElecMinimize: Iter:   7  F: -24.442623235361989  |grad|_K:  2.587e-06  alpha:  1.308e-01  linmin:  2.053e-05  t[s]:    111.77
	FillingsUpdate:  mu: -0.084770623  nElectrons: 9.000000
	SubspaceRotationAdjust: set factor to 1.14
ElecMinimize: Iter:   8  F: -24.442656723042870  |grad|_K:  2.568e-06  alpha:  1.567e-01  linmin:  3.586e-05  t[s]:    120.95
	FillingsUpdate:  mu: -0.084660256  nElectrons: 9.000000
	SubspaceRotationAdjust: set factor to 1.54
ElecMinimize: Iter:   9  F: -24.442691878194239  |grad|_K:  2.709e-06  alpha:  1.669e-01  linmin: -4.443e-05  t[s]:    130.17
	FillingsUpdate:  mu: -0.084583806  nElectrons: 9.000000
	SubspaceRotationAdjust: set factor to 1.85
ElecMinimize: Iter:  10  F: -24.442732706339093  |grad|_K:  2.474e-06  alpha:  1.672e-01  linmin:  5.159e-05  t[s]:    139.34
	FillingsUpdate:  mu: -0.084608279  nElectrons: 9.000000
	SubspaceRotationAdjust: set factor to 2.07
ElecMinimize: Iter:  11  F: -24.442765641018493  |grad|_K:  2.112e-06  alpha:  1.675e-01  linmin: -1.572e-04  t[s]:    148.50
	FillingsUpdate:  mu: -0.084688600  nElectrons: 9.000000
	SubspaceRotationAdjust: set factor to 2.33
ElecMinimize: Iter:  12  F: -24.442804170032250  |grad|_K:  1.832e-06  alpha:  2.368e-01  linmin: -1.361e-04  t[s]:    157.73
	FillingsUpdate:  mu: -0.084694524  nElectrons: 9.000000
	SubspaceRotationAdjust: set factor to 2.79
ElecMinimize: Iter:  13  F: -24.442842583342991  |grad|_K:  1.633e-06  alpha:  3.139e-01  linmin: -2.273e-05  t[s]:    166.89
	FillingsUpdate:  mu: -0.084581889  nElectrons: 9.000000
	SubspaceRotationAdjust: set factor to 3.2
ElecMinimize: Iter:  14  F: -24.442868270445913  |grad|_K:  1.424e-06  alpha:  2.895e-01  linmin:  7.967e-05  t[s]:    176.05
	FillingsUpdate:  mu: -0.084474172  nElectrons: 9.000000
	SubspaceRotationAdjust: set factor to 3.19
ElecMinimize: Iter:  15  F: -24.442883047484990  |grad|_K:  1.314e-06  alpha:  2.180e-01  linmin:  1.429e-05  t[s]:    185.22
	FillingsUpdate:  mu: -0.084411872  nElectrons: 9.000000
	SubspaceRotationAdjust: set factor to 3.71
ElecMinimize: Iter:  16  F: -24.442892860564893  |grad|_K:  1.339e-06  alpha:  1.678e-01  linmin:  1.451e-05  t[s]:    194.37
	FillingsUpdate:  mu: -0.084391662  nElectrons: 9.000000
	SubspaceRotationAdjust: set factor to 3.37
ElecMinimize: Iter:  17  F: -24.442900239688967  |grad|_K:  1.450e-06  alpha:  1.233e-01  linmin:  6.983e-06  t[s]:    203.56
	FillingsUpdate:  mu: -0.084405778  nElectrons: 9.000000
	SubspaceRotationAdjust: set factor to 3.03
ElecMinimize: Iter:  18  F: -24.442906989909801  |grad|_K:  1.375e-06  alpha:  9.870e-02  linmin:  9.930e-06  t[s]:    212.76
	FillingsUpdate:  mu: -0.084439555  nElectrons: 9.000000
	SubspaceRotationAdjust: set factor to 3.83
ElecMinimize: Iter:  19  F: -24.442912680135212  |grad|_K:  1.169e-06  alpha:  9.349e-02  linmin: -8.163e-05  t[s]:    221.98
	FillingsUpdate:  mu: -0.084477078  nElectrons: 9.000000
	SubspaceRotationAdjust: set factor to 4.8
ElecMinimize: Iter:  20  F: -24.442917544465299  |grad|_K:  1.017e-06  alpha:  1.055e-01  linmin: -9.004e-05  t[s]:    231.09
	FillingsUpdate:  mu: -0.084509079  nElectrons: 9.000000
	SubspaceRotationAdjust: set factor to 5.49
ElecMinimize: Iter:  21  F: -24.442922621805170  |grad|_K:  9.032e-07  alpha:  1.358e-01  linmin: -7.189e-05  t[s]:    240.25
	FillingsUpdate:  mu: -0.084513581  nElectrons: 9.000000
	SubspaceRotationAdjust: set factor to 6.43
ElecMinimize: Iter:  22  F: -24.442928265624062  |grad|_K:  8.329e-07  alpha:  1.886e-01  linmin: -3.326e-05  t[s]:    249.53
	FillingsUpdate:  mu: -0.084486627  nElectrons: 9.000000
	SubspaceRotationAdjust: set factor to 7.63
	SubspaceRotationAdjust: resetting CG because factor has changed by 7.62907
ElecMinimize: 	State modified externally: resetting search direction.
ElecMinimize: Iter:  23  F: -24.442932647804295  |grad|_K:  7.988e-07  alpha:  1.859e-01
	FillingsUpdate:  mu: -0.084529386  nElectrons: 9.000000
	SubspaceRotationAdjust: set factor to 4.67
ElecMinimize: Iter:  24  F: -24.442937426402406  |grad|_K:  1.015e-06  alpha:  2.988e-01  linmin:  4.679e-04  t[s]:    273.39
	FillingsUpdate:  mu: -0.084529516  nElectrons: 9.000000
	SubspaceRotationAdjust: set factor to 3.18
ElecMinimize: Iter:  25  F: -24.442937451876208  |grad|_K:  8.399e-07  alpha:  1.056e-03  linmin: -9.825e-04  t[s]:    282.56
ElecMinimize: 	Predicted alpha/alphaT>3.000000, increasing alphaT to 3.168916e-03.
ElecMinimize: 	Predicted alpha/alphaT>3.000000, increasing alphaT to 9.506747e-03.
ElecMinimize: 	Predicted alpha/alphaT>3.000000, increasing alphaT to 2.852024e-02.
	FillingsUpdate:  mu: -0.084529773  nElectrons: 9.000000
	SubspaceRotationAdjust: set factor to 5.81
ElecMinimize: Iter:  26  F: -24.442945759623708  |grad|_K:  3.071e-07  alpha:  2.417e-01  linmin: -6.109e-04  t[s]:    297.36
ElecMinimize: 	Predicted alpha/alphaT>3.000000, increasing alphaT to 7.251288e-01.
	FillingsUpdate:  mu: -0.084550238  nElectrons: 9.000000
	SubspaceRotationAdjust: set factor to 3.97
ElecMinimize: Iter:  27  F: -24.442948736984924  |grad|_K:  4.273e-07  alpha:  8.018e-01  linmin: -1.270e-04  t[s]:    309.30
	FillingsUpdate:  mu: -0.084605098  nElectrons: 9.000000
	SubspaceRotationAdjust: set factor to 2.57
ElecMinimize: Iter:  28  F: -24.442951941291259  |grad|_K:  2.665e-07  alpha:  4.329e-01  linmin: -8.856e-05  t[s]:    318.48
	FillingsUpdate:  mu: -0.084652302  nElectrons: 9.000000
	SubspaceRotationAdjust: set factor to 2.29
ElecMinimize: Iter:  29  F: -24.442954932740182  |grad|_K:  2.920e-07  alpha:  1.212e+00  linmin:  1.045e-04  t[s]:    327.68
	FillingsUpdate:  mu: -0.084682115  nElectrons: 9.000000
	SubspaceRotationAdjust: set factor to 1.91
ElecMinimize: Iter:  30  F: -24.442956714709293  |grad|_K:  2.298e-07  alpha:  7.110e-01  linmin:  1.828e-05  t[s]:    336.87
	FillingsUpdate:  mu: -0.084727274  nElectrons: 9.000000
	SubspaceRotationAdjust: set factor to 2.17
ElecMinimize: Iter:  31  F: -24.442958297111510  |grad|_K:  1.703e-07  alpha:  9.298e-01  linmin: -3.059e-05  t[s]:    346.06
	FillingsUpdate:  mu: -0.084751600  nElectrons: 9.000000
	SubspaceRotationAdjust: set factor to 1.75
ElecMinimize: Iter:  32  F: -24.442959025601144  |grad|_K:  1.064e-07  alpha:  7.569e-01  linmin:  2.330e-05  t[s]:    355.24
	FillingsUpdate:  mu: -0.084759807  nElectrons: 9.000000
	SubspaceRotationAdjust: set factor to 2.01
ElecMinimize: Iter:  33  F: -24.442959390370678  |grad|_K:  9.291e-08  alpha:  1.008e+00  linmin:  1.720e-05  t[s]:    364.40
	FillingsUpdate:  mu: -0.084769182  nElectrons: 9.000000
	SubspaceRotationAdjust: set factor to 1.84
ElecMinimize: Iter:  34  F: -24.442959644293275  |grad|_K:  6.806e-08  alpha:  9.092e-01  linmin: -1.460e-05  t[s]:    373.56
	FillingsUpdate:  mu: -0.084784477  nElectrons: 9.000000
	SubspaceRotationAdjust: set factor to 1.94
ElecMinimize: Iter:  35  F: -24.442959816757707  |grad|_K:  6.252e-08  alpha:  1.136e+00  linmin: -9.958e-06  t[s]:    382.71
	FillingsUpdate:  mu: -0.084796077  nElectrons: 9.000000
	SubspaceRotationAdjust: set factor to 1.83
ElecMinimize: Iter:  36  F: -24.442959926855071  |grad|_K:  4.031e-08  alpha:  8.598e-01  linmin:  3.027e-06  t[s]:    391.89
	FillingsUpdate:  mu: -0.084801803  nElectrons: 9.000000
	SubspaceRotationAdjust: set factor to 1.86
ElecMinimize: Iter:  37  F: -24.442959977808755  |grad|_K:  3.217e-08  alpha:  9.646e-01  linmin:  4.804e-06  t[s]:    401.05
	FillingsUpdate:  mu: -0.084805155  nElectrons: 9.000000
	SubspaceRotationAdjust: set factor to 1.79
ElecMinimize: Iter:  38  F: -24.442960009122430  |grad|_K:  2.493e-08  alpha:  9.305e-01  linmin: -2.516e-06  t[s]:    410.19
	FillingsUpdate:  mu: -0.084806370  nElectrons: 9.000000
	SubspaceRotationAdjust: set factor to 1.79
ElecMinimize: Iter:  39  F: -24.442960031073294  |grad|_K:  2.108e-08  alpha:  1.084e+00  linmin: -1.256e-06  t[s]:    419.43
	FillingsUpdate:  mu: -0.084806655  nElectrons: 9.000000
	SubspaceRotationAdjust: set factor to 1.75
ElecMinimize: Iter:  40  F: -24.442960044995960  |grad|_K:  1.736e-08  alpha:  9.606e-01  linmin:  1.577e-06  t[s]:    428.63
	FillingsUpdate:  mu: -0.084806773  nElectrons: 9.000000
	SubspaceRotationAdjust: set factor to 1.74
ElecMinimize: Iter:  41  F: -24.442960056481393  |grad|_K:  1.527e-08  alpha:  1.173e+00  linmin:  1.780e-06  t[s]:    437.80
	FillingsUpdate:  mu: -0.084806056  nElectrons: 9.000000
	SubspaceRotationAdjust: set factor to 1.81
ElecMinimize: Iter:  42  F: -24.442960062971991  |grad|_K:  1.028e-08  alpha:  8.561e-01  linmin: -3.436e-07  t[s]:    446.97
	FillingsUpdate:  mu: -0.084804902  nElectrons: 9.000000
	SubspaceRotationAdjust: set factor to 1.72
ElecMinimize: Iter:  43  F: -24.442960066387787  |grad|_K:  8.605e-09  alpha:  9.919e-01  linmin: -4.039e-07  t[s]:    456.09
ElecMinimize: Converged (|Delta F|<1.000000e-08 for 2 iters).
Setting wave functions to eigenvectors of Hamiltonian

# Ionic positions in lattice coordinates:
ion Rb   0.000000000000000   0.000000000000000   0.000000000000000 0

# Forces in Lattice coordinates:
force Rb   0.000000000000000  -0.000000000000000   0.000000000000000 0

# Energy components:
   Eewald =      -13.1258371638783018
       EH =        6.4152526632660711
     Eloc =      -20.2315572586955703
      Enl =       -0.7989684191949936
   Epulay =        0.0000000018389305
      Exc =       -3.6498695547210813
       KE =        6.9480197357464579
-------------------------------------
     Etot =      -24.4429599956384891
       TS =        0.0000000707492985
-------------------------------------
        F =      -24.4429600663877871

IonicMinimize: Iter:   0  F: -24.442960066387787  |grad|_K:  0.000e+00  t[s]:    457.09
IonicMinimize: Converged (|grad|_K<1.000000e-04).

#--- Lowdin population analysis ---
# oxidation-state Rb +0.036

End date and time: Sun Jan 16 16:03:13 2022  (Duration: 0-0:07:37.29)
Done!
