2.06
--------------------------------------------------------------------------
The library attempted to open the following supporting CUDA libraries,
but each of them failed.  CUDA-aware support is disabled.
libcuda.so.1: cannot open shared object file: No such file or directory
libcuda.dylib: cannot open shared object file: No such file or directory
/usr/lib64/libcuda.so.1: cannot open shared object file: No such file or directory
/usr/lib64/libcuda.dylib: cannot open shared object file: No such file or directory
If you are not interested in CUDA-aware support, then run with
--mca opal_warn_on_missing_libcuda 0 to suppress this message.  If you are interested
in CUDA-aware support, then try setting LD_LIBRARY_PATH to the location
of libcuda.so.1 to get passed this issue.
--------------------------------------------------------------------------
--------------------------------------------------------------------------
No OpenFabrics connection schemes reported that they were able to be
used on a specific port.  As such, the openib BTL (OpenFabrics
support) will be disabled for this port.

  Local host:           d-6-15-3
  Local device:         mlx5_1
  Local port:           1
  CPCs attempted:       rdmacm, udcm
--------------------------------------------------------------------------

*************** JDFTx 1.6.0 (git hash 42ebbcc2) ***************

Start date and time: Sun Jan 16 15:51:41 2022
Executable jdftx with command-line: -i Rubidium.in
Running on hosts (process indices):  d-6-15-3 (0-18)
Divided in process groups (process indices):  0 (0)  1 (1)  2 (2)  3 (3)  4 (4)  5 (5)  6 (6)  7 (7)  8 (8)  9 (9)  10 (10)  11 (11)  12 (12)  13 (13)  14 (14)  15 (15)  16 (16)  17 (17)  18 (18)
Resource initialization completed at t[s]:      0.00
Run totals: 19 processes, 48 threads, 0 GPUs


Input parsed successfully to the following command list (including defaults):

basis kpoint-dependent
coords-type Lattice
core-overlap-check vector
coulomb-interaction Slab 001
davidson-band-ratio 1.1
dump End None
dump-name $INPUT.$VAR
elec-cutoff 20 100
elec-eigen-algo Davidson
elec-ex-corr gga-PBE
elec-smearing Fermi 1e-05
electronic-minimize  \
	dirUpdateScheme      FletcherReeves \
	linminMethod         DirUpdateRecommended \
	nIterations          10000 \
	history              15 \
	knormThreshold       0 \
	energyDiffThreshold  1e-08 \
	nEnergyDiff          2 \
	alphaTstart          1 \
	alphaTmin            1e-10 \
	updateTestStepSize   yes \
	alphaTreduceFactor   0.1 \
	alphaTincreaseFactor 3 \
	nAlphaAdjustMax      3 \
	wolfeEnergy          0.0001 \
	wolfeGradient        0.9 \
	fdTest               no
exchange-regularization WignerSeitzTruncated
fluid None
fluid-ex-corr (null) lda-PZ
fluid-gummel-loop 10 1.000000e-05
fluid-minimize  \
	dirUpdateScheme      PolakRibiere \
	linminMethod         DirUpdateRecommended \
	nIterations          100 \
	history              15 \
	knormThreshold       0 \
	energyDiffThreshold  0 \
	nEnergyDiff          2 \
	alphaTstart          1 \
	alphaTmin            1e-10 \
	updateTestStepSize   yes \
	alphaTreduceFactor   0.1 \
	alphaTincreaseFactor 3 \
	nAlphaAdjustMax      3 \
	wolfeEnergy          0.0001 \
	wolfeGradient        0.9 \
	fdTest               no
fluid-solvent H2O 55.338 ScalarEOS \
	epsBulk 78.4 \
	pMol 0.92466 \
	epsInf 1.77 \
	Pvap 1.06736e-10 \
	sigmaBulk 4.62e-05 \
	Rvdw 2.61727 \
	Res 1.42 \
	tauNuc 343133 \
	poleEl 15 7 1
forces-output-coords Positions
ion Rb   0.000000000000000   0.000000000000000   0.000000000000000 0
ion-species SG15/$ID_ONCV_PBE.upf
ion-width 0
ionic-minimize  \
	dirUpdateScheme      L-BFGS \
	linminMethod         DirUpdateRecommended \
	nIterations          0 \
	history              15 \
	knormThreshold       0.0001 \
	energyDiffThreshold  1e-06 \
	nEnergyDiff          2 \
	alphaTstart          1 \
	alphaTmin            1e-10 \
	updateTestStepSize   yes \
	alphaTreduceFactor   0.1 \
	alphaTincreaseFactor 3 \
	nAlphaAdjustMax      3 \
	wolfeEnergy          0.0001 \
	wolfeGradient        0.9 \
	fdTest               no
kpoint   0.000000000000   0.000000000000   0.000000000000  1.00000000000000
kpoint-folding 48 48 1 
latt-move-scale 1 1 1
latt-scale 2.06 2.06 1 
lattice  \
	   4.727486978767153   -2.363743489383575    0.000000000000000  \
	  -0.000000000000000    4.094123819672498    0.000000000000000  \
	   0.000000000000000    0.000000000000000   40.000000000000000 
lattice-minimize  \
	dirUpdateScheme      L-BFGS \
	linminMethod         DirUpdateRecommended \
	nIterations          0 \
	history              15 \
	knormThreshold       0 \
	energyDiffThreshold  1e-06 \
	nEnergyDiff          2 \
	alphaTstart          1 \
	alphaTmin            1e-10 \
	updateTestStepSize   yes \
	alphaTreduceFactor   0.1 \
	alphaTincreaseFactor 3 \
	nAlphaAdjustMax      3 \
	wolfeEnergy          0.0001 \
	wolfeGradient        0.9 \
	fdTest               no
lcao-params -1 1e-06 1e-05
pcm-variant GLSSA13
spintype no-spin
subspace-rotation-factor 1 yes
symmetries automatic
symmetry-threshold 0.0001



---------- Setting up symmetries ----------

Found 24 point-group symmetries of the bravais lattice
Found 24 space-group symmetries with basis
Applied RMS atom displacement 0 bohrs to make symmetries exact.

---------- Initializing the Grid ----------
R = 
[      9.73862     -4.86931            0  ]
[            0       8.4339            0  ]
[            0            0           40  ]
unit cell volume = 3285.38
G =
[   0.645182   0.372496         -0  ]
[          0   0.744992         -0  ]
[         -0         -0    0.15708  ]
Minimum fftbox size, Smin = [  44  44  184  ]
Chosen fftbox size, S = [  48  48  192  ]

---------- Initializing tighter grid for wavefunction operations ----------
R = 
[      9.73862     -4.86931            0  ]
[            0       8.4339            0  ]
[            0            0           40  ]
unit cell volume = 3285.38
G =
[   0.645182   0.372496         -0  ]
[          0   0.744992         -0  ]
[         -0         -0    0.15708  ]
Minimum fftbox size, Smin = [  40  40  164  ]
Chosen fftbox size, S = [  40  40  168  ]

---------- Exchange Correlation functional ----------
Initalized PBE GGA exchange.
Initalized PBE GGA correlation.

---------- Setting up pseudopotentials ----------
Width of ionic core gaussian charges (only for fluid interactions / plotting) set to 0

Reading pseudopotential file '/home/gridsan/aligho/DFT/build-Nov24/pseudopotentials/SG15/Rb_ONCV_PBE.upf':
  'Rb' pseudopotential, 'PBE' functional
  Generated using ONCVPSP code by D. R. Hamann
  Author: Martin Schlipf and Francois Gygi  Date: 150915.
  9 valence electrons, 3 orbitals, 6 projectors, 2308 radial grid points, with lMax = 2
  Transforming local potential to a uniform radial grid of dG=0.02 with 1728 points.
  Transforming nonlocal projectors to a uniform radial grid of dG=0.02 with 432 points.
    4S    l: 0   occupation:  2.0   eigenvalue: -1.172069
    4P    l: 1   occupation:  6.0   eigenvalue: -0.586674
    5S    l: 0   occupation:  1.0   eigenvalue: -0.082006
  Transforming atomic orbitals to a uniform radial grid of dG=0.02 with 432 points.
  Core radius for overlap checks: 2.60 bohrs.
  Reading pulay file /home/gridsan/aligho/DFT/build-Nov24/pseudopotentials/SG15/Rb_ONCV_PBE.pulay ... using dE_dnG = -1.360715e-05 computed for Ecut = 20.

Initialized 1 species with 1 total atoms.

Folded 1 k-points by 48x48x1 to 2304 k-points.

---------- Setting up k-points, bands, fillings ----------
Reduced to 217 k-points under symmetry. 
Computing the number of bands and number of electrons
Calculating initial fillings.
nElectrons:   9.000000   nBands: 6   nStates: 217

----- Setting up reduced wavefunction bases (one per k-point) -----
average nbasis = 14035.822 , ideal nbasis = 14035.398

---------- Setting up coulomb interaction ----------
Initialized slab truncation along lattice direction 001

---------- Setting up 2D ewald sum ----------
Optimum gaussian width for ewald sums = 5.406491 bohr.
Real space sums over 289 unit cells with max indices [  8  8  0  ]
Reciprocal space sums over 81 terms with max indices [  4  4  0  ]

---------- Allocating electronic variables ----------
Initializing wave functions:  linear combination of atomic orbitals
Note: number of bands (6) exceeds available atomic orbitals (5)
Rb pseudo-atom occupations:   s ( 2 1 )  p ( 6 )
[d-6-15-3:82243] 18 more processes have sent help message help-mpi-common-cuda.txt / dlopen failed
[d-6-15-3:82243] Set MCA parameter "orte_base_help_aggregate" to 0 to see all help / error messages
[d-6-15-3:82243] 18 more processes have sent help message help-mpi-btl-openib-cpc-base.txt / no cpcs for port
	FillingsUpdate:  mu: -0.093621651  nElectrons: 9.000000
LCAOMinimize: Iter:   0  F: -24.4505357670050962  |grad|_K:  3.496e-06  alpha:  1.000e+00
	FillingsUpdate:  mu: -0.093618151  nElectrons: 9.000000
LCAOMinimize: Iter:   1  F: -24.4505358140135343  |grad|_K:  3.978e-08  alpha:  9.848e-01  linmin: -9.574e-03  cgtest:  1.540e-01  t[s]:     11.51
LCAOMinimize: Encountered beta<0, resetting CG.
	FillingsUpdate:  mu: -0.093618158  nElectrons: 9.000000
LCAOMinimize: Iter:   2  F: -24.4505358140197622  |grad|_K:  2.110e-09  alpha:  9.432e-01  linmin: -1.505e-01  cgtest:  9.837e-01  t[s]:     15.55
LCAOMinimize: Encountered beta<0, resetting CG.
LCAOMinimize: Converged (|Delta F|<1.000000e-06 for 2 iters).


---- Citations for features of the code used in this run ----

   Software package:
      R. Sundararaman, K. Letchworth-Weaver, K.A. Schwarz, D. Gunceler, Y. Ozhabes and T.A. Arias, 'JDFTx: software for joint density-functional theory', SoftwareX 6, 278 (2017)

   gga-PBE exchange-correlation functional:
      J.P. Perdew, K. Burke and M. Ernzerhof, Phys. Rev. Lett. 77, 3865 (1996)

   Pseudopotentials:
      M Schlipf and F Gygi, Comput. Phys. Commun. 196, 36 (2015)

   Truncated Coulomb potentials:
      R. Sundararaman and T.A. Arias, Phys. Rev. B 87, 165122 (2013)

   Total energy minimization with Auxiliary Hamiltonian:
      C. Freysoldt, S. Boeck, and J. Neugebauer, Phys. Rev. B 79, 241103(R) (2009)

This list may not be complete. Please suggest additional citations or
report any other bugs at https://github.com/shankar1729/jdftx/issues

Initialization completed successfully at t[s]:     15.94


-------- Electronic minimization -----------
	FillingsUpdate:  mu: -0.093618158  nElectrons: 9.000000
ElecMinimize: Iter:   0  F: -24.450535814019759  |grad|_K:  5.879e-06  alpha:  1.000e+00
ElecMinimize: 	Predicted alpha/alphaT>3.000000, increasing alphaT to 3.000000e+00.
	FillingsUpdate:  mu: -0.091910891  nElectrons: 9.000000
	SubspaceRotationAdjust: set factor to 1
ElecMinimize: Iter:   1  F: -24.453212121406498  |grad|_K:  6.714e-06  alpha:  4.223e+00  linmin:  3.816e-04  t[s]:     26.01
	FillingsUpdate:  mu: -0.091901490  nElectrons: 9.000000
	SubspaceRotationAdjust: set factor to 1.06
ElecMinimize: Iter:   2  F: -24.453239245743713  |grad|_K:  6.529e-06  alpha:  1.680e-02  linmin: -2.095e-03  t[s]:     31.24
ElecMinimize: 	Predicted alpha/alphaT>3.000000, increasing alphaT to 5.041052e-02.
ElecMinimize: 	Predicted alpha/alphaT>3.000000, increasing alphaT to 1.512316e-01.
ElecMinimize: 	Predicted alpha/alphaT>3.000000, increasing alphaT to 4.536947e-01.
	FillingsUpdate:  mu: -0.090079118  nElectrons: 9.000000
	SubspaceRotationAdjust: set factor to 1.1
ElecMinimize: Iter:   3  F: -24.454154440566548  |grad|_K:  4.501e-06  alpha:  6.273e-01  linmin:  4.424e-04  t[s]:     39.76
	FillingsUpdate:  mu: -0.089219420  nElectrons: 9.000000
	SubspaceRotationAdjust: set factor to 1.08
ElecMinimize: Iter:   4  F: -24.454278967484552  |grad|_K:  4.403e-06  alpha:  3.530e-01  linmin: -1.629e-04  t[s]:     44.98
	FillingsUpdate:  mu: -0.088444257  nElectrons: 9.000000
	SubspaceRotationAdjust: set factor to 1.31
ElecMinimize: Iter:   5  F: -24.454406025253331  |grad|_K:  4.011e-06  alpha:  2.961e-01  linmin:  3.820e-04  t[s]:     50.24
	FillingsUpdate:  mu: -0.088019792  nElectrons: 9.000000
	SubspaceRotationAdjust: set factor to 1.25
ElecMinimize: Iter:   6  F: -24.454443841670784  |grad|_K:  3.941e-06  alpha:  1.315e-01  linmin: -2.173e-04  t[s]:     55.53
	FillingsUpdate:  mu: -0.087287118  nElectrons: 9.000000
	SubspaceRotationAdjust: set factor to 1.11
ElecMinimize: Iter:   7  F: -24.454502492722188  |grad|_K:  3.955e-06  alpha:  1.888e-01  linmin:  1.433e-04  t[s]:     60.71
	FillingsUpdate:  mu: -0.086515279  nElectrons: 9.000000
	SubspaceRotationAdjust: set factor to 1.19
ElecMinimize: Iter:   8  F: -24.454553322585202  |grad|_K:  4.251e-06  alpha:  1.887e-01  linmin: -1.883e-04  t[s]:     65.93
	FillingsUpdate:  mu: -0.086098004  nElectrons: 9.000000
	SubspaceRotationAdjust: set factor to 1.58
ElecMinimize: Iter:   9  F: -24.454587145653289  |grad|_K:  3.850e-06  alpha:  1.207e-01  linmin: -2.991e-04  t[s]:     71.11
	FillingsUpdate:  mu: -0.085958032  nElectrons: 9.000000
	SubspaceRotationAdjust: set factor to 1.8
ElecMinimize: Iter:  10  F: -24.454633638194402  |grad|_K:  3.160e-06  alpha:  1.559e-01  linmin: -3.814e-04  t[s]:     76.32
	FillingsUpdate:  mu: -0.086036068  nElectrons: 9.000000
	SubspaceRotationAdjust: set factor to 1.96
ElecMinimize: Iter:  11  F: -24.454669783638220  |grad|_K:  2.599e-06  alpha:  1.799e-01  linmin: -3.062e-04  t[s]:     81.56
	FillingsUpdate:  mu: -0.085927023  nElectrons: 9.000000
	SubspaceRotationAdjust: set factor to 2.51
ElecMinimize: Iter:  12  F: -24.454708207678323  |grad|_K:  2.188e-06  alpha:  2.719e-01  linmin: -2.090e-04  t[s]:     86.87
	FillingsUpdate:  mu: -0.085501047  nElectrons: 9.000000
	SubspaceRotationAdjust: set factor to 3.32
ElecMinimize: Iter:  13  F: -24.454735744425690  |grad|_K:  1.840e-06  alpha:  2.928e-01  linmin:  6.869e-05  t[s]:     92.09
	FillingsUpdate:  mu: -0.085098510  nElectrons: 9.000000
	SubspaceRotationAdjust: set factor to 3.43
ElecMinimize: Iter:  14  F: -24.454750894970598  |grad|_K:  1.565e-06  alpha:  2.429e-01  linmin:  5.451e-05  t[s]:     97.37
	FillingsUpdate:  mu: -0.084802162  nElectrons: 9.000000
	SubspaceRotationAdjust: set factor to 3.52
ElecMinimize: Iter:  15  F: -24.454760026941894  |grad|_K:  1.491e-06  alpha:  2.041e-01  linmin:  4.300e-05  t[s]:    102.56
	FillingsUpdate:  mu: -0.084623509  nElectrons: 9.000000
	SubspaceRotationAdjust: set factor to 3.33
ElecMinimize: Iter:  16  F: -24.454766640201935  |grad|_K:  1.470e-06  alpha:  1.665e-01  linmin:  2.358e-05  t[s]:    107.81
	FillingsUpdate:  mu: -0.084606245  nElectrons: 9.000000
	SubspaceRotationAdjust: set factor to 3.54
ElecMinimize: Iter:  17  F: -24.454772272405410  |grad|_K:  1.291e-06  alpha:  1.456e-01  linmin:  1.104e-06  t[s]:    113.04
	FillingsUpdate:  mu: -0.084751476  nElectrons: 9.000000
	SubspaceRotationAdjust: set factor to 4.6
ElecMinimize: Iter:  18  F: -24.454776571998551  |grad|_K:  1.080e-06  alpha:  1.414e-01  linmin: -1.321e-04  t[s]:    118.28
	FillingsUpdate:  mu: -0.084951941  nElectrons: 9.000000
	SubspaceRotationAdjust: set factor to 4.87
ElecMinimize: Iter:  19  F: -24.454780234252166  |grad|_K:  9.811e-07  alpha:  1.648e-01  linmin: -1.076e-04  t[s]:    123.48
	FillingsUpdate:  mu: -0.085071647  nElectrons: 9.000000
	SubspaceRotationAdjust: set factor to 5.73
ElecMinimize: Iter:  20  F: -24.454784561565500  |grad|_K:  9.118e-07  alpha:  2.256e-01  linmin: -7.027e-05  t[s]:    128.75
	FillingsUpdate:  mu: -0.084965684  nElectrons: 9.000000
	SubspaceRotationAdjust: set factor to 7.54
	SubspaceRotationAdjust: resetting CG because factor has changed by 7.54187
ElecMinimize: 	State modified externally: resetting search direction.
ElecMinimize: Iter:  21  F: -24.454787974207314  |grad|_K:  7.975e-07  alpha:  2.138e-01
	FillingsUpdate:  mu: -0.084760346  nElectrons: 9.000000
	SubspaceRotationAdjust: set factor to 4.77
ElecMinimize: Iter:  22  F: -24.454790782328885  |grad|_K:  9.150e-07  alpha:  2.820e-01  linmin:  4.221e-04  t[s]:    142.31
	FillingsUpdate:  mu: -0.084757218  nElectrons: 9.000000
	SubspaceRotationAdjust: set factor to 2.6
ElecMinimize: Iter:  23  F: -24.454792312551493  |grad|_K:  9.200e-07  alpha:  1.922e-01  linmin:  4.897e-07  t[s]:    147.55
	FillingsUpdate:  mu: -0.084925129  nElectrons: 9.000000
	SubspaceRotationAdjust: set factor to 5.5
ElecMinimize: Iter:  24  F: -24.454794953233993  |grad|_K:  4.049e-07  alpha:  1.733e-01  linmin: -1.439e-04  t[s]:    152.82
	FillingsUpdate:  mu: -0.085062422  nElectrons: 9.000000
	SubspaceRotationAdjust: set factor to 4.57
ElecMinimize: Iter:  25  F: -24.454796442717793  |grad|_K:  3.466e-07  alpha:  4.239e-01  linmin: -2.534e-04  t[s]:    158.06
	FillingsUpdate:  mu: -0.085052666  nElectrons: 9.000000
	SubspaceRotationAdjust: set factor to 3.29
ElecMinimize: Iter:  26  F: -24.454798297910884  |grad|_K:  2.746e-07  alpha:  7.113e-01  linmin:  7.267e-05  t[s]:    163.28
	FillingsUpdate:  mu: -0.085246558  nElectrons: 9.000000
	SubspaceRotationAdjust: set factor to 2.62
ElecMinimize: Iter:  27  F: -24.454799619052526  |grad|_K:  2.639e-07  alpha:  1.001e+00  linmin:  1.453e-05  t[s]:    168.54
	FillingsUpdate:  mu: -0.085260159  nElectrons: 9.000000
	SubspaceRotationAdjust: set factor to 1.88
ElecMinimize: Iter:  28  F: -24.454800529347050  |grad|_K:  1.893e-07  alpha:  7.245e-01  linmin: -2.018e-06  t[s]:    173.74
	FillingsUpdate:  mu: -0.085312603  nElectrons: 9.000000
	SubspaceRotationAdjust: set factor to 2.36
ElecMinimize: Iter:  29  F: -24.454801035325286  |grad|_K:  1.035e-07  alpha:  7.718e-01  linmin:  1.153e-05  t[s]:    178.95
	FillingsUpdate:  mu: -0.085370792  nElectrons: 9.000000
	SubspaceRotationAdjust: set factor to 1.91
ElecMinimize: Iter:  30  F: -24.454801200800482  |grad|_K:  7.486e-08  alpha:  8.486e-01  linmin:  3.961e-06  t[s]:    184.19
	FillingsUpdate:  mu: -0.085383060  nElectrons: 9.000000
	SubspaceRotationAdjust: set factor to 1.88
ElecMinimize: Iter:  31  F: -24.454801297613812  |grad|_K:  5.301e-08  alpha:  9.472e-01  linmin: -1.435e-06  t[s]:    189.47
	FillingsUpdate:  mu: -0.085393366  nElectrons: 9.000000
	SubspaceRotationAdjust: set factor to 1.82
ElecMinimize: Iter:  32  F: -24.454801352426859  |grad|_K:  4.357e-08  alpha:  1.067e+00  linmin:  4.467e-06  t[s]:    194.72
	FillingsUpdate:  mu: -0.085419677  nElectrons: 9.000000
	SubspaceRotationAdjust: set factor to 1.67
ElecMinimize: Iter:  33  F: -24.454801389486335  |grad|_K:  3.342e-08  alpha:  1.071e+00  linmin:  1.199e-06  t[s]:    199.92
	FillingsUpdate:  mu: -0.085432698  nElectrons: 9.000000
	SubspaceRotationAdjust: set factor to 1.75
ElecMinimize: Iter:  34  F: -24.454801410287573  |grad|_K:  2.422e-08  alpha:  1.020e+00  linmin: -2.930e-07  t[s]:    205.14
	FillingsUpdate:  mu: -0.085434409  nElectrons: 9.000000
	SubspaceRotationAdjust: set factor to 1.62
ElecMinimize: Iter:  35  F: -24.454801421254889  |grad|_K:  1.921e-08  alpha:  1.023e+00  linmin:  1.914e-06  t[s]:    210.40
	FillingsUpdate:  mu: -0.085438647  nElectrons: 9.000000
	SubspaceRotationAdjust: set factor to 1.7
ElecMinimize: Iter:  36  F: -24.454801428821799  |grad|_K:  1.521e-08  alpha:  1.125e+00  linmin:  7.812e-07  t[s]:    215.66
	FillingsUpdate:  mu: -0.085443236  nElectrons: 9.000000
	SubspaceRotationAdjust: set factor to 1.57
ElecMinimize: Iter:  37  F: -24.454801433644228  |grad|_K:  1.288e-08  alpha:  1.141e+00  linmin:  2.289e-07  t[s]:    220.92
ElecMinimize: Converged (|Delta F|<1.000000e-08 for 2 iters).
Setting wave functions to eigenvectors of Hamiltonian

# Ionic positions in lattice coordinates:
ion Rb   0.000000000000000   0.000000000000000   0.000000000000000 0

# Forces in Lattice coordinates:
force Rb  -0.000000000000000   0.000000000000000   0.000000000000000 0

# Energy components:
   Eewald =      -17.5223554372161736
       EH =        2.1584303559043443
     Eloc =      -11.5931006800396190
      Enl =       -0.7964458199876630
   Epulay =        0.0000000017537965
      Exc =       -3.6724706325995338
       KE =        6.9711408492899194
-------------------------------------
     Etot =      -24.4548013628949299
       TS =        0.0000000707492985
-------------------------------------
        F =      -24.4548014336442279

IonicMinimize: Iter:   0  F: -24.454801433644228  |grad|_K:  0.000e+00  t[s]:    221.50
IonicMinimize: Converged (|grad|_K<1.000000e-04).

#--- Lowdin population analysis ---
# oxidation-state Rb +0.032

End date and time: Sun Jan 16 15:55:22 2022  (Duration: 0-0:03:41.61)
Done!
