0.95
--------------------------------------------------------------------------
The library attempted to open the following supporting CUDA libraries,
but each of them failed.  CUDA-aware support is disabled.
libcuda.so.1: cannot open shared object file: No such file or directory
libcuda.dylib: cannot open shared object file: No such file or directory
/usr/lib64/libcuda.so.1: cannot open shared object file: No such file or directory
/usr/lib64/libcuda.dylib: cannot open shared object file: No such file or directory
If you are not interested in CUDA-aware support, then run with
--mca opal_warn_on_missing_libcuda 0 to suppress this message.  If you are interested
in CUDA-aware support, then try setting LD_LIBRARY_PATH to the location
of libcuda.so.1 to get passed this issue.
--------------------------------------------------------------------------
--------------------------------------------------------------------------
No OpenFabrics connection schemes reported that they were able to be
used on a specific port.  As such, the openib BTL (OpenFabrics
support) will be disabled for this port.

  Local host:           d-6-6-4
  Local device:         mlx5_1
  Local port:           1
  CPCs attempted:       rdmacm, udcm
--------------------------------------------------------------------------

*************** JDFTx 1.6.0 (git hash 42ebbcc2) ***************

Start date and time: Sun Jan 16 15:46:02 2022
Executable jdftx with command-line: -i Rubidium.in
Running on hosts (process indices):  d-6-6-4 (0-18)
Divided in process groups (process indices):  0 (0)  1 (1)  2 (2)  3 (3)  4 (4)  5 (5)  6 (6)  7 (7)  8 (8)  9 (9)  10 (10)  11 (11)  12 (12)  13 (13)  14 (14)  15 (15)  16 (16)  17 (17)  18 (18)
Resource initialization completed at t[s]:      0.00
Run totals: 19 processes, 48 threads, 0 GPUs


Input parsed successfully to the following command list (including defaults):

basis kpoint-dependent
coords-type Lattice
core-overlap-check vector
coulomb-interaction Slab 001
davidson-band-ratio 1.1
dump End None
dump-name $INPUT.$VAR
elec-cutoff 20 100
elec-eigen-algo Davidson
elec-ex-corr gga-PBE
elec-smearing Fermi 1e-05
electronic-minimize  \
	dirUpdateScheme      FletcherReeves \
	linminMethod         DirUpdateRecommended \
	nIterations          10000 \
	history              15 \
	knormThreshold       0 \
	energyDiffThreshold  1e-08 \
	nEnergyDiff          2 \
	alphaTstart          1 \
	alphaTmin            1e-10 \
	updateTestStepSize   yes \
	alphaTreduceFactor   0.1 \
	alphaTincreaseFactor 3 \
	nAlphaAdjustMax      3 \
	wolfeEnergy          0.0001 \
	wolfeGradient        0.9 \
	fdTest               no
exchange-regularization WignerSeitzTruncated
fluid None
fluid-ex-corr (null) lda-PZ
fluid-gummel-loop 10 1.000000e-05
fluid-minimize  \
	dirUpdateScheme      PolakRibiere \
	linminMethod         DirUpdateRecommended \
	nIterations          100 \
	history              15 \
	knormThreshold       0 \
	energyDiffThreshold  0 \
	nEnergyDiff          2 \
	alphaTstart          1 \
	alphaTmin            1e-10 \
	updateTestStepSize   yes \
	alphaTreduceFactor   0.1 \
	alphaTincreaseFactor 3 \
	nAlphaAdjustMax      3 \
	wolfeEnergy          0.0001 \
	wolfeGradient        0.9 \
	fdTest               no
fluid-solvent H2O 55.338 ScalarEOS \
	epsBulk 78.4 \
	pMol 0.92466 \
	epsInf 1.77 \
	Pvap 1.06736e-10 \
	sigmaBulk 4.62e-05 \
	Rvdw 2.61727 \
	Res 1.42 \
	tauNuc 343133 \
	poleEl 15 7 1
forces-output-coords Positions
ion Rb   0.000000000000000   0.000000000000000   0.000000000000000 0
ion-species SG15/$ID_ONCV_PBE.upf
ion-width 0
ionic-minimize  \
	dirUpdateScheme      L-BFGS \
	linminMethod         DirUpdateRecommended \
	nIterations          0 \
	history              15 \
	knormThreshold       0.0001 \
	energyDiffThreshold  1e-06 \
	nEnergyDiff          2 \
	alphaTstart          1 \
	alphaTmin            1e-10 \
	updateTestStepSize   yes \
	alphaTreduceFactor   0.1 \
	alphaTincreaseFactor 3 \
	nAlphaAdjustMax      3 \
	wolfeEnergy          0.0001 \
	wolfeGradient        0.9 \
	fdTest               no
kpoint   0.000000000000   0.000000000000   0.000000000000  1.00000000000000
kpoint-folding 48 48 1 
latt-move-scale 1 1 1
latt-scale 0.95 0.95 1 
lattice  \
	   4.727486978767153   -2.363743489383574    0.000000000000000  \
	  -0.000000000000000    4.094123819672497    0.000000000000000  \
	   0.000000000000000    0.000000000000000   40.000000000000000 
lattice-minimize  \
	dirUpdateScheme      L-BFGS \
	linminMethod         DirUpdateRecommended \
	nIterations          0 \
	history              15 \
	knormThreshold       0 \
	energyDiffThreshold  1e-06 \
	nEnergyDiff          2 \
	alphaTstart          1 \
	alphaTmin            1e-10 \
	updateTestStepSize   yes \
	alphaTreduceFactor   0.1 \
	alphaTincreaseFactor 3 \
	nAlphaAdjustMax      3 \
	wolfeEnergy          0.0001 \
	wolfeGradient        0.9 \
	fdTest               no
lcao-params -1 1e-06 1e-05
pcm-variant GLSSA13
spintype no-spin
subspace-rotation-factor 1 yes
symmetries automatic
symmetry-threshold 0.0001



---------- Setting up symmetries ----------

Found 24 point-group symmetries of the bravais lattice
Found 24 space-group symmetries with basis
Applied RMS atom displacement 0 bohrs to make symmetries exact.

---------- Initializing the Grid ----------
R = 
[      4.49111     -2.24556            0  ]
[            0      3.88942            0  ]
[            0            0           40  ]
unit cell volume = 698.713
G =
[    1.39903   0.807728         -0  ]
[          0    1.61546         -0  ]
[         -0         -0    0.15708  ]
Minimum fftbox size, Smin = [  24  24  184  ]
Chosen fftbox size, S = [  24  24  192  ]

---------- Initializing tighter grid for wavefunction operations ----------
R = 
[      4.49111     -2.24556            0  ]
[            0      3.88942            0  ]
[            0            0           40  ]
unit cell volume = 698.713
G =
[    1.39903   0.807728         -0  ]
[          0    1.61546         -0  ]
[         -0         -0    0.15708  ]
Minimum fftbox size, Smin = [  20  20  164  ]
Chosen fftbox size, S = [  20  20  168  ]

---------- Exchange Correlation functional ----------
Initalized PBE GGA exchange.
Initalized PBE GGA correlation.

---------- Setting up pseudopotentials ----------
Width of ionic core gaussian charges (only for fluid interactions / plotting) set to 0

Reading pseudopotential file '/home/gridsan/aligho/DFT/build-Nov24/pseudopotentials/SG15/Rb_ONCV_PBE.upf':
  'Rb' pseudopotential, 'PBE' functional
  Generated using ONCVPSP code by D. R. Hamann
  Author: Martin Schlipf and Francois Gygi  Date: 150915.
  9 valence electrons, 3 orbitals, 6 projectors, 2308 radial grid points, with lMax = 2
  Transforming local potential to a uniform radial grid of dG=0.02 with 1846 points.
  Transforming nonlocal projectors to a uniform radial grid of dG=0.02 with 432 points.
    4S    l: 0   occupation:  2.0   eigenvalue: -1.172069
    4P    l: 1   occupation:  6.0   eigenvalue: -0.586674
    5S    l: 0   occupation:  1.0   eigenvalue: -0.082006
  Transforming atomic orbitals to a uniform radial grid of dG=0.02 with 432 points.
  Core radius for overlap checks: 2.60 bohrs.
  Reading pulay file /home/gridsan/aligho/DFT/build-Nov24/pseudopotentials/SG15/Rb_ONCV_PBE.pulay ... using dE_dnG = -1.360715e-05 computed for Ecut = 20.

Initialized 1 species with 1 total atoms.

Folded 1 k-points by 48x48x1 to 2304 k-points.

---------- Setting up k-points, bands, fillings ----------
Reduced to 217 k-points under symmetry. 
Computing the number of bands and number of electrons
Calculating initial fillings.
nElectrons:   9.000000   nBands: 6   nStates: 217

----- Setting up reduced wavefunction bases (one per k-point) -----
average nbasis = 2985.189 , ideal nbasis = 2984.953

---------- Setting up coulomb interaction ----------
Initialized slab truncation along lattice direction 001

---------- Setting up 2D ewald sum ----------
Optimum gaussian width for ewald sums = 2.493284 bohr.
Real space sums over 289 unit cells with max indices [  8  8  0  ]
Reciprocal space sums over 81 terms with max indices [  4  4  0  ]

---------- Allocating electronic variables ----------
Initializing wave functions:  linear combination of atomic orbitals
Note: number of bands (6) exceeds available atomic orbitals (5)
Rb pseudo-atom occupations:   s ( 2 1 )  p ( 6 )
	FillingsUpdate:  mu: -0.188425825  nElectrons: 9.000000
LCAOMinimize: Iter:   0  F: -23.9773522475947516  |grad|_K:  2.568e-04  alpha:  1.000e+00
	FillingsUpdate:  mu: -0.186793552  nElectrons: 9.000000
LCAOMinimize: Iter:   1  F: -23.9775684878676714  |grad|_K:  2.518e-05  alpha:  8.684e-01  linmin: -5.289e-02  cgtest:  1.204e+00  t[s]:      3.47
LCAOMinimize: Encountered beta<0, resetting CG.
	FillingsUpdate:  mu: -0.186667040  nElectrons: 9.000000
LCAOMinimize: Iter:   2  F: -23.9775709025501804  |grad|_K:  5.004e-07  alpha:  9.720e-01  linmin: -5.220e-02  cgtest:  9.218e-01  t[s]:      4.54
LCAOMinimize: Encountered beta<0, resetting CG.
[d-6-6-4:35737] 18 more processes have sent help message help-mpi-common-cuda.txt / dlopen failed
[d-6-6-4:35737] Set MCA parameter "orte_base_help_aggregate" to 0 to see all help / error messages
[d-6-6-4:35737] 18 more processes have sent help message help-mpi-btl-openib-cpc-base.txt / no cpcs for port
	FillingsUpdate:  mu: -0.186665265  nElectrons: 9.000000
LCAOMinimize: Iter:   3  F: -23.9775709035253364  |grad|_K:  2.700e-09  alpha:  9.968e-01  linmin:  7.667e-03  cgtest: -9.038e-02  t[s]:      5.61
LCAOMinimize: 	Step increased F by 6.465939e-13, reducing alpha to 2.732196e-03.
LCAOMinimize: 	Step increased F by 1.421085e-13, reducing alpha to 2.732196e-04.
LCAOMinimize: 	Step increased F by 1.776357e-13, reducing alpha to 2.732196e-05.
LCAOMinimize: 	Step failed to reduce F after 3 attempts. Quitting step.
LCAOMinimize: 	Undoing step.
LCAOMinimize: 	Step failed: resetting search direction.
	FillingsUpdate:  mu: -0.186665265  nElectrons: 9.000000
LCAOMinimize: Iter:   4  F: -23.9775709035252937  |grad|_K:  2.699e-09  alpha:  2.732e-05
LCAOMinimize: 	Step increased F by 9.059420e-13, reducing alpha to 6.524988e-03.
	FillingsUpdate:  mu: -0.186665265  nElectrons: 9.000000
LCAOMinimize: Iter:   5  F: -23.9775709035254039  |grad|_K:  2.682e-09  alpha:  6.525e-03  linmin: -2.616e-02  cgtest:  1.000e+00  t[s]:     10.45
LCAOMinimize: Encountered beta<0, resetting CG.
	FillingsUpdate:  mu: -0.186665265  nElectrons: 9.000000
LCAOMinimize: Iter:   6  F: -23.9775709035254216  |grad|_K:  2.682e-09  alpha:  2.590e-06  linmin: -2.616e-02  cgtest:  1.000e+00  t[s]:     11.51
LCAOMinimize: Encountered beta<0, resetting CG.
LCAOMinimize: Converged (|Delta F|<1.000000e-06 for 2 iters).


---- Citations for features of the code used in this run ----

   Software package:
      R. Sundararaman, K. Letchworth-Weaver, K.A. Schwarz, D. Gunceler, Y. Ozhabes and T.A. Arias, 'JDFTx: software for joint density-functional theory', SoftwareX 6, 278 (2017)

   gga-PBE exchange-correlation functional:
      J.P. Perdew, K. Burke and M. Ernzerhof, Phys. Rev. Lett. 77, 3865 (1996)

   Pseudopotentials:
      M Schlipf and F Gygi, Comput. Phys. Commun. 196, 36 (2015)

   Truncated Coulomb potentials:
      R. Sundararaman and T.A. Arias, Phys. Rev. B 87, 165122 (2013)

   Total energy minimization with Auxiliary Hamiltonian:
      C. Freysoldt, S. Boeck, and J. Neugebauer, Phys. Rev. B 79, 241103(R) (2009)

This list may not be complete. Please suggest additional citations or
report any other bugs at https://github.com/shankar1729/jdftx/issues

Initialization completed successfully at t[s]:     11.63


-------- Electronic minimization -----------
	FillingsUpdate:  mu: -0.186665265  nElectrons: 9.000000
ElecMinimize: Iter:   0  F: -23.977570903525415  |grad|_K:  1.593e-04  alpha:  1.000e+00
	FillingsUpdate:  mu: -0.166924210  nElectrons: 9.000000
	SubspaceRotationAdjust: set factor to 1
ElecMinimize: Iter:   1  F: -24.069976269369050  |grad|_K:  9.153e-05  alpha:  9.351e-01  linmin:  4.552e-04  t[s]:     13.77
	FillingsUpdate:  mu: -0.138651114  nElectrons: 9.000000
	SubspaceRotationAdjust: set factor to 0.986
ElecMinimize: Iter:   2  F: -24.103727960662034  |grad|_K:  8.650e-05  alpha:  1.040e+00  linmin:  9.698e-04  t[s]:     15.13
	FillingsUpdate:  mu: -0.128903264  nElectrons: 9.000000
	SubspaceRotationAdjust: set factor to 0.979
ElecMinimize: Iter:   3  F: -24.112188764089556  |grad|_K:  5.219e-05  alpha:  2.198e-01  linmin: -1.012e-02  t[s]:     16.51
	FillingsUpdate:  mu: -0.121904526  nElectrons: 9.000000
	SubspaceRotationAdjust: set factor to 0.981
ElecMinimize: Iter:   4  F: -24.119283893796567  |grad|_K:  5.589e-05  alpha:  4.697e-01  linmin:  7.967e-04  t[s]:     17.87
	FillingsUpdate:  mu: -0.120996061  nElectrons: 9.000000
	SubspaceRotationAdjust: set factor to 0.99
ElecMinimize: Iter:   5  F: -24.123628518023018  |grad|_K:  6.147e-05  alpha:  2.369e-01  linmin: -2.304e-03  t[s]:     19.22
ElecMinimize: 	Wrong curvature in test step, increasing alphaT to 7.108363e-01.
	FillingsUpdate:  mu: -0.125258437  nElectrons: 9.000000
	SubspaceRotationAdjust: set factor to 1.04
ElecMinimize: Iter:   6  F: -24.150196690091146  |grad|_K:  6.470e-05  alpha: -6.746e-02  linmin: -8.384e-03  t[s]:     20.49
	FillingsUpdate:  mu: -0.124019110  nElectrons: 9.000000
	SubspaceRotationAdjust: set factor to 1.11
ElecMinimize: Iter:   7  F: -24.151993205116941  |grad|_K:  5.888e-05  alpha:  1.742e-02  linmin: -8.225e-03  t[s]:     21.91
ElecMinimize: 	Wrong curvature in test step, increasing alphaT to 5.225302e-02.
	FillingsUpdate:  mu: -0.126098142  nElectrons: 9.000000
	SubspaceRotationAdjust: set factor to 1.17
ElecMinimize: Iter:   8  F: -24.153214730145301  |grad|_K:  5.616e-05  alpha: -2.571e-01  linmin: -8.270e-03  t[s]:     23.18
	FillingsUpdate:  mu: -0.128746286  nElectrons: 9.000000
	SubspaceRotationAdjust: set factor to 1.25
ElecMinimize: Iter:   9  F: -24.153737401677464  |grad|_K:  5.522e-05  alpha:  9.115e-03  linmin: -9.715e-03  t[s]:     24.58
ElecMinimize: 	Wrong curvature in test step, increasing alphaT to 2.734550e-02.
	FillingsUpdate:  mu: -0.127849576  nElectrons: 9.000000
	SubspaceRotationAdjust: set factor to 1.34
ElecMinimize: Iter:  10  F: -24.154536013973054  |grad|_K:  5.351e-05  alpha: -4.191e-02  linmin: -1.074e-02  t[s]:     25.82
	FillingsUpdate:  mu: -0.126915850  nElectrons: 9.000000
	SubspaceRotationAdjust: set factor to 1.43
ElecMinimize: Iter:  11  F: -24.155167859252579  |grad|_K:  5.245e-05  alpha:  7.349e-03  linmin: -1.127e-02  t[s]:     27.17
ElecMinimize: 	Wrong curvature in test step, increasing alphaT to 2.204809e-02.
	FillingsUpdate:  mu: -0.127013393  nElectrons: 9.000000
	SubspaceRotationAdjust: set factor to 1.63
ElecMinimize: Iter:  12  F: -24.156111059878803  |grad|_K:  5.315e-05  alpha: -9.819e-03  linmin: -1.528e-02  t[s]:     28.46
	FillingsUpdate:  mu: -0.128148392  nElectrons: 9.000000
	SubspaceRotationAdjust: set factor to 1.74
ElecMinimize: Iter:  13  F: -24.156942885317608  |grad|_K:  4.987e-05  alpha:  8.381e-03  linmin: -1.048e-02  t[s]:     29.80
ElecMinimize: 	Wrong curvature in test step, increasing alphaT to 2.514166e-02.
	FillingsUpdate:  mu: -0.125399682  nElectrons: 9.000000
	SubspaceRotationAdjust: set factor to 1.87
ElecMinimize: Iter:  14  F: -24.158154923692560  |grad|_K:  4.956e-05  alpha: -7.910e-03  linmin: -1.013e-02  t[s]:     31.06
	FillingsUpdate:  mu: -0.122487144  nElectrons: 9.000000
	SubspaceRotationAdjust: set factor to 2
ElecMinimize: Iter:  15  F: -24.159329016920040  |grad|_K:  4.957e-05  alpha:  6.463e-03  linmin: -9.927e-03  t[s]:     32.41
ElecMinimize: 	Predicted alpha/alphaT>3.000000, increasing alphaT to 1.938887e-02.
ElecMinimize: 	Wrong curvature in test step, increasing alphaT to 5.816661e-02.
	FillingsUpdate:  mu: -0.117849613  nElectrons: 9.000000
	SubspaceRotationAdjust: set factor to 2.13
ElecMinimize: Iter:  16  F: -24.161731979778043  |grad|_K:  5.084e-05  alpha: -7.035e-02  linmin: -6.693e-03  t[s]:     34.14
	FillingsUpdate:  mu: -0.110605584  nElectrons: 9.000000
	SubspaceRotationAdjust: set factor to 2.26
ElecMinimize: Iter:  17  F: -24.163408870492713  |grad|_K:  5.394e-05  alpha:  6.084e-03  linmin: -6.639e-03  t[s]:     35.52
ElecMinimize: 	Wrong curvature in test step, increasing alphaT to 1.825309e-02.
	FillingsUpdate:  mu: -0.105115068  nElectrons: 9.000000
	SubspaceRotationAdjust: set factor to 2.36
ElecMinimize: Iter:  18  F: -24.164789667939420  |grad|_K:  5.695e-05  alpha: -3.188e-03  linmin: -5.888e-03  t[s]:     36.79
	FillingsUpdate:  mu: -0.097477176  nElectrons: 9.000000
	SubspaceRotationAdjust: set factor to 2.43
ElecMinimize: Iter:  19  F: -24.166534782226087  |grad|_K:  6.202e-05  alpha:  8.274e-03  linmin: -4.387e-03  t[s]:     38.16
ElecMinimize: 	Step increased F by 9.822950e-05, reducing alpha to 1.489336e-03.
	FillingsUpdate:  mu: -0.095123169  nElectrons: 9.000000
	SubspaceRotationAdjust: set factor to 2.5
ElecMinimize: Iter:  20  F: -24.167069885989324  |grad|_K:  6.376e-05  alpha:  1.489e-03  linmin: -5.048e-03  t[s]:     40.46
ElecMinimize: 	Wrong curvature in test step, increasing alphaT to 4.468008e-03.
	FillingsUpdate:  mu: -0.094028099  nElectrons: 9.000000
	SubspaceRotationAdjust: set factor to 2.56
ElecMinimize: Iter:  21  F: -24.167462157453851  |grad|_K:  6.449e-05  alpha: -1.510e-03  linmin: -5.457e-03  t[s]:     41.74
	FillingsUpdate:  mu: -0.079580062  nElectrons: 9.000000
	SubspaceRotationAdjust: set factor to 2.61
ElecMinimize: Iter:  22  F: -24.167747227338548  |grad|_K:  7.475e-05  alpha:  1.185e-02  linmin: -3.473e-03  t[s]:     43.14
ElecMinimize: 	Step increased F by 5.628543e-04, reducing alpha to 1.148036e-04.
	FillingsUpdate:  mu: -0.079565048  nElectrons: 9.000000
	SubspaceRotationAdjust: set factor to 2.67
ElecMinimize: Iter:  23  F: -24.167772619014070  |grad|_K:  7.474e-05  alpha:  1.148e-04  linmin: -4.138e-03  t[s]:     45.34
ElecMinimize: 	Predicted alpha/alphaT>3.000000, increasing alphaT to 3.444108e-04.
ElecMinimize: 	Predicted alpha/alphaT>3.000000, increasing alphaT to 1.033232e-03.
	FillingsUpdate:  mu: -0.079596765  nElectrons: 9.000000
	SubspaceRotationAdjust: set factor to 2.74
ElecMinimize: Iter:  24  F: -24.167817957079471  |grad|_K:  7.478e-05  alpha:  1.731e-04  linmin: -4.734e-03  t[s]:     47.61
ElecMinimize: 	Predicted alpha/alphaT>3.000000, increasing alphaT to 5.192673e-04.
	FillingsUpdate:  mu: -0.079671479  nElectrons: 9.000000
	SubspaceRotationAdjust: set factor to 2.8
ElecMinimize: Iter:  25  F: -24.167876179272358  |grad|_K:  7.479e-05  alpha:  1.926e-04  linmin: -5.274e-03  t[s]:     49.43
ElecMinimize: 	Predicted alpha/alphaT>3.000000, increasing alphaT to 5.776954e-04.
	FillingsUpdate:  mu: -0.079750815  nElectrons: 9.000000
	SubspaceRotationAdjust: set factor to 2.88
ElecMinimize: Iter:  26  F: -24.167938270766065  |grad|_K:  7.476e-05  alpha:  1.813e-04  linmin: -5.770e-03  t[s]:     51.20
	FillingsUpdate:  mu: -0.079766230  nElectrons: 9.000000
	SubspaceRotationAdjust: set factor to 3.14
ElecMinimize: Iter:  27  F: -24.167949431691802  |grad|_K:  7.730e-05  alpha:  2.998e-05  linmin: -5.006e-03  t[s]:     52.54
	FillingsUpdate:  mu: -0.079767975  nElectrons: 9.000000
	SubspaceRotationAdjust: set factor to 3.54
ElecMinimize: Iter:  28  F: -24.167950187695631  |grad|_K:  7.926e-05  alpha:  2.143e-06  linmin: -4.781e-03  t[s]:     53.91
ElecMinimize: 	Predicted alpha/alphaT>3.000000, increasing alphaT to 6.427810e-06.
	FillingsUpdate:  mu: -0.079780307  nElectrons: 9.000000
	SubspaceRotationAdjust: set factor to 3.84
ElecMinimize: Iter:  29  F: -24.167951525925524  |grad|_K:  1.005e-04  alpha:  8.117e-06  linmin:  2.462e-03  t[s]:     55.75
ElecMinimize: 	Bad step direction: g.d > 0.
ElecMinimize: 	Undoing step.
ElecMinimize: 	Step failed: resetting search direction.
	FillingsUpdate:  mu: -0.079780307  nElectrons: 9.000000
	SubspaceRotationAdjust: set factor to 3.99
ElecMinimize: Iter:  30  F: -24.167951525925520  |grad|_K:  1.024e-04  alpha:  0.000e+00
ElecMinimize: 	Predicted alpha/alphaT>3.000000, increasing alphaT to 2.435091e-05.
ElecMinimize: 	Predicted alpha/alphaT>3.000000, increasing alphaT to 7.305273e-05.
ElecMinimize: 	Predicted alpha/alphaT>3.000000, increasing alphaT to 2.191582e-04.
	FillingsUpdate:  mu: -0.079786043  nElectrons: 9.000000
	SubspaceRotationAdjust: set factor to 4.32
ElecMinimize: Iter:  31  F: -24.167966202379368  |grad|_K:  7.690e-05  alpha:  2.600e-04  linmin: -1.008e-02  t[s]:     58.93
ElecMinimize: 	Predicted alpha/alphaT>3.000000, increasing alphaT to 7.800356e-04.
ElecMinimize: 	Predicted alpha/alphaT>3.000000, increasing alphaT to 2.340107e-03.
ElecMinimize: 	Predicted alpha/alphaT>3.000000, increasing alphaT to 7.020320e-03.
	FillingsUpdate:  mu: -0.088575377  nElectrons: 9.000000
	SubspaceRotationAdjust: set factor to 4.46
ElecMinimize: Iter:  32  F: -24.170409384458655  |grad|_K:  6.662e-05  alpha:  2.361e-02  linmin: -9.212e-03  t[s]:     61.17
ElecMinimize: 	Wrong curvature in test step, increasing alphaT to 7.081890e-02.
	FillingsUpdate:  mu: -0.096015829  nElectrons: 9.000000
	SubspaceRotationAdjust: set factor to 4.56
ElecMinimize: Iter:  33  F: -24.172778125657462  |grad|_K:  5.624e-05  alpha: -4.457e-02  linmin: -9.524e-03  t[s]:     62.41
ElecMinimize: 	Step increased F by 4.150936e-03, reducing alpha to 1.834482e-02.
	FillingsUpdate:  mu: -0.098678939  nElectrons: 9.000000
	SubspaceRotationAdjust: set factor to 4.62
ElecMinimize: Iter:  34  F: -24.174157640848879  |grad|_K:  4.860e-05  alpha:  1.834e-02  linmin: -1.071e-02  t[s]:     64.63
ElecMinimize: 	Wrong curvature in test step, increasing alphaT to 5.503446e-02.
	FillingsUpdate:  mu: -0.103799916  nElectrons: 9.000000
	SubspaceRotationAdjust: set factor to 4.64
ElecMinimize: Iter:  35  F: -24.175597497032452  |grad|_K:  4.136e-05  alpha: -3.772e-02  linmin: -1.239e-02  t[s]:     65.87
ElecMinimize: 	Step increased F by 2.796085e-04, reducing alpha to 1.156835e-02.
	FillingsUpdate:  mu: -0.104756180  nElectrons: 9.000000
	SubspaceRotationAdjust: set factor to 4.68
ElecMinimize: Iter:  36  F: -24.176153511315352  |grad|_K:  3.786e-05  alpha:  1.157e-02  linmin: -1.684e-02  t[s]:     68.10
	FillingsUpdate:  mu: -0.111623438  nElectrons: 9.000000
	SubspaceRotationAdjust: set factor to 4.74
ElecMinimize: Iter:  37  F: -24.177013128070502  |grad|_K:  3.039e-05  alpha:  2.473e-02  linmin: -2.150e-02  t[s]:     69.47
	FillingsUpdate:  mu: -0.121691001  nElectrons: 9.000000
	SubspaceRotationAdjust: set factor to 5.01
ElecMinimize: Iter:  38  F: -24.177497626821911  |grad|_K:  2.602e-05  alpha:  3.869e-02  linmin: -3.981e-02  t[s]:     70.79
ElecMinimize: 	Wrong curvature in test step, increasing alphaT to 1.160817e-01.
	FillingsUpdate:  mu: -0.116857825  nElectrons: 9.000000
	SubspaceRotationAdjust: set factor to 5.27
ElecMinimize: Iter:  39  F: -24.178717953282209  |grad|_K:  2.605e-05  alpha: -3.029e-02  linmin: -1.710e-02  t[s]:     72.07
	FillingsUpdate:  mu: -0.111620491  nElectrons: 9.000000
	SubspaceRotationAdjust: set factor to 5.34
ElecMinimize: Iter:  40  F: -24.179643772918830  |grad|_K:  2.900e-05  alpha:  3.467e-02  linmin: -9.873e-03  t[s]:     73.43
ElecMinimize: 	Predicted alpha/alphaT>3.000000, increasing alphaT to 1.040234e-01.
	FillingsUpdate:  mu: -0.093760575  nElectrons: 9.000000
	SubspaceRotationAdjust: set factor to 5.33
ElecMinimize: Iter:  41  F: -24.180972522043206  |grad|_K:  4.817e-05  alpha:  9.713e-02  linmin: -8.775e-04  t[s]:     75.23
ElecMinimize: 	Step increased F by 6.149499e-05, reducing alpha to 4.626811e-04.
	FillingsUpdate:  mu: -0.093774563  nElectrons: 9.000000
	SubspaceRotationAdjust: set factor to 5.72
ElecMinimize: Iter:  42  F: -24.180984852092049  |grad|_K:  4.830e-05  alpha:  4.627e-04  linmin: -3.607e-03  t[s]:     77.42
	FillingsUpdate:  mu: -0.093787692  nElectrons: 9.000000
	SubspaceRotationAdjust: set factor to 6.15
ElecMinimize: Iter:  43  F: -24.180991310764981  |grad|_K:  4.853e-05  alpha:  1.457e-04  linmin: -9.937e-03  t[s]:     78.77
ElecMinimize: 	Predicted alpha/alphaT>3.000000, increasing alphaT to 4.370242e-04.
	FillingsUpdate:  mu: -0.093742157  nElectrons: 9.000000
	SubspaceRotationAdjust: set factor to 8.11
	SubspaceRotationAdjust: resetting CG because factor has changed by 8.10887
ElecMinimize: 	State modified externally: resetting search direction.
ElecMinimize: Iter:  44  F: -24.180999541782676  |grad|_K:  5.889e-05  alpha:  1.569e-04
ElecMinimize: 	Predicted alpha/alphaT>3.000000, increasing alphaT to 4.708001e-04.
	FillingsUpdate:  mu: -0.093938471  nElectrons: 9.000000
	SubspaceRotationAdjust: set factor to 8.73
ElecMinimize: Iter:  45  F: -24.181025770456969  |grad|_K:  4.907e-05  alpha:  1.303e-03  linmin: -3.738e-03  t[s]:     83.15
ElecMinimize: 	Predicted alpha/alphaT>3.000000, increasing alphaT to 3.910111e-03.
ElecMinimize: 	Predicted alpha/alphaT>3.000000, increasing alphaT to 1.173033e-02.
ElecMinimize: 	Predicted alpha/alphaT>3.000000, increasing alphaT to 3.519100e-02.
ElecMinimize: 	Step increased F by 5.664372e-02, reducing alpha to 9.805737e-02.
	FillingsUpdate:  mu: -0.118489300  nElectrons: 9.000000
	SubspaceRotationAdjust: set factor to 6.92
ElecMinimize: Iter:  46  F: -24.182840720331289  |grad|_K:  2.906e-05  alpha:  9.806e-02  linmin: -2.310e-03  t[s]:     86.25
ElecMinimize: 	Wrong curvature in test step, increasing alphaT to 2.941721e-01.
	FillingsUpdate:  mu: -0.111875078  nElectrons: 9.000000
	SubspaceRotationAdjust: set factor to 8.77
ElecMinimize: Iter:  47  F: -24.183989350986860  |grad|_K:  1.945e-05  alpha: -3.236e-01  linmin: -6.971e-03  t[s]:     87.49
	FillingsUpdate:  mu: -0.099651942  nElectrons: 9.000000
	SubspaceRotationAdjust: set factor to 8.7
ElecMinimize: Iter:  48  F: -24.184656140817843  |grad|_K:  1.864e-05  alpha:  5.811e-02  linmin: -4.813e-03  t[s]:     88.89
ElecMinimize: 	Predicted alpha/alphaT>3.000000, increasing alphaT to 1.743369e-01.
	FillingsUpdate:  mu: -0.094573331  nElectrons: 9.000000
	SubspaceRotationAdjust: set factor to 9.02
ElecMinimize: Iter:  49  F: -24.185138190191640  |grad|_K:  2.083e-05  alpha:  9.643e-02  linmin: -8.150e-03  t[s]:     90.69
	FillingsUpdate:  mu: -0.094923124  nElectrons: 9.000000
	SubspaceRotationAdjust: set factor to 10.5
ElecMinimize: Iter:  50  F: -24.185383059375287  |grad|_K:  2.301e-05  alpha:  6.035e-02  linmin: -1.240e-02  t[s]:     92.04
ElecMinimize: 	Predicted alpha/alphaT>3.000000, increasing alphaT to 1.810356e-01.
	FillingsUpdate:  mu: -0.113852997  nElectrons: 9.000000
	SubspaceRotationAdjust: set factor to 9.55
ElecMinimize: Iter:  51  F: -24.186687541973665  |grad|_K:  3.135e-05  alpha:  1.488e-01  linmin: -2.754e-03  t[s]:     93.84
	FillingsUpdate:  mu: -0.136436198  nElectrons: 9.000000
	SubspaceRotationAdjust: set factor to 8.22
ElecMinimize: Iter:  52  F: -24.187467136339087  |grad|_K:  4.497e-05  alpha:  1.031e-01  linmin: -4.145e-03  t[s]:     95.21
	FillingsUpdate:  mu: -0.125580005  nElectrons: 9.000000
	SubspaceRotationAdjust: set factor to 11.1
ElecMinimize: Iter:  53  F: -24.188557468513817  |grad|_K:  3.323e-05  alpha:  4.963e-02  linmin: -8.502e-04  t[s]:     96.57
	FillingsUpdate:  mu: -0.120943846  nElectrons: 9.000000
	SubspaceRotationAdjust: set factor to 11.7
ElecMinimize: Iter:  54  F: -24.188665132324250  |grad|_K:  2.916e-05  alpha:  3.986e-02  linmin: -1.279e-03  t[s]:     97.93
ElecMinimize: 	Wrong curvature in test step, increasing alphaT to 1.195826e-01.
	FillingsUpdate:  mu: -0.117343218  nElectrons: 9.000000
	SubspaceRotationAdjust: set factor to 11.9
ElecMinimize: Iter:  55  F: -24.189306790652203  |grad|_K:  2.576e-05  alpha: -5.527e-02  linmin: -1.416e-03  t[s]:     99.25
	FillingsUpdate:  mu: -0.116130395  nElectrons: 9.000000
	SubspaceRotationAdjust: set factor to 13.1
ElecMinimize: Iter:  56  F: -24.189478810809280  |grad|_K:  2.437e-05  alpha:  1.642e-02  linmin: -8.245e-03  t[s]:    100.61
	FillingsUpdate:  mu: -0.123053857  nElectrons: 9.000000
	SubspaceRotationAdjust: set factor to 6.26
ElecMinimize: Iter:  57  F: -24.189756208706868  |grad|_K:  3.331e-05  alpha:  4.561e-02  linmin:  1.237e-02  t[s]:    101.95
ElecMinimize: 	Bad step direction: g.d > 0.
ElecMinimize: 	Undoing step.
ElecMinimize: 	Step failed: resetting search direction.
	FillingsUpdate:  mu: -0.123053857  nElectrons: 9.000000
	SubspaceRotationAdjust: set factor to 5.74
ElecMinimize: Iter:  58  F: -24.189756208706868  |grad|_K:  2.640e-05  alpha:  0.000e+00
	FillingsUpdate:  mu: -0.122752287  nElectrons: 9.000000
	SubspaceRotationAdjust: set factor to 5.95
ElecMinimize: Iter:  59  F: -24.189874692699021  |grad|_K:  1.705e-05  alpha:  4.460e-02  linmin: -1.213e-02  t[s]:    104.25
ElecMinimize: 	Wrong curvature in test step, increasing alphaT to 1.337974e-01.
	FillingsUpdate:  mu: -0.122338921  nElectrons: 9.000000
	SubspaceRotationAdjust: set factor to 6.06
ElecMinimize: Iter:  60  F: -24.190058513175213  |grad|_K:  1.585e-05  alpha: -8.547e-02  linmin: -1.466e-02  t[s]:    105.51
	FillingsUpdate:  mu: -0.117806387  nElectrons: 9.000000
	SubspaceRotationAdjust: set factor to 5.84
ElecMinimize: Iter:  61  F: -24.190594930029913  |grad|_K:  1.325e-05  alpha:  2.574e-01  linmin: -8.423e-03  t[s]:    106.89
ElecMinimize: 	Wrong curvature in test step, increasing alphaT to 7.720897e-01.
	FillingsUpdate:  mu: -0.120468114  nElectrons: 9.000000
	SubspaceRotationAdjust: set factor to 3.77
ElecMinimize: Iter:  62  F: -24.191304553010401  |grad|_K:  1.557e-05  alpha: -1.915e+00  linmin: -8.398e-03  t[s]:    108.15
	FillingsUpdate:  mu: -0.122399812  nElectrons: 9.000000
	SubspaceRotationAdjust: set factor to 3.74
ElecMinimize: Iter:  63  F: -24.191541053370315  |grad|_K:  1.236e-05  alpha:  1.692e-01  linmin: -5.944e-03  t[s]:    109.53
ElecMinimize: 	Predicted alpha/alphaT>3.000000, increasing alphaT to 5.074749e-01.
	FillingsUpdate:  mu: -0.107185181  nElectrons: 9.000000
	SubspaceRotationAdjust: set factor to 4.23
ElecMinimize: Iter:  64  F: -24.191860217749252  |grad|_K:  1.073e-05  alpha:  2.439e-01  linmin: -2.392e-03  t[s]:    111.34
	FillingsUpdate:  mu: -0.111888383  nElectrons: 9.000000
	SubspaceRotationAdjust: set factor to 2.88
ElecMinimize: Iter:  65  F: -24.191923399011497  |grad|_K:  1.466e-05  alpha:  4.220e-01  linmin:  4.398e-03  t[s]:    112.68
ElecMinimize: 	Bad step direction: g.d > 0.
ElecMinimize: 	Undoing step.
ElecMinimize: 	Step failed: resetting search direction.
	FillingsUpdate:  mu: -0.111888383  nElectrons: 9.000000
	SubspaceRotationAdjust: set factor to 4.27
ElecMinimize: Iter:  66  F: -24.191923399011497  |grad|_K:  1.374e-05  alpha:  0.000e+00
	FillingsUpdate:  mu: -0.119942534  nElectrons: 9.000000
	SubspaceRotationAdjust: set factor to 4.2
ElecMinimize: Iter:  67  F: -24.192162736557123  |grad|_K:  5.718e-06  alpha:  3.528e-01  linmin: -1.005e-02  t[s]:    114.92
	FillingsUpdate:  mu: -0.116549048  nElectrons: 9.000000
	SubspaceRotationAdjust: set factor to 4.29
ElecMinimize: Iter:  68  F: -24.192221246469899  |grad|_K:  5.201e-06  alpha:  1.315e-01  linmin: -4.507e-03  t[s]:    116.29
	FillingsUpdate:  mu: -0.108989188  nElectrons: 9.000000
	SubspaceRotationAdjust: set factor to 4.23
ElecMinimize: Iter:  69  F: -24.192225582613304  |grad|_K:  5.841e-06  alpha:  9.514e-02  linmin: -7.079e-03  t[s]:    117.62
ElecMinimize: 	Predicted alpha/alphaT>3.000000, increasing alphaT to 2.854285e-01.
	FillingsUpdate:  mu: -0.109224111  nElectrons: 9.000000
	SubspaceRotationAdjust: set factor to 4.81
ElecMinimize: Iter:  70  F: -24.192374433068800  |grad|_K:  6.160e-06  alpha:  6.481e-01  linmin:  4.127e-03  t[s]:    119.47
	FillingsUpdate:  mu: -0.111340283  nElectrons: 9.000000
	SubspaceRotationAdjust: set factor to 5.42
ElecMinimize: Iter:  71  F: -24.192397023178646  |grad|_K:  5.837e-06  alpha:  4.284e-02  linmin: -1.629e-03  t[s]:    120.85
ElecMinimize: 	Wrong curvature in test step, increasing alphaT to 1.285167e-01.
	FillingsUpdate:  mu: -0.114412654  nElectrons: 9.000000
	SubspaceRotationAdjust: set factor to 6.13
ElecMinimize: Iter:  72  F: -24.192447774049199  |grad|_K:  5.311e-06  alpha: -9.567e-03  linmin: -3.610e-03  t[s]:    122.11
	FillingsUpdate:  mu: -0.116038506  nElectrons: 9.000000
	SubspaceRotationAdjust: set factor to 6.22
ElecMinimize: Iter:  73  F: -24.192472533498954  |grad|_K:  4.751e-06  alpha:  2.653e-02  linmin: -8.419e-03  t[s]:    123.46
ElecMinimize: 	Step increased F by 2.422122e-06, reducing alpha to 9.365823e-04.
	FillingsUpdate:  mu: -0.116045125  nElectrons: 9.000000
	SubspaceRotationAdjust: set factor to 6.43
ElecMinimize: Iter:  74  F: -24.192472937623833  |grad|_K:  4.739e-06  alpha:  9.366e-04  linmin: -1.005e-02  t[s]:    125.65
ElecMinimize: 	Predicted alpha/alphaT>3.000000, increasing alphaT to 2.809747e-03.
ElecMinimize: 	Predicted alpha/alphaT>3.000000, increasing alphaT to 8.429241e-03.
	FillingsUpdate:  mu: -0.116243481  nElectrons: 9.000000
	SubspaceRotationAdjust: set factor to 7.95
ElecMinimize: Iter:  75  F: -24.192474637063569  |grad|_K:  5.947e-06  alpha:  3.318e-03  linmin: -7.618e-04  t[s]:    127.98
ElecMinimize: 	Step increased F by 8.676995e-08, reducing alpha to 6.087258e-05.
	FillingsUpdate:  mu: -0.116270427  nElectrons: 9.000000
	SubspaceRotationAdjust: set factor to 8.11
ElecMinimize: Iter:  76  F: -24.192474659955472  |grad|_K:  6.423e-06  alpha:  6.087e-05  linmin: -1.178e-03  t[s]:    130.25
ElecMinimize: 	Predicted alpha/alphaT>3.000000, increasing alphaT to 1.826177e-04.
	FillingsUpdate:  mu: -0.116548044  nElectrons: 9.000000
	SubspaceRotationAdjust: set factor to 5.81
ElecMinimize: Iter:  77  F: -24.192474799448181  |grad|_K:  8.314e-06  alpha:  4.376e-04  linmin:  1.786e-04  t[s]:    132.05
	FillingsUpdate:  mu: -0.116637895  nElectrons: 9.000000
	SubspaceRotationAdjust: set factor to 4.37
ElecMinimize: Iter:  78  F: -24.192474811358061  |grad|_K:  7.871e-06  alpha:  7.222e-05  linmin:  3.888e-06  t[s]:    133.44
	FillingsUpdate:  mu: -0.116817095  nElectrons: 9.000000
	SubspaceRotationAdjust: set factor to 3.29
ElecMinimize: Iter:  79  F: -24.192474850749093  |grad|_K:  7.850e-06  alpha:  1.652e-04  linmin: -5.636e-07  t[s]:    134.82
	FillingsUpdate:  mu: -0.117058994  nElectrons: 9.000000
	SubspaceRotationAdjust: set factor to 2.48
ElecMinimize: Iter:  80  F: -24.192474906568915  |grad|_K:  7.820e-06  alpha:  2.290e-04  linmin: -9.269e-06  t[s]:    136.20
	FillingsUpdate:  mu: -0.117446026  nElectrons: 9.000000
	SubspaceRotationAdjust: set factor to 1.86
ElecMinimize: Iter:  81  F: -24.192475013728249  |grad|_K:  7.781e-06  alpha:  3.949e-04  linmin: -4.015e-05  t[s]:    137.56
ElecMinimize: 	Predicted alpha/alphaT>3.000000, increasing alphaT to 1.184689e-03.
ElecMinimize: 	Wrong curvature in test step, increasing alphaT to 3.554067e-03.
	FillingsUpdate:  mu: -0.118240185  nElectrons: 9.000000
	SubspaceRotationAdjust: set factor to 1.69
ElecMinimize: Iter:  82  F: -24.192475933973515  |grad|_K:  6.574e-06  alpha: -1.697e-03  linmin: -7.609e-04  t[s]:    139.26
	FillingsUpdate:  mu: -0.118386158  nElectrons: 9.000000
	SubspaceRotationAdjust: set factor to 1.67
ElecMinimize: Iter:  83  F: -24.192512401429521  |grad|_K:  3.666e-06  alpha:  3.729e-02  linmin: -7.608e-04  t[s]:    140.64
	FillingsUpdate:  mu: -0.118376738  nElectrons: 9.000000
	SubspaceRotationAdjust: set factor to 1.76
ElecMinimize: Iter:  84  F: -24.192515493154897  |grad|_K:  3.978e-06  alpha:  3.458e-02  linmin: -9.155e-04  t[s]:    142.01
	FillingsUpdate:  mu: -0.118365983  nElectrons: 9.000000
	SubspaceRotationAdjust: set factor to 1.91
ElecMinimize: Iter:  85  F: -24.192516239203322  |grad|_K:  4.039e-06  alpha:  3.115e-03  linmin: -1.925e-03  t[s]:    143.41
ElecMinimize: 	Predicted alpha/alphaT>3.000000, increasing alphaT to 9.345892e-03.
ElecMinimize: 	Predicted alpha/alphaT>3.000000, increasing alphaT to 2.803767e-02.
	FillingsUpdate:  mu: -0.118267287  nElectrons: 9.000000
	SubspaceRotationAdjust: set factor to 1.54
ElecMinimize: Iter:  86  F: -24.192518450953727  |grad|_K:  6.434e-06  alpha:  1.957e-02  linmin:  2.660e-04  t[s]:    145.67
	FillingsUpdate:  mu: -0.118265233  nElectrons: 9.000000
	SubspaceRotationAdjust: set factor to 1.37
ElecMinimize: Iter:  87  F: -24.192518456952850  |grad|_K:  5.986e-06  alpha:  1.452e-04  linmin: -5.528e-05  t[s]:    147.06
ElecMinimize: 	Wrong curvature in test step, increasing alphaT to 4.354805e-04.
	FillingsUpdate:  mu: -0.118263385  nElectrons: 9.000000
	SubspaceRotationAdjust: set factor to 1.3
ElecMinimize: Iter:  88  F: -24.192518505055578  |grad|_K:  5.767e-06  alpha: -4.033e-03  linmin: -4.502e-04  t[s]:    148.31
	FillingsUpdate:  mu: -0.117700386  nElectrons: 9.000000
	SubspaceRotationAdjust: set factor to 0.842
	SubspaceRotationAdjust: resetting CG because factor has changed by 0.103865
ElecMinimize: 	State modified externally: resetting search direction.
ElecMinimize: Iter:  89  F: -24.192535423072535  |grad|_K:  6.944e-06  alpha:  2.004e-02
ElecMinimize: 	Wrong curvature in test step, increasing alphaT to 6.011668e-02.
	FillingsUpdate:  mu: -0.116237624  nElectrons: 9.000000
	SubspaceRotationAdjust: set factor to 0.603
ElecMinimize: Iter:  90  F: -24.192545052559478  |grad|_K:  6.719e-06  alpha: -3.574e-02  linmin: -4.452e-03  t[s]:    151.72
	FillingsUpdate:  mu: -0.114020471  nElectrons: 9.000000
	SubspaceRotationAdjust: set factor to 0.623
ElecMinimize: Iter:  91  F: -24.192586209911706  |grad|_K:  4.092e-06  alpha:  3.735e-01  linmin:  3.789e-03  t[s]:    153.09
	FillingsUpdate:  mu: -0.114782478  nElectrons: 9.000000
	SubspaceRotationAdjust: set factor to 0.622
ElecMinimize: Iter:  92  F: -24.192596760287348  |grad|_K:  2.818e-06  alpha:  9.788e-01  linmin:  6.960e-05  t[s]:    154.43
ElecMinimize: 	Wrong curvature in test step, increasing alphaT to 2.936261e+00.
	FillingsUpdate:  mu: -0.116377344  nElectrons: 9.000000
	SubspaceRotationAdjust: set factor to 0.668
ElecMinimize: Iter:  93  F: -24.192717829269700  |grad|_K:  4.636e-06  alpha: -4.828e-01  linmin: -7.532e-03  t[s]:    155.70
	FillingsUpdate:  mu: -0.116964135  nElectrons: 9.000000
	SubspaceRotationAdjust: set factor to 0.684
ElecMinimize: Iter:  94  F: -24.192796654965726  |grad|_K:  6.256e-06  alpha:  5.559e-01  linmin: -7.278e-04  t[s]:    157.07
	FillingsUpdate:  mu: -0.117034082  nElectrons: 9.000000
	SubspaceRotationAdjust: set factor to 0.7
ElecMinimize: Iter:  95  F: -24.192819925550300  |grad|_K:  5.349e-06  alpha:  1.127e-01  linmin: -4.518e-03  t[s]:    158.46
	FillingsUpdate:  mu: -0.117003473  nElectrons: 9.000000
	SubspaceRotationAdjust: set factor to 0.763
ElecMinimize: Iter:  96  F: -24.192869151227374  |grad|_K:  3.382e-06  alpha:  1.456e-01  linmin:  6.032e-04  t[s]:    159.80
	FillingsUpdate:  mu: -0.117019041  nElectrons: 9.000000
	SubspaceRotationAdjust: set factor to 1.07
ElecMinimize: Iter:  97  F: -24.192876467836800  |grad|_K:  2.627e-06  alpha:  1.665e-01  linmin: -1.775e-03  t[s]:    161.14
ElecMinimize: 	Wrong curvature in test step, increasing alphaT to 4.995495e-01.
	FillingsUpdate:  mu: -0.117207410  nElectrons: 9.000000
	SubspaceRotationAdjust: set factor to 0.725
ElecMinimize: Iter:  98  F: -24.192907942837067  |grad|_K:  3.618e-06  alpha: -4.095e-02  linmin: -2.916e-02  t[s]:    162.39
	FillingsUpdate:  mu: -0.116921434  nElectrons: 9.000000
	SubspaceRotationAdjust: set factor to 0.771
ElecMinimize: Iter:  99  F: -24.192959735116162  |grad|_K:  4.035e-06  alpha:  1.813e-01  linmin:  3.582e-03  t[s]:    163.79
ElecMinimize: 	Bad step direction: g.d > 0.
ElecMinimize: 	Undoing step.
ElecMinimize: 	Step failed: resetting search direction.
	FillingsUpdate:  mu: -0.116921434  nElectrons: 9.000000
	SubspaceRotationAdjust: set factor to 0.805
ElecMinimize: Iter: 100  F: -24.192959735116162  |grad|_K:  4.040e-06  alpha:  0.000e+00
	FillingsUpdate:  mu: -0.116970464  nElectrons: 9.000000
	SubspaceRotationAdjust: set factor to 0.921
ElecMinimize: Iter: 101  F: -24.192988409612440  |grad|_K:  2.032e-06  alpha:  4.519e-01  linmin:  4.827e-04  t[s]:    166.12
	FillingsUpdate:  mu: -0.116958521  nElectrons: 9.000000
	SubspaceRotationAdjust: set factor to 0.935
ElecMinimize: Iter: 102  F: -24.193002128558046  |grad|_K:  2.441e-06  alpha:  8.594e-01  linmin:  4.253e-04  t[s]:    167.52
	FillingsUpdate:  mu: -0.116800933  nElectrons: 9.000000
	SubspaceRotationAdjust: set factor to 0.9
ElecMinimize: Iter: 103  F: -24.193022649468702  |grad|_K:  1.919e-06  alpha:  8.956e-01  linmin:  1.253e-03  t[s]:    168.90
	FillingsUpdate:  mu: -0.116643300  nElectrons: 9.000000
	SubspaceRotationAdjust: set factor to 0.865
ElecMinimize: Iter: 104  F: -24.193030611421907  |grad|_K:  1.212e-06  alpha:  5.753e-01  linmin: -1.928e-05  t[s]:    170.26
	FillingsUpdate:  mu: -0.116519525  nElectrons: 9.000000
	SubspaceRotationAdjust: set factor to 1.13
ElecMinimize: Iter: 105  F: -24.193035106405688  |grad|_K:  8.108e-07  alpha:  7.769e-01  linmin: -4.696e-04  t[s]:    171.63
	FillingsUpdate:  mu: -0.116518734  nElectrons: 9.000000
	SubspaceRotationAdjust: set factor to 1.14
ElecMinimize: Iter: 106  F: -24.193036190251888  |grad|_K:  3.519e-07  alpha:  4.129e-01  linmin:  4.433e-05  t[s]:    172.98
	FillingsUpdate:  mu: -0.116547021  nElectrons: 9.000000
	SubspaceRotationAdjust: set factor to 1.15
ElecMinimize: Iter: 107  F: -24.193036416248983  |grad|_K:  1.689e-07  alpha:  4.701e-01  linmin: -1.085e-06  t[s]:    174.37
	FillingsUpdate:  mu: -0.116577926  nElectrons: 9.000000
	SubspaceRotationAdjust: set factor to 1.19
ElecMinimize: Iter: 108  F: -24.193036530064980  |grad|_K:  1.436e-07  alpha:  1.025e+00  linmin: -2.297e-07  t[s]:    175.74
	FillingsUpdate:  mu: -0.116578861  nElectrons: 9.000000
	SubspaceRotationAdjust: set factor to 1.19
ElecMinimize: Iter: 109  F: -24.193036573135586  |grad|_K:  9.543e-08  alpha:  5.367e-01  linmin: -2.693e-07  t[s]:    177.13
	FillingsUpdate:  mu: -0.116575073  nElectrons: 9.000000
	SubspaceRotationAdjust: set factor to 1.24
ElecMinimize: Iter: 110  F: -24.193036592390037  |grad|_K:  5.261e-08  alpha:  5.432e-01  linmin:  4.753e-08  t[s]:    178.53
	FillingsUpdate:  mu: -0.116583300  nElectrons: 9.000000
	SubspaceRotationAdjust: set factor to 1.25
ElecMinimize: Iter: 111  F: -24.193036603009432  |grad|_K:  5.766e-08  alpha:  9.862e-01  linmin:  7.715e-07  t[s]:    179.88
	FillingsUpdate:  mu: -0.116598030  nElectrons: 9.000000
	SubspaceRotationAdjust: set factor to 1.25
ElecMinimize: Iter: 112  F: -24.193036613352913  |grad|_K:  4.409e-08  alpha:  7.998e-01  linmin:  2.302e-07  t[s]:    181.27
	FillingsUpdate:  mu: -0.116603078  nElectrons: 9.000000
	SubspaceRotationAdjust: set factor to 1.5
ElecMinimize: Iter: 113  F: -24.193036617768449  |grad|_K:  2.789e-08  alpha:  5.840e-01  linmin:  2.733e-10  t[s]:    182.64
	FillingsUpdate:  mu: -0.116602924  nElectrons: 9.000000
	SubspaceRotationAdjust: set factor to 1.59
ElecMinimize: Iter: 114  F: -24.193036619400949  |grad|_K:  1.725e-08  alpha:  5.399e-01  linmin:  4.337e-07  t[s]:    184.01
ElecMinimize: Converged (|Delta F|<1.000000e-08 for 2 iters).
Setting wave functions to eigenvectors of Hamiltonian

# Ionic positions in lattice coordinates:
ion Rb   0.000000000000000   0.000000000000000   0.000000000000000 0

# Forces in Lattice coordinates:
force Rb   0.000000000000000   0.000000000000000   0.000000000000000 0

# Energy components:
   Eewald =      -37.9958444217529774
       EH =      -19.1600312305464122
     Eloc =       29.9458842236246880
      Enl =       -0.8553880318677036
   Epulay =        0.0000000045907923
      Exc =       -3.9857085922677773
       KE =        7.8580514586971901
-------------------------------------
     Etot =      -24.1930365895222010
       TS =        0.0000000298787483
-------------------------------------
        F =      -24.1930366194009494

IonicMinimize: Iter:   0  F: -24.193036619400949  |grad|_K:  0.000e+00  t[s]:    184.14
IonicMinimize: Converged (|grad|_K<1.000000e-04).

#--- Lowdin population analysis ---
# oxidation-state Rb +0.752

End date and time: Sun Jan 16 15:49:06 2022  (Duration: 0-0:03:04.17)
Done!
