1.64
--------------------------------------------------------------------------
The library attempted to open the following supporting CUDA libraries,
but each of them failed.  CUDA-aware support is disabled.
libcuda.so.1: cannot open shared object file: No such file or directory
libcuda.dylib: cannot open shared object file: No such file or directory
/usr/lib64/libcuda.so.1: cannot open shared object file: No such file or directory
/usr/lib64/libcuda.dylib: cannot open shared object file: No such file or directory
If you are not interested in CUDA-aware support, then run with
--mca opal_warn_on_missing_libcuda 0 to suppress this message.  If you are interested
in CUDA-aware support, then try setting LD_LIBRARY_PATH to the location
of libcuda.so.1 to get passed this issue.
--------------------------------------------------------------------------
--------------------------------------------------------------------------
No OpenFabrics connection schemes reported that they were able to be
used on a specific port.  As such, the openib BTL (OpenFabrics
support) will be disabled for this port.

  Local host:           d-16-5-1
  Local device:         mlx5_1
  Local port:           1
  CPCs attempted:       rdmacm, udcm
--------------------------------------------------------------------------

*************** JDFTx 1.6.0 (git hash 42ebbcc2) ***************

Start date and time: Sun Jan 16 15:48:51 2022
Executable jdftx with command-line: -i Rubidium.in
Running on hosts (process indices):  d-16-5-1 (0-18)
Divided in process groups (process indices):  0 (0)  1 (1)  2 (2)  3 (3)  4 (4)  5 (5)  6 (6)  7 (7)  8 (8)  9 (9)  10 (10)  11 (11)  12 (12)  13 (13)  14 (14)  15 (15)  16 (16)  17 (17)  18 (18)
Resource initialization completed at t[s]:      0.00
Run totals: 19 processes, 48 threads, 0 GPUs


Input parsed successfully to the following command list (including defaults):

basis kpoint-dependent
coords-type Lattice
core-overlap-check vector
coulomb-interaction Slab 001
davidson-band-ratio 1.1
dump End None
dump-name $INPUT.$VAR
elec-cutoff 20 100
elec-eigen-algo Davidson
elec-ex-corr gga-PBE
elec-smearing Fermi 1e-05
electronic-minimize  \
	dirUpdateScheme      FletcherReeves \
	linminMethod         DirUpdateRecommended \
	nIterations          10000 \
	history              15 \
	knormThreshold       0 \
	energyDiffThreshold  1e-08 \
	nEnergyDiff          2 \
	alphaTstart          1 \
	alphaTmin            1e-10 \
	updateTestStepSize   yes \
	alphaTreduceFactor   0.1 \
	alphaTincreaseFactor 3 \
	nAlphaAdjustMax      3 \
	wolfeEnergy          0.0001 \
	wolfeGradient        0.9 \
	fdTest               no
exchange-regularization WignerSeitzTruncated
fluid None
fluid-ex-corr (null) lda-PZ
fluid-gummel-loop 10 1.000000e-05
fluid-minimize  \
	dirUpdateScheme      PolakRibiere \
	linminMethod         DirUpdateRecommended \
	nIterations          100 \
	history              15 \
	knormThreshold       0 \
	energyDiffThreshold  0 \
	nEnergyDiff          2 \
	alphaTstart          1 \
	alphaTmin            1e-10 \
	updateTestStepSize   yes \
	alphaTreduceFactor   0.1 \
	alphaTincreaseFactor 3 \
	nAlphaAdjustMax      3 \
	wolfeEnergy          0.0001 \
	wolfeGradient        0.9 \
	fdTest               no
fluid-solvent H2O 55.338 ScalarEOS \
	epsBulk 78.4 \
	pMol 0.92466 \
	epsInf 1.77 \
	Pvap 1.06736e-10 \
	sigmaBulk 4.62e-05 \
	Rvdw 2.61727 \
	Res 1.42 \
	tauNuc 343133 \
	poleEl 15 7 1
forces-output-coords Positions
ion Rb   0.000000000000000   0.000000000000000   0.000000000000000 0
ion-species SG15/$ID_ONCV_PBE.upf
ion-width 0
ionic-minimize  \
	dirUpdateScheme      L-BFGS \
	linminMethod         DirUpdateRecommended \
	nIterations          0 \
	history              15 \
	knormThreshold       0.0001 \
	energyDiffThreshold  1e-06 \
	nEnergyDiff          2 \
	alphaTstart          1 \
	alphaTmin            1e-10 \
	updateTestStepSize   yes \
	alphaTreduceFactor   0.1 \
	alphaTincreaseFactor 3 \
	nAlphaAdjustMax      3 \
	wolfeEnergy          0.0001 \
	wolfeGradient        0.9 \
	fdTest               no
kpoint   0.000000000000   0.000000000000   0.000000000000  1.00000000000000
kpoint-folding 48 48 1 
latt-move-scale 1 1 1
latt-scale 1.64 1.64 1 
lattice  \
	   4.727486978767153   -2.363743489383575    0.000000000000000  \
	  -0.000000000000000    4.094123819672498    0.000000000000000  \
	   0.000000000000000    0.000000000000000   40.000000000000000 
lattice-minimize  \
	dirUpdateScheme      L-BFGS \
	linminMethod         DirUpdateRecommended \
	nIterations          0 \
	history              15 \
	knormThreshold       0 \
	energyDiffThreshold  1e-06 \
	nEnergyDiff          2 \
	alphaTstart          1 \
	alphaTmin            1e-10 \
	updateTestStepSize   yes \
	alphaTreduceFactor   0.1 \
	alphaTincreaseFactor 3 \
	nAlphaAdjustMax      3 \
	wolfeEnergy          0.0001 \
	wolfeGradient        0.9 \
	fdTest               no
lcao-params -1 1e-06 1e-05
pcm-variant GLSSA13
spintype no-spin
subspace-rotation-factor 1 yes
symmetries automatic
symmetry-threshold 0.0001



---------- Setting up symmetries ----------

Found 24 point-group symmetries of the bravais lattice
Found 24 space-group symmetries with basis
Applied RMS atom displacement 0 bohrs to make symmetries exact.

---------- Initializing the Grid ----------
R = 
[      7.75308     -3.87654            0  ]
[            0      6.71436            0  ]
[            0            0           40  ]
unit cell volume = 2082.28
G =
[   0.810412   0.467891         -0  ]
[          0   0.935783         -0  ]
[         -0         -0    0.15708  ]
Minimum fftbox size, Smin = [  36  36  184  ]
Chosen fftbox size, S = [  36  36  192  ]

---------- Initializing tighter grid for wavefunction operations ----------
R = 
[      7.75308     -3.87654            0  ]
[            0      6.71436            0  ]
[            0            0           40  ]
unit cell volume = 2082.28
G =
[   0.810412   0.467891         -0  ]
[          0   0.935783         -0  ]
[         -0         -0    0.15708  ]
Minimum fftbox size, Smin = [  32  32  164  ]
Chosen fftbox size, S = [  32  32  168  ]

---------- Exchange Correlation functional ----------
Initalized PBE GGA exchange.
Initalized PBE GGA correlation.

---------- Setting up pseudopotentials ----------
Width of ionic core gaussian charges (only for fluid interactions / plotting) set to 0

Reading pseudopotential file '/home/gridsan/aligho/DFT/build-Nov24/pseudopotentials/SG15/Rb_ONCV_PBE.upf':
  'Rb' pseudopotential, 'PBE' functional
  Generated using ONCVPSP code by D. R. Hamann
  Author: Martin Schlipf and Francois Gygi  Date: 150915.
  9 valence electrons, 3 orbitals, 6 projectors, 2308 radial grid points, with lMax = 2
  Transforming local potential to a uniform radial grid of dG=0.02 with 1648 points.
  Transforming nonlocal projectors to a uniform radial grid of dG=0.02 with 432 points.
    4S    l: 0   occupation:  2.0   eigenvalue: -1.172069
    4P    l: 1   occupation:  6.0   eigenvalue: -0.586674
    5S    l: 0   occupation:  1.0   eigenvalue: -0.082006
  Transforming atomic orbitals to a uniform radial grid of dG=0.02 with 432 points.
  Core radius for overlap checks: 2.60 bohrs.
  Reading pulay file /home/gridsan/aligho/DFT/build-Nov24/pseudopotentials/SG15/Rb_ONCV_PBE.pulay ... using dE_dnG = -1.360715e-05 computed for Ecut = 20.

Initialized 1 species with 1 total atoms.

Folded 1 k-points by 48x48x1 to 2304 k-points.

---------- Setting up k-points, bands, fillings ----------
Reduced to 217 k-points under symmetry. 
Computing the number of bands and number of electrons
Calculating initial fillings.
nElectrons:   9.000000   nBands: 6   nStates: 217

----- Setting up reduced wavefunction bases (one per k-point) -----
average nbasis = 8896.053 , ideal nbasis = 8895.656

---------- Setting up coulomb interaction ----------
Initialized slab truncation along lattice direction 001

---------- Setting up 2D ewald sum ----------
Optimum gaussian width for ewald sums = 4.304196 bohr.
Real space sums over 289 unit cells with max indices [  8  8  0  ]
Reciprocal space sums over 81 terms with max indices [  4  4  0  ]

---------- Allocating electronic variables ----------
Initializing wave functions:  linear combination of atomic orbitals
Note: number of bands (6) exceeds available atomic orbitals (5)
Rb pseudo-atom occupations:   s ( 2 1 )  p ( 6 )
	FillingsUpdate:  mu: -0.104057604  nElectrons: 9.000000
LCAOMinimize: Iter:   0  F: -24.4406112705794989  |grad|_K:  7.331e-06  alpha:  1.000e+00
[d-16-5-1:48155] 18 more processes have sent help message help-mpi-common-cuda.txt / dlopen failed
[d-16-5-1:48155] Set MCA parameter "orte_base_help_aggregate" to 0 to see all help / error messages
[d-16-5-1:48155] 18 more processes have sent help message help-mpi-btl-openib-cpc-base.txt / no cpcs for port
	FillingsUpdate:  mu: -0.104043781  nElectrons: 9.000000
LCAOMinimize: Iter:   1  F: -24.4406114778894654  |grad|_K:  8.853e-08  alpha:  9.877e-01  linmin: -3.630e-02  cgtest:  6.973e-01  t[s]:      7.02
LCAOMinimize: Encountered beta<0, resetting CG.
	FillingsUpdate:  mu: -0.104043488  nElectrons: 9.000000
LCAOMinimize: Iter:   2  F: -24.4406114779198234  |grad|_K:  1.944e-09  alpha:  1.007e+00  linmin:  5.825e-02  cgtest: -7.523e-01  t[s]:      9.39
LCAOMinimize: Converged (|Delta F|<1.000000e-06 for 2 iters).


---- Citations for features of the code used in this run ----

   Software package:
      R. Sundararaman, K. Letchworth-Weaver, K.A. Schwarz, D. Gunceler, Y. Ozhabes and T.A. Arias, 'JDFTx: software for joint density-functional theory', SoftwareX 6, 278 (2017)

   gga-PBE exchange-correlation functional:
      J.P. Perdew, K. Burke and M. Ernzerhof, Phys. Rev. Lett. 77, 3865 (1996)

   Pseudopotentials:
      M Schlipf and F Gygi, Comput. Phys. Commun. 196, 36 (2015)

   Truncated Coulomb potentials:
      R. Sundararaman and T.A. Arias, Phys. Rev. B 87, 165122 (2013)

   Total energy minimization with Auxiliary Hamiltonian:
      C. Freysoldt, S. Boeck, and J. Neugebauer, Phys. Rev. B 79, 241103(R) (2009)

This list may not be complete. Please suggest additional citations or
report any other bugs at https://github.com/shankar1729/jdftx/issues

Initialization completed successfully at t[s]:      9.64


-------- Electronic minimization -----------
	FillingsUpdate:  mu: -0.104043488  nElectrons: 9.000000
ElecMinimize: Iter:   0  F: -24.440611477919852  |grad|_K:  1.164e-05  alpha:  1.000e+00
	FillingsUpdate:  mu: -0.101168686  nElectrons: 9.000000
	SubspaceRotationAdjust: set factor to 1
ElecMinimize: Iter:   1  F: -24.443370864442702  |grad|_K:  1.029e-05  alpha:  1.765e+00  linmin:  3.693e-04  t[s]:     14.60
	FillingsUpdate:  mu: -0.093320141  nElectrons: 9.000000
	SubspaceRotationAdjust: set factor to 1.04
ElecMinimize: Iter:   2  F: -24.445085144731888  |grad|_K:  8.124e-06  alpha:  1.359e+00  linmin:  9.493e-05  t[s]:     17.63
	FillingsUpdate:  mu: -0.092557710  nElectrons: 9.000000
	SubspaceRotationAdjust: set factor to 1.08
ElecMinimize: Iter:   3  F: -24.445252645503391  |grad|_K:  7.308e-06  alpha:  1.180e-01  linmin: -3.161e-03  t[s]:     20.72
ElecMinimize: 	Predicted alpha/alphaT>3.000000, increasing alphaT to 3.538611e-01.
	FillingsUpdate:  mu: -0.087844191  nElectrons: 9.000000
	SubspaceRotationAdjust: set factor to 0.992
ElecMinimize: Iter:   4  F: -24.445892605749741  |grad|_K:  5.283e-06  alpha:  5.806e-01  linmin:  9.935e-04  t[s]:     24.71
	FillingsUpdate:  mu: -0.085707985  nElectrons: 9.000000
	SubspaceRotationAdjust: set factor to 1.15
ElecMinimize: Iter:   5  F: -24.445978412075519  |grad|_K:  5.422e-06  alpha:  3.176e-01  linmin: -3.180e-04  t[s]:     27.77
	FillingsUpdate:  mu: -0.083083239  nElectrons: 9.000000
	SubspaceRotationAdjust: set factor to 0.969
ElecMinimize: Iter:   6  F: -24.446100723119130  |grad|_K:  5.146e-06  alpha:  3.311e-01  linmin:  5.739e-04  t[s]:     30.81
	FillingsUpdate:  mu: -0.082949068  nElectrons: 9.000000
	SubspaceRotationAdjust: set factor to 0.862
ElecMinimize: Iter:   7  F: -24.446113488175399  |grad|_K:  4.797e-06  alpha:  2.432e-02  linmin: -6.417e-03  t[s]:     33.84
ElecMinimize: 	Predicted alpha/alphaT>3.000000, increasing alphaT to 7.296784e-02.
ElecMinimize: 	Predicted alpha/alphaT>3.000000, increasing alphaT to 2.189035e-01.
	FillingsUpdate:  mu: -0.082818642  nElectrons: 9.000000
	SubspaceRotationAdjust: set factor to 0.817
ElecMinimize: Iter:   8  F: -24.446152388380586  |grad|_K:  4.247e-06  alpha:  4.345e-02  linmin: -1.679e-02  t[s]:     38.80
ElecMinimize: 	Predicted alpha/alphaT>3.000000, increasing alphaT to 1.303524e-01.
ElecMinimize: 	Step increased F by 2.494493e-04, reducing alpha to 2.804869e-02.
	FillingsUpdate:  mu: -0.082795046  nElectrons: 9.000000
	SubspaceRotationAdjust: set factor to 0.819
ElecMinimize: Iter:   9  F: -24.446180685470384  |grad|_K:  3.869e-06  alpha:  2.805e-02  linmin: -2.548e-02  t[s]:     44.81
ElecMinimize: 	Predicted alpha/alphaT>3.000000, increasing alphaT to 8.414607e-02.
	FillingsUpdate:  mu: -0.083057498  nElectrons: 9.000000
	SubspaceRotationAdjust: set factor to 1.05
ElecMinimize: Iter:  10  F: -24.446332043475831  |grad|_K:  2.255e-06  alpha:  2.402e-01  linmin: -5.945e-03  t[s]:     48.86
	FillingsUpdate:  mu: -0.083406190  nElectrons: 9.000000
	SubspaceRotationAdjust: set factor to 1.01
ElecMinimize: Iter:  11  F: -24.446374356189182  |grad|_K:  1.944e-06  alpha:  4.303e-01  linmin: -1.393e-03  t[s]:     51.93
	FillingsUpdate:  mu: -0.083372296  nElectrons: 9.000000
	SubspaceRotationAdjust: set factor to 1.22
ElecMinimize: Iter:  12  F: -24.446397362955089  |grad|_K:  1.730e-06  alpha:  4.430e-01  linmin: -9.302e-05  t[s]:     54.99
	FillingsUpdate:  mu: -0.082580282  nElectrons: 9.000000
	SubspaceRotationAdjust: set factor to 1.55
ElecMinimize: Iter:  13  F: -24.446415852526695  |grad|_K:  1.935e-06  alpha:  5.525e-01  linmin:  4.906e-04  t[s]:     58.11
	FillingsUpdate:  mu: -0.081478203  nElectrons: 9.000000
	SubspaceRotationAdjust: set factor to 1.81
ElecMinimize: Iter:  14  F: -24.446428943816453  |grad|_K:  1.809e-06  alpha:  3.379e-01  linmin: -3.352e-05  t[s]:     61.15
	FillingsUpdate:  mu: -0.080475340  nElectrons: 9.000000
	SubspaceRotationAdjust: set factor to 1.81
ElecMinimize: Iter:  15  F: -24.446438967063216  |grad|_K:  1.446e-06  alpha:  2.517e-01  linmin:  6.361e-05  t[s]:     64.23
	FillingsUpdate:  mu: -0.079979822  nElectrons: 9.000000
	SubspaceRotationAdjust: set factor to 2.23
ElecMinimize: Iter:  16  F: -24.446444367600687  |grad|_K:  1.266e-06  alpha:  2.267e-01  linmin:  3.734e-05  t[s]:     67.28
	FillingsUpdate:  mu: -0.079900269  nElectrons: 9.000000
	SubspaceRotationAdjust: set factor to 2.45
ElecMinimize: Iter:  17  F: -24.446448710112254  |grad|_K:  1.232e-06  alpha:  2.365e-01  linmin:  7.455e-06  t[s]:     70.33
	FillingsUpdate:  mu: -0.080168819  nElectrons: 9.000000
	SubspaceRotationAdjust: set factor to 3.21
ElecMinimize: Iter:  18  F: -24.446452297033336  |grad|_K:  1.098e-06  alpha:  2.057e-01  linmin: -3.010e-05  t[s]:     73.37
	FillingsUpdate:  mu: -0.080545296  nElectrons: 9.000000
	SubspaceRotationAdjust: set factor to 3.36
ElecMinimize: Iter:  19  F: -24.446455284943511  |grad|_K:  9.962e-07  alpha:  2.109e-01  linmin: -1.042e-04  t[s]:     76.44
	FillingsUpdate:  mu: -0.080759934  nElectrons: 9.000000
	SubspaceRotationAdjust: set factor to 4.01
ElecMinimize: Iter:  20  F: -24.446458060472263  |grad|_K:  9.491e-07  alpha:  2.364e-01  linmin: -3.519e-05  t[s]:     79.51
	FillingsUpdate:  mu: -0.080627338  nElectrons: 9.000000
	SubspaceRotationAdjust: set factor to 5.13
ElecMinimize: Iter:  21  F: -24.446460464952512  |grad|_K:  8.512e-07  alpha:  2.269e-01  linmin:  2.240e-06  t[s]:     82.58
	FillingsUpdate:  mu: -0.080324041  nElectrons: 9.000000
	SubspaceRotationAdjust: set factor to 5.59
ElecMinimize: Iter:  22  F: -24.446462051942778  |grad|_K:  7.696e-07  alpha:  1.873e-01  linmin:  3.356e-05  t[s]:     85.62
	FillingsUpdate:  mu: -0.080110040  nElectrons: 9.000000
	SubspaceRotationAdjust: set factor to 6.01
ElecMinimize: Iter:  23  F: -24.446463365435914  |grad|_K:  8.657e-07  alpha:  1.948e-01  linmin:  4.583e-05  t[s]:     88.67
	FillingsUpdate:  mu: -0.080172971  nElectrons: 9.000000
	SubspaceRotationAdjust: set factor to 4.82
ElecMinimize: Iter:  24  F: -24.446464868742737  |grad|_K:  9.230e-07  alpha:  1.782e-01  linmin:  1.062e-05  t[s]:     91.75
	FillingsUpdate:  mu: -0.080422739  nElectrons: 9.000000
	SubspaceRotationAdjust: set factor to 5.77
ElecMinimize: Iter:  25  F: -24.446466131668529  |grad|_K:  6.995e-07  alpha:  1.294e-01  linmin: -5.630e-06  t[s]:     94.84
	FillingsUpdate:  mu: -0.080576883  nElectrons: 9.000000
	SubspaceRotationAdjust: set factor to 6.82
ElecMinimize: Iter:  26  F: -24.446466990281834  |grad|_K:  6.121e-07  alpha:  1.503e-01  linmin: -3.855e-05  t[s]:     97.92
	FillingsUpdate:  mu: -0.080552676  nElectrons: 9.000000
	SubspaceRotationAdjust: set factor to 7.54
	SubspaceRotationAdjust: resetting CG because factor has changed by 7.54116
ElecMinimize: 	State modified externally: resetting search direction.
ElecMinimize: Iter:  27  F: -24.446467756849156  |grad|_K:  6.036e-07  alpha:  1.713e-01
	FillingsUpdate:  mu: -0.080370463  nElectrons: 9.000000
	SubspaceRotationAdjust: set factor to 6.29
ElecMinimize: Iter:  28  F: -24.446468736247777  |grad|_K:  5.291e-07  alpha:  2.417e-01  linmin:  1.736e-04  t[s]:    105.81
	FillingsUpdate:  mu: -0.080584000  nElectrons: 9.000000
	SubspaceRotationAdjust: set factor to 8.13
ElecMinimize: Iter:  29  F: -24.446470383631780  |grad|_K:  3.433e-07  alpha:  5.716e-01  linmin: -4.062e-05  t[s]:    108.86
	FillingsUpdate:  mu: -0.080614522  nElectrons: 9.000000
	SubspaceRotationAdjust: set factor to 5.65
ElecMinimize: Iter:  30  F: -24.446470815794509  |grad|_K:  3.460e-07  alpha:  3.299e-01  linmin:  1.065e-05  t[s]:    111.96
	FillingsUpdate:  mu: -0.080655506  nElectrons: 9.000000
	SubspaceRotationAdjust: set factor to 3.53
ElecMinimize: Iter:  31  F: -24.446471527783768  |grad|_K:  2.087e-07  alpha:  5.228e-01  linmin:  5.129e-05  t[s]:    115.05
	FillingsUpdate:  mu: -0.080859122  nElectrons: 9.000000
	SubspaceRotationAdjust: set factor to 2.43
ElecMinimize: Iter:  32  F: -24.446471901049598  |grad|_K:  2.116e-07  alpha:  7.479e-01  linmin: -1.437e-04  t[s]:    118.11
	FillingsUpdate:  mu: -0.080817621  nElectrons: 9.000000
	SubspaceRotationAdjust: set factor to 1.97
ElecMinimize: Iter:  33  F: -24.446472203462072  |grad|_K:  1.248e-07  alpha:  5.721e-01  linmin:  8.466e-06  t[s]:    121.20
	FillingsUpdate:  mu: -0.080864830  nElectrons: 9.000000
	SubspaceRotationAdjust: set factor to 1.99
ElecMinimize: Iter:  34  F: -24.446472391777675  |grad|_K:  1.128e-07  alpha:  1.052e+00  linmin:  4.503e-05  t[s]:    124.28
	FillingsUpdate:  mu: -0.080982521  nElectrons: 9.000000
	SubspaceRotationAdjust: set factor to 1.81
ElecMinimize: Iter:  35  F: -24.446472513204377  |grad|_K:  7.340e-08  alpha:  8.323e-01  linmin: -1.007e-05  t[s]:    127.34
	FillingsUpdate:  mu: -0.081006664  nElectrons: 9.000000
	SubspaceRotationAdjust: set factor to 1.79
ElecMinimize: Iter:  36  F: -24.446472566328637  |grad|_K:  4.737e-08  alpha:  8.497e-01  linmin: -3.698e-07  t[s]:    130.38
	FillingsUpdate:  mu: -0.081000732  nElectrons: 9.000000
	SubspaceRotationAdjust: set factor to 1.76
ElecMinimize: Iter:  37  F: -24.446472586333670  |grad|_K:  3.100e-08  alpha:  7.690e-01  linmin:  6.811e-06  t[s]:    133.47
	FillingsUpdate:  mu: -0.081010015  nElectrons: 9.000000
	SubspaceRotationAdjust: set factor to 1.71
ElecMinimize: Iter:  38  F: -24.446472596418459  |grad|_K:  2.379e-08  alpha:  9.077e-01  linmin:  3.674e-06  t[s]:    136.53
	FillingsUpdate:  mu: -0.081020631  nElectrons: 9.000000
	SubspaceRotationAdjust: set factor to 1.73
ElecMinimize: Iter:  39  F: -24.446472602680352  |grad|_K:  1.738e-08  alpha:  9.565e-01  linmin:  5.775e-08  t[s]:    139.62
	FillingsUpdate:  mu: -0.081017251  nElectrons: 9.000000
	SubspaceRotationAdjust: set factor to 1.64
ElecMinimize: Iter:  40  F: -24.446472606007234  |grad|_K:  1.489e-08  alpha:  9.505e-01  linmin:  1.102e-06  t[s]:    142.68
ElecMinimize: Converged (|Delta F|<1.000000e-08 for 2 iters).
Setting wave functions to eigenvectors of Hamiltonian

# Ionic positions in lattice coordinates:
ion Rb   0.000000000000000   0.000000000000000   0.000000000000000 0

# Forces in Lattice coordinates:
force Rb  -0.000000000000000   0.000000000000000   0.000000000000000 0

# Energy components:
   Eewald =      -22.0097879272349566
       EH =       -2.3365194090067671
     Eloc =       -2.6343977969841634
      Enl =       -0.7858363126600523
   Epulay =        0.0000000025950954
      Exc =       -3.7009899212296302
       KE =        7.0210587934836255
-------------------------------------
     Etot =      -24.4464725710368498
       TS =        0.0000000349703856
-------------------------------------
        F =      -24.4464726060072337

IonicMinimize: Iter:   0  F: -24.446472606007234  |grad|_K:  0.000e+00  t[s]:    143.03
IonicMinimize: Converged (|grad|_K<1.000000e-04).

#--- Lowdin population analysis ---
# oxidation-state Rb +0.033

End date and time: Sun Jan 16 15:51:14 2022  (Duration: 0-0:02:23.11)
Done!
