0.74
--------------------------------------------------------------------------
The library attempted to open the following supporting CUDA libraries,
but each of them failed.  CUDA-aware support is disabled.
libcuda.so.1: cannot open shared object file: No such file or directory
libcuda.dylib: cannot open shared object file: No such file or directory
/usr/lib64/libcuda.so.1: cannot open shared object file: No such file or directory
/usr/lib64/libcuda.dylib: cannot open shared object file: No such file or directory
If you are not interested in CUDA-aware support, then run with
--mca opal_warn_on_missing_libcuda 0 to suppress this message.  If you are interested
in CUDA-aware support, then try setting LD_LIBRARY_PATH to the location
of libcuda.so.1 to get passed this issue.
--------------------------------------------------------------------------
--------------------------------------------------------------------------
No OpenFabrics connection schemes reported that they were able to be
used on a specific port.  As such, the openib BTL (OpenFabrics
support) will be disabled for this port.

  Local host:           d-4-4-1
  Local device:         mlx5_1
  Local port:           1
  CPCs attempted:       rdmacm, udcm
--------------------------------------------------------------------------

*************** JDFTx 1.6.0 (git hash 42ebbcc2) ***************

Start date and time: Sun Jan 16 15:46:02 2022
Executable jdftx with command-line: -i Rubidium.in
Running on hosts (process indices):  d-4-4-1 (0-18)
Divided in process groups (process indices):  0 (0)  1 (1)  2 (2)  3 (3)  4 (4)  5 (5)  6 (6)  7 (7)  8 (8)  9 (9)  10 (10)  11 (11)  12 (12)  13 (13)  14 (14)  15 (15)  16 (16)  17 (17)  18 (18)
Resource initialization completed at t[s]:      0.00
Run totals: 19 processes, 48 threads, 0 GPUs


Input parsed successfully to the following command list (including defaults):

basis kpoint-dependent
coords-type Lattice
core-overlap-check vector
coulomb-interaction Slab 001
davidson-band-ratio 1.1
dump End None
dump-name $INPUT.$VAR
elec-cutoff 20 100
elec-eigen-algo Davidson
elec-ex-corr gga-PBE
elec-smearing Fermi 1e-05
electronic-minimize  \
	dirUpdateScheme      FletcherReeves \
	linminMethod         DirUpdateRecommended \
	nIterations          10000 \
	history              15 \
	knormThreshold       0 \
	energyDiffThreshold  1e-08 \
	nEnergyDiff          2 \
	alphaTstart          1 \
	alphaTmin            1e-10 \
	updateTestStepSize   yes \
	alphaTreduceFactor   0.1 \
	alphaTincreaseFactor 3 \
	nAlphaAdjustMax      3 \
	wolfeEnergy          0.0001 \
	wolfeGradient        0.9 \
	fdTest               no
exchange-regularization WignerSeitzTruncated
fluid None
fluid-ex-corr (null) lda-PZ
fluid-gummel-loop 10 1.000000e-05
fluid-minimize  \
	dirUpdateScheme      PolakRibiere \
	linminMethod         DirUpdateRecommended \
	nIterations          100 \
	history              15 \
	knormThreshold       0 \
	energyDiffThreshold  0 \
	nEnergyDiff          2 \
	alphaTstart          1 \
	alphaTmin            1e-10 \
	updateTestStepSize   yes \
	alphaTreduceFactor   0.1 \
	alphaTincreaseFactor 3 \
	nAlphaAdjustMax      3 \
	wolfeEnergy          0.0001 \
	wolfeGradient        0.9 \
	fdTest               no
fluid-solvent H2O 55.338 ScalarEOS \
	epsBulk 78.4 \
	pMol 0.92466 \
	epsInf 1.77 \
	Pvap 1.06736e-10 \
	sigmaBulk 4.62e-05 \
	Rvdw 2.61727 \
	Res 1.42 \
	tauNuc 343133 \
	poleEl 15 7 1
forces-output-coords Positions
ion Rb   0.000000000000000   0.000000000000000   0.000000000000000 0
ion-species SG15/$ID_ONCV_PBE.upf
ion-width 0
ionic-minimize  \
	dirUpdateScheme      L-BFGS \
	linminMethod         DirUpdateRecommended \
	nIterations          0 \
	history              15 \
	knormThreshold       0.0001 \
	energyDiffThreshold  1e-06 \
	nEnergyDiff          2 \
	alphaTstart          1 \
	alphaTmin            1e-10 \
	updateTestStepSize   yes \
	alphaTreduceFactor   0.1 \
	alphaTincreaseFactor 3 \
	nAlphaAdjustMax      3 \
	wolfeEnergy          0.0001 \
	wolfeGradient        0.9 \
	fdTest               no
kpoint   0.000000000000   0.000000000000   0.000000000000  1.00000000000000
kpoint-folding 48 48 1 
latt-move-scale 1 1 1
latt-scale 0.74 0.74 1 
lattice  \
	   4.727486978767153   -2.363743489383575    0.000000000000000  \
	  -0.000000000000000    4.094123819672498    0.000000000000000  \
	   0.000000000000000    0.000000000000000   40.000000000000000 
lattice-minimize  \
	dirUpdateScheme      L-BFGS \
	linminMethod         DirUpdateRecommended \
	nIterations          0 \
	history              15 \
	knormThreshold       0 \
	energyDiffThreshold  1e-06 \
	nEnergyDiff          2 \
	alphaTstart          1 \
	alphaTmin            1e-10 \
	updateTestStepSize   yes \
	alphaTreduceFactor   0.1 \
	alphaTincreaseFactor 3 \
	nAlphaAdjustMax      3 \
	wolfeEnergy          0.0001 \
	wolfeGradient        0.9 \
	fdTest               no
lcao-params -1 1e-06 1e-05
pcm-variant GLSSA13
spintype no-spin
subspace-rotation-factor 1 yes
symmetries automatic
symmetry-threshold 0.0001



---------- Setting up symmetries ----------

Found 24 point-group symmetries of the bravais lattice
Found 24 space-group symmetries with basis
Applied RMS atom displacement 0 bohrs to make symmetries exact.

---------- Initializing the Grid ----------
R = 
[      3.49834     -1.74917            0  ]
[            0      3.02965            0  ]
[            0            0           40  ]
unit cell volume = 423.95
G =
[    1.79605    1.03695         -0  ]
[          0     2.0739         -0  ]
[         -0         -0    0.15708  ]
Minimum fftbox size, Smin = [  16  16  184  ]
Chosen fftbox size, S = [  16  16  192  ]

---------- Initializing tighter grid for wavefunction operations ----------
R = 
[      3.49834     -1.74917            0  ]
[            0      3.02965            0  ]
[            0            0           40  ]
unit cell volume = 423.95
G =
[    1.79605    1.03695         -0  ]
[          0     2.0739         -0  ]
[         -0         -0    0.15708  ]
Minimum fftbox size, Smin = [  16  16  164  ]
Chosen fftbox size, S = [  16  16  168  ]

---------- Exchange Correlation functional ----------
Initalized PBE GGA exchange.
Initalized PBE GGA correlation.

---------- Setting up pseudopotentials ----------
Width of ionic core gaussian charges (only for fluid interactions / plotting) set to 0

Reading pseudopotential file '/home/gridsan/aligho/DFT/build-Nov24/pseudopotentials/SG15/Rb_ONCV_PBE.upf':
  'Rb' pseudopotential, 'PBE' functional
  Generated using ONCVPSP code by D. R. Hamann
  Author: Martin Schlipf and Francois Gygi  Date: 150915.
  9 valence electrons, 3 orbitals, 6 projectors, 2308 radial grid points, with lMax = 2
  Transforming local potential to a uniform radial grid of dG=0.02 with 1628 points.
  Transforming nonlocal projectors to a uniform radial grid of dG=0.02 with 432 points.
    4S    l: 0   occupation:  2.0   eigenvalue: -1.172069
    4P    l: 1   occupation:  6.0   eigenvalue: -0.586674
    5S    l: 0   occupation:  1.0   eigenvalue: -0.082006
  Transforming atomic orbitals to a uniform radial grid of dG=0.02 with 432 points.
  Core radius for overlap checks: 2.60 bohrs.
  Reading pulay file /home/gridsan/aligho/DFT/build-Nov24/pseudopotentials/SG15/Rb_ONCV_PBE.pulay ... using dE_dnG = -1.360715e-05 computed for Ecut = 20.

Initialized 1 species with 1 total atoms.

Folded 1 k-points by 48x48x1 to 2304 k-points.

---------- Setting up k-points, bands, fillings ----------
Reduced to 217 k-points under symmetry. 
Computing the number of bands and number of electrons
Calculating initial fillings.
nElectrons:   9.000000   nBands: 6   nStates: 217

----- Setting up reduced wavefunction bases (one per k-point) -----
average nbasis = 1811.342 , ideal nbasis = 1811.147

---------- Setting up coulomb interaction ----------
Initialized slab truncation along lattice direction 001

---------- Setting up 2D ewald sum ----------
Optimum gaussian width for ewald sums = 1.942137 bohr.
Real space sums over 289 unit cells with max indices [  8  8  0  ]
Reciprocal space sums over 81 terms with max indices [  4  4  0  ]

---------- Allocating electronic variables ----------
Initializing wave functions:  linear combination of atomic orbitals
Note: number of bands (6) exceeds available atomic orbitals (5)
Rb pseudo-atom occupations:   s ( 2 1 )  p ( 6 )
	FillingsUpdate:  mu: -0.198154775  nElectrons: 9.000000
LCAOMinimize: Iter:   0  F: -22.5772896488942294  |grad|_K:  4.377e-04  alpha:  1.000e+00
	FillingsUpdate:  mu: -0.199122544  nElectrons: 9.000000
LCAOMinimize: Iter:   1  F: -22.5779340881513768  |grad|_K:  3.751e-05  alpha:  8.834e-01  linmin: -5.784e-02  cgtest:  1.197e+00  t[s]:      2.12
LCAOMinimize: Encountered beta<0, resetting CG.
	FillingsUpdate:  mu: -0.199295515  nElectrons: 9.000000
LCAOMinimize: Iter:   2  F: -22.5779394331830723  |grad|_K:  7.543e-07  alpha:  9.702e-01  linmin: -3.235e-02  cgtest:  7.655e-01  t[s]:      2.70
LCAOMinimize: Encountered beta<0, resetting CG.
	FillingsUpdate:  mu: -0.199298721  nElectrons: 9.000000
LCAOMinimize: Iter:   3  F: -22.5779394353944234  |grad|_K:  4.845e-09  alpha:  9.955e-01  linmin:  7.559e-04  cgtest: -2.545e-02  t[s]:      3.29
LCAOMinimize: 	Wrong curvature in test step, increasing alphaT to 2.986596e+00.
	FillingsUpdate:  mu: -0.199298683  nElectrons: 9.000000
LCAOMinimize: Iter:   4  F: -22.5779394353956242  |grad|_K:  1.572e-10  alpha: -8.904e-02  linmin:  4.433e-02  cgtest: -3.541e-01  t[s]:      3.88
LCAOMinimize: Converged (|Delta F|<1.000000e-06 for 2 iters).


---- Citations for features of the code used in this run ----

   Software package:
      R. Sundararaman, K. Letchworth-Weaver, K.A. Schwarz, D. Gunceler, Y. Ozhabes and T.A. Arias, 'JDFTx: software for joint density-functional theory', SoftwareX 6, 278 (2017)

   gga-PBE exchange-correlation functional:
      J.P. Perdew, K. Burke and M. Ernzerhof, Phys. Rev. Lett. 77, 3865 (1996)

   Pseudopotentials:
      M Schlipf and F Gygi, Comput. Phys. Commun. 196, 36 (2015)

   Truncated Coulomb potentials:
      R. Sundararaman and T.A. Arias, Phys. Rev. B 87, 165122 (2013)

   Total energy minimization with Auxiliary Hamiltonian:
      C. Freysoldt, S. Boeck, and J. Neugebauer, Phys. Rev. B 79, 241103(R) (2009)

This list may not be complete. Please suggest additional citations or
report any other bugs at https://github.com/shankar1729/jdftx/issues

Initialization completed successfully at t[s]:      3.97


-------- Electronic minimization -----------
	FillingsUpdate:  mu: -0.199298683  nElectrons: 9.000000
ElecMinimize: Iter:   0  F: -22.577939435395688  |grad|_K:  4.944e-04  alpha:  1.000e+00
[d-4-4-1:83268] 18 more processes have sent help message help-mpi-common-cuda.txt / dlopen failed
[d-4-4-1:83268] Set MCA parameter "orte_base_help_aggregate" to 0 to see all help / error messages
[d-4-4-1:83268] 18 more processes have sent help message help-mpi-btl-openib-cpc-base.txt / no cpcs for port
	FillingsUpdate:  mu: -0.199998317  nElectrons: 9.000000
	SubspaceRotationAdjust: set factor to 1
ElecMinimize: Iter:   1  F: -23.012069737828647  |grad|_K:  2.775e-04  alpha:  7.639e-01  linmin:  7.940e-04  t[s]:      5.22
	FillingsUpdate:  mu: -0.151865380  nElectrons: 9.000000
	SubspaceRotationAdjust: set factor to 1.01
ElecMinimize: Iter:   2  F: -23.121772525970435  |grad|_K:  2.772e-04  alpha:  6.378e-01  linmin:  6.354e-04  t[s]:      6.01
	FillingsUpdate:  mu: -0.113158149  nElectrons: 9.000000
	SubspaceRotationAdjust: set factor to 1.01
ElecMinimize: Iter:   3  F: -23.161522732371580  |grad|_K:  1.228e-04  alpha:  2.178e-01  linmin: -3.572e-03  t[s]:      6.80
	FillingsUpdate:  mu: -0.100061334  nElectrons: 9.000000
	SubspaceRotationAdjust: set factor to 1.05
ElecMinimize: Iter:   4  F: -23.181832138354906  |grad|_K:  1.286e-04  alpha:  4.958e-01  linmin: -4.244e-05  t[s]:      7.59
	FillingsUpdate:  mu: -0.161513164  nElectrons: 9.000000
	SubspaceRotationAdjust: set factor to 1.07
ElecMinimize: Iter:   5  F: -23.198383852232222  |grad|_K:  1.115e-04  alpha:  3.441e-01  linmin:  4.335e-04  t[s]:      8.37
	FillingsUpdate:  mu: -0.170611519  nElectrons: 9.000000
	SubspaceRotationAdjust: set factor to 1.18
ElecMinimize: Iter:   6  F: -23.202792264644199  |grad|_K:  1.041e-04  alpha:  6.744e-02  linmin: -3.706e-03  t[s]:      9.16
ElecMinimize: 	Wrong curvature in test step, increasing alphaT to 2.023342e-01.
	FillingsUpdate:  mu: -0.143772861  nElectrons: 9.000000
	SubspaceRotationAdjust: set factor to 1.44
ElecMinimize: Iter:   7  F: -23.213851871559111  |grad|_K:  1.016e-04  alpha: -2.923e-02  linmin: -7.827e-03  t[s]:      9.89
	FillingsUpdate:  mu: -0.141429092  nElectrons: 9.000000
	SubspaceRotationAdjust: set factor to 1.73
ElecMinimize: Iter:   8  F: -23.214655050212841  |grad|_K:  1.022e-04  alpha:  8.094e-03  linmin: -1.196e-02  t[s]:     10.68
ElecMinimize: 	Wrong curvature in test step, increasing alphaT to 2.428270e-02.
	FillingsUpdate:  mu: -0.133146790  nElectrons: 9.000000
	SubspaceRotationAdjust: set factor to 2.26
ElecMinimize: Iter:   9  F: -23.219135965859074  |grad|_K:  1.092e-04  alpha: -1.465e-03  linmin: -1.603e-02  t[s]:     11.40
	FillingsUpdate:  mu: -0.115701345  nElectrons: 9.000000
	SubspaceRotationAdjust: set factor to 2.12
ElecMinimize: Iter:  10  F: -23.228883311805493  |grad|_K:  1.340e-04  alpha:  1.423e-02  linmin: -2.575e-02  t[s]:     12.19
ElecMinimize: 	Wrong curvature in test step, increasing alphaT to 4.268428e-02.
	FillingsUpdate:  mu: -0.098776176  nElectrons: 9.000000
	SubspaceRotationAdjust: set factor to 3.19
ElecMinimize: Iter:  11  F: -23.245918385226634  |grad|_K:  1.123e-04  alpha: -7.801e-03  linmin: -1.819e-02  t[s]:     12.92
	FillingsUpdate:  mu: -0.084037137  nElectrons: 9.000000
	SubspaceRotationAdjust: set factor to 4.07
ElecMinimize: Iter:  12  F: -23.257631202867064  |grad|_K:  1.137e-04  alpha:  1.916e-02  linmin: -1.448e-02  t[s]:     13.71
ElecMinimize: 	Wrong curvature in test step, increasing alphaT to 5.748279e-02.
	FillingsUpdate:  mu: -0.070271767  nElectrons: 9.000000
	SubspaceRotationAdjust: set factor to 4.67
ElecMinimize: Iter:  13  F: -23.267703350454326  |grad|_K:  1.144e-04  alpha: -1.442e-02  linmin: -9.827e-03  t[s]:     14.43
	FillingsUpdate:  mu: -0.057538395  nElectrons: 9.000000
	SubspaceRotationAdjust: set factor to 4.01
ElecMinimize: Iter:  14  F: -23.272284987928373  |grad|_K:  1.839e-04  alpha:  2.076e-02  linmin: -6.445e-03  t[s]:     15.21
	FillingsUpdate:  mu: -0.059030567  nElectrons: 9.000000
	SubspaceRotationAdjust: set factor to 4.56
ElecMinimize: Iter:  15  F: -23.273475449608068  |grad|_K:  1.375e-04  alpha:  4.853e-03  linmin: -4.400e-03  t[s]:     15.99
	FillingsUpdate:  mu: -0.052561283  nElectrons: 9.000000
	SubspaceRotationAdjust: set factor to 5.07
ElecMinimize: Iter:  16  F: -23.273897661335418  |grad|_K:  1.429e-04  alpha:  2.817e-03  linmin: -5.781e-03  t[s]:     16.78
ElecMinimize: 	Step increased F by 6.284740e-05, reducing alpha to 1.858952e-04.
	FillingsUpdate:  mu: -0.052669229  nElectrons: 9.000000
	SubspaceRotationAdjust: set factor to 5.72
ElecMinimize: Iter:  17  F: -23.273967097412260  |grad|_K:  1.438e-04  alpha:  1.859e-04  linmin: -7.159e-03  t[s]:     18.05
ElecMinimize: 	Predicted alpha/alphaT>3.000000, increasing alphaT to 5.576857e-04.
ElecMinimize: 	Predicted alpha/alphaT>3.000000, increasing alphaT to 1.673057e-03.
	FillingsUpdate:  mu: -0.052791970  nElectrons: 9.000000
	SubspaceRotationAdjust: set factor to 6.54
ElecMinimize: Iter:  18  F: -23.274192394401972  |grad|_K:  1.447e-04  alpha:  8.820e-04  linmin: -7.772e-03  t[s]:     19.34
ElecMinimize: 	Step increased F by 3.188583e-04, reducing alpha to 3.994056e-05.
	FillingsUpdate:  mu: -0.052905034  nElectrons: 9.000000
	SubspaceRotationAdjust: set factor to 7.57
	SubspaceRotationAdjust: resetting CG because factor has changed by 7.5719
ElecMinimize: 	State modified externally: resetting search direction.
ElecMinimize: Iter:  19  F: -23.274214706837952  |grad|_K:  1.481e-04  alpha:  3.994e-05
ElecMinimize: 	Predicted alpha/alphaT>3.000000, increasing alphaT to 1.198217e-04.
ElecMinimize: 	Predicted alpha/alphaT>3.000000, increasing alphaT to 3.594651e-04.
ElecMinimize: 	Predicted alpha/alphaT>3.000000, increasing alphaT to 1.078395e-03.
ElecMinimize: 	Step increased F by 1.431197e-03, reducing alpha to 2.284622e-02.
	FillingsUpdate:  mu: -0.067737657  nElectrons: 9.000000
	SubspaceRotationAdjust: set factor to 8.67
ElecMinimize: Iter:  20  F: -23.277440975063239  |grad|_K:  1.326e-04  alpha:  2.285e-02  linmin: -5.670e-03  t[s]:     22.84
ElecMinimize: 	Wrong curvature in test step, increasing alphaT to 6.853865e-02.
	FillingsUpdate:  mu: -0.076060854  nElectrons: 9.000000
	SubspaceRotationAdjust: set factor to 9.73
ElecMinimize: Iter:  21  F: -23.281732983056493  |grad|_K:  1.103e-04  alpha: -5.832e-02  linmin: -6.073e-03  t[s]:     23.57
	FillingsUpdate:  mu: -0.115003519  nElectrons: 9.000000
	SubspaceRotationAdjust: set factor to 8.61
ElecMinimize: Iter:  22  F: -23.287685252592077  |grad|_K:  7.954e-05  alpha:  5.676e-02  linmin: -4.813e-03  t[s]:     24.36
	FillingsUpdate:  mu: -0.111526479  nElectrons: 9.000000
	SubspaceRotationAdjust: set factor to 11.4
ElecMinimize: Iter:  23  F: -23.288808118301311  |grad|_K:  7.258e-05  alpha:  2.614e-02  linmin: -1.612e-02  t[s]:     25.14
	FillingsUpdate:  mu: -0.105947347  nElectrons: 9.000000
	SubspaceRotationAdjust: set factor to 13.9
ElecMinimize: Iter:  24  F: -23.290925934056347  |grad|_K:  6.482e-05  alpha:  4.536e-02  linmin: -6.036e-03  t[s]:     25.92
ElecMinimize: 	Wrong curvature in test step, increasing alphaT to 1.360766e-01.
	FillingsUpdate:  mu: -0.074376010  nElectrons: 9.000000
	SubspaceRotationAdjust: set factor to 13.7
ElecMinimize: Iter:  25  F: -23.294937061719597  |grad|_K:  6.886e-05  alpha: -3.985e-02  linmin: -3.902e-03  t[s]:     26.65
	FillingsUpdate:  mu: -0.074267866  nElectrons: 9.000000
	SubspaceRotationAdjust: set factor to 16.7
ElecMinimize: Iter:  26  F: -23.296272195829179  |grad|_K:  7.016e-05  alpha:  1.887e-02  linmin: -1.451e-02  t[s]:     27.43
	FillingsUpdate:  mu: -0.067070573  nElectrons: 9.000000
	SubspaceRotationAdjust: set factor to 20
ElecMinimize: Iter:  27  F: -23.297179558239122  |grad|_K:  7.682e-05  alpha:  2.387e-02  linmin: -8.806e-03  t[s]:     28.21
ElecMinimize: 	Step increased F by 4.163375e-03, reducing alpha to 6.448784e-03.
	FillingsUpdate:  mu: -0.070492753  nElectrons: 9.000000
	SubspaceRotationAdjust: set factor to 25.4
ElecMinimize: Iter:  28  F: -23.297812490853069  |grad|_K:  7.517e-05  alpha:  6.449e-03  linmin: -5.418e-03  t[s]:     29.49
ElecMinimize: 	Wrong curvature in test step, increasing alphaT to 1.934635e-02.
	FillingsUpdate:  mu: -0.083314114  nElectrons: 9.000000
	SubspaceRotationAdjust: set factor to 31.2
ElecMinimize: Iter:  29  F: -23.299110556307863  |grad|_K:  8.067e-05  alpha: -5.747e-03  linmin: -4.637e-03  t[s]:     30.21
	FillingsUpdate:  mu: -0.144156745  nElectrons: 9.000000
	SubspaceRotationAdjust: set factor to 20.5
ElecMinimize: Iter:  30  F: -23.300527686922912  |grad|_K:  1.246e-04  alpha:  2.352e-02  linmin: -2.425e-03  t[s]:     31.00
	FillingsUpdate:  mu: -0.166368260  nElectrons: 9.000000
	SubspaceRotationAdjust: set factor to 10.5
ElecMinimize: Iter:  31  F: -23.301375051272387  |grad|_K:  4.532e-04  alpha:  5.778e-03  linmin:  8.273e-03  t[s]:     31.80
ElecMinimize: 	Bad step direction: g.d > 0.
ElecMinimize: 	Undoing step.
ElecMinimize: 	Step failed: resetting search direction.
	FillingsUpdate:  mu: -0.166368260  nElectrons: 9.000000
	SubspaceRotationAdjust: set factor to 5.44
ElecMinimize: Iter:  32  F: -23.301375051272387  |grad|_K:  3.268e-04  alpha:  0.000e+00
	FillingsUpdate:  mu: -0.146033135  nElectrons: 9.000000
	SubspaceRotationAdjust: set factor to 6.34
ElecMinimize: Iter:  33  F: -23.302487878368204  |grad|_K:  8.189e-05  alpha:  5.072e-03  linmin: -2.433e-03  t[s]:     33.11
ElecMinimize: 	Wrong curvature in test step, increasing alphaT to 1.521731e-02.
	FillingsUpdate:  mu: -0.139840626  nElectrons: 9.000000
	SubspaceRotationAdjust: set factor to 7.5
ElecMinimize: Iter:  34  F: -23.303188854449179  |grad|_K:  7.992e-05  alpha: -8.523e-04  linmin: -3.382e-03  t[s]:     33.82
	FillingsUpdate:  mu: -0.057391406  nElectrons: 9.000000
	SubspaceRotationAdjust: set factor to 5.18
ElecMinimize: Iter:  35  F: -23.306279681213226  |grad|_K:  7.204e-05  alpha:  1.010e-01  linmin:  3.045e-05  t[s]:     34.61
	FillingsUpdate:  mu: -0.047640940  nElectrons: 9.000000
	SubspaceRotationAdjust: set factor to 4.72
ElecMinimize: Iter:  36  F: -23.306783599216850  |grad|_K:  7.167e-05  alpha:  6.744e-02  linmin: -7.079e-03  t[s]:     35.39
ElecMinimize: 	Wrong curvature in test step, increasing alphaT to 2.023136e-01.
	FillingsUpdate:  mu: -0.067278653  nElectrons: 9.000000
	SubspaceRotationAdjust: set factor to 6.98
ElecMinimize: Iter:  37  F: -23.310382392872022  |grad|_K:  5.644e-05  alpha: -1.170e-01  linmin: -6.025e-03  t[s]:     36.11
	FillingsUpdate:  mu: -0.071405300  nElectrons: 9.000000
	SubspaceRotationAdjust: set factor to 9.22
ElecMinimize: Iter:  38  F: -23.310954224089976  |grad|_K:  5.671e-05  alpha:  1.250e-02  linmin: -4.430e-03  t[s]:     36.90
ElecMinimize: 	Wrong curvature in test step, increasing alphaT to 3.750901e-02.
	FillingsUpdate:  mu: -0.077234542  nElectrons: 9.000000
	SubspaceRotationAdjust: set factor to 12.3
ElecMinimize: Iter:  39  F: -23.311868396388743  |grad|_K:  5.398e-05  alpha: -1.136e-02  linmin: -3.692e-03  t[s]:     37.62
	FillingsUpdate:  mu: -0.092237026  nElectrons: 9.000000
	SubspaceRotationAdjust: set factor to 14.4
ElecMinimize: Iter:  40  F: -23.312826501395396  |grad|_K:  4.636e-05  alpha:  1.108e-02  linmin: -2.960e-03  t[s]:     38.41
ElecMinimize: 	Wrong curvature in test step, increasing alphaT to 3.323914e-02.
	FillingsUpdate:  mu: -0.099748608  nElectrons: 9.000000
	SubspaceRotationAdjust: set factor to 14.6
ElecMinimize: Iter:  41  F: -23.313397759272846  |grad|_K:  4.383e-05  alpha: -3.635e-02  linmin: -2.690e-03  t[s]:     39.14
	FillingsUpdate:  mu: -0.104692438  nElectrons: 9.000000
	SubspaceRotationAdjust: set factor to 16.1
ElecMinimize: Iter:  42  F: -23.313965210642049  |grad|_K:  4.666e-05  alpha:  1.245e-02  linmin: -3.393e-03  t[s]:     39.93
	FillingsUpdate:  mu: -0.116132129  nElectrons: 9.000000
	SubspaceRotationAdjust: set factor to 14.3
ElecMinimize: Iter:  43  F: -23.314201072294242  |grad|_K:  6.091e-05  alpha:  9.392e-03  linmin: -3.273e-03  t[s]:     40.71
	FillingsUpdate:  mu: -0.129490199  nElectrons: 9.000000
	SubspaceRotationAdjust: set factor to 10.8
ElecMinimize: Iter:  44  F: -23.315147317053867  |grad|_K:  6.520e-05  alpha:  1.759e-02  linmin: -7.449e-03  t[s]:     41.49
ElecMinimize: 	Predicted alpha/alphaT>3.000000, increasing alphaT to 5.275926e-02.
	FillingsUpdate:  mu: -0.116670606  nElectrons: 9.000000
	SubspaceRotationAdjust: set factor to 5.52
ElecMinimize: Iter:  45  F: -23.317670670536398  |grad|_K:  2.923e-04  alpha:  4.646e-02  linmin:  3.641e-02  t[s]:     42.52
ElecMinimize: 	Bad step direction: g.d > 0.
ElecMinimize: 	Undoing step.
ElecMinimize: 	Step failed: resetting search direction.
	FillingsUpdate:  mu: -0.116670606  nElectrons: 9.000000
	SubspaceRotationAdjust: set factor to 2.89
ElecMinimize: Iter:  46  F: -23.317670670536412  |grad|_K:  2.115e-04  alpha:  0.000e+00
	FillingsUpdate:  mu: -0.109994690  nElectrons: 9.000000
	SubspaceRotationAdjust: set factor to 4.54
ElecMinimize: Iter:  47  F: -23.318677179367402  |grad|_K:  4.531e-05  alpha:  2.770e-02  linmin: -3.361e-03  t[s]:     43.84
ElecMinimize: 	Wrong curvature in test step, increasing alphaT to 8.311256e-02.
	FillingsUpdate:  mu: -0.110614217  nElectrons: 9.000000
	SubspaceRotationAdjust: set factor to 5.55
ElecMinimize: Iter:  48  F: -23.319061997566923  |grad|_K:  4.366e-05  alpha: -3.989e-02  linmin: -5.627e-03  t[s]:     44.57
	FillingsUpdate:  mu: -0.098377041  nElectrons: 9.000000
	SubspaceRotationAdjust: set factor to 7.37
ElecMinimize: Iter:  49  F: -23.320920758876152  |grad|_K:  2.720e-05  alpha:  7.023e-02  linmin: -4.010e-03  t[s]:     45.37
ElecMinimize: 	Wrong curvature in test step, increasing alphaT to 2.106783e-01.
	FillingsUpdate:  mu: -0.092992765  nElectrons: 9.000000
	SubspaceRotationAdjust: set factor to 7
ElecMinimize: Iter:  50  F: -23.321455350816489  |grad|_K:  2.280e-05  alpha: -6.212e-01  linmin: -3.306e-03  t[s]:     46.09
	FillingsUpdate:  mu: -0.092150251  nElectrons: 9.000000
	SubspaceRotationAdjust: set factor to 7.29
ElecMinimize: Iter:  51  F: -23.321614022243786  |grad|_K:  2.291e-05  alpha:  3.236e-02  linmin: -7.948e-03  t[s]:     46.87
ElecMinimize: 	Predicted alpha/alphaT>3.000000, increasing alphaT to 9.707580e-02.
	FillingsUpdate:  mu: -0.093530400  nElectrons: 9.000000
	SubspaceRotationAdjust: set factor to 5.22
ElecMinimize: Iter:  52  F: -23.321991742046521  |grad|_K:  4.001e-05  alpha:  7.701e-02  linmin:  7.791e-03  t[s]:     47.91
ElecMinimize: 	Bad step direction: g.d > 0.
ElecMinimize: 	Undoing step.
ElecMinimize: 	Step failed: resetting search direction.
	FillingsUpdate:  mu: -0.093530400  nElectrons: 9.000000
	SubspaceRotationAdjust: set factor to 4.19
ElecMinimize: Iter:  53  F: -23.321991742046521  |grad|_K:  3.581e-05  alpha:  0.000e+00
	FillingsUpdate:  mu: -0.094799918  nElectrons: 9.000000
	SubspaceRotationAdjust: set factor to 5.04
ElecMinimize: Iter:  54  F: -23.322266503292887  |grad|_K:  2.108e-05  alpha:  8.503e-02  linmin: -7.679e-03  t[s]:     49.23
ElecMinimize: 	Wrong curvature in test step, increasing alphaT to 2.550764e-01.
	FillingsUpdate:  mu: -0.095828542  nElectrons: 9.000000
	SubspaceRotationAdjust: set factor to 5.24
ElecMinimize: Iter:  55  F: -23.322554456823703  |grad|_K:  1.893e-05  alpha: -2.917e-01  linmin: -1.132e-02  t[s]:     49.95
	FillingsUpdate:  mu: -0.104969228  nElectrons: 9.000000
	SubspaceRotationAdjust: set factor to 5.03
ElecMinimize: Iter:  56  F: -23.323263569767100  |grad|_K:  1.951e-05  alpha:  2.549e-01  linmin: -9.738e-03  t[s]:     50.73
	FillingsUpdate:  mu: -0.103659766  nElectrons: 9.000000
	SubspaceRotationAdjust: set factor to 2.6
ElecMinimize: Iter:  57  F: -23.324183628061014  |grad|_K:  8.588e-05  alpha:  4.612e-01  linmin:  1.351e-02  t[s]:     51.51
ElecMinimize: 	Bad step direction: g.d > 0.
ElecMinimize: 	Undoing step.
ElecMinimize: 	Step failed: resetting search direction.
	FillingsUpdate:  mu: -0.103659766  nElectrons: 9.000000
	SubspaceRotationAdjust: set factor to 1.38
ElecMinimize: Iter:  58  F: -23.324183628061014  |grad|_K:  6.261e-05  alpha:  0.000e+00
	FillingsUpdate:  mu: -0.105613297  nElectrons: 9.000000
	SubspaceRotationAdjust: set factor to 1.89
ElecMinimize: Iter:  59  F: -23.324710518507672  |grad|_K:  6.963e-06  alpha:  2.442e-01  linmin: -1.064e-02  t[s]:     52.84
ElecMinimize: 	Predicted alpha/alphaT>3.000000, increasing alphaT to 7.325337e-01.
	FillingsUpdate:  mu: -0.109783939  nElectrons: 9.000000
	SubspaceRotationAdjust: set factor to 1.83
ElecMinimize: Iter:  60  F: -23.324900085434983  |grad|_K:  1.315e-05  alpha:  1.848e+00  linmin:  3.956e-04  t[s]:     53.88
	FillingsUpdate:  mu: -0.110700874  nElectrons: 9.000000
	SubspaceRotationAdjust: set factor to 2.35
ElecMinimize: Iter:  61  F: -23.325029351993702  |grad|_K:  8.553e-06  alpha:  2.027e-01  linmin: -2.011e-02  t[s]:     54.66
	FillingsUpdate:  mu: -0.112698439  nElectrons: 9.000000
	SubspaceRotationAdjust: set factor to 3.05
ElecMinimize: Iter:  62  F: -23.325120274632326  |grad|_K:  6.913e-06  alpha:  2.820e-01  linmin: -2.943e-05  t[s]:     55.45
ElecMinimize: 	Wrong curvature in test step, increasing alphaT to 8.458904e-01.
	FillingsUpdate:  mu: -0.112065481  nElectrons: 9.000000
	SubspaceRotationAdjust: set factor to 2.95
ElecMinimize: Iter:  63  F: -23.325230768211153  |grad|_K:  6.650e-06  alpha: -1.924e-01  linmin: -2.119e-03  t[s]:     56.17
	FillingsUpdate:  mu: -0.114085063  nElectrons: 9.000000
	SubspaceRotationAdjust: set factor to 3.05
ElecMinimize: Iter:  64  F: -23.325335456289746  |grad|_K:  8.669e-06  alpha:  2.027e-01  linmin: -5.331e-02  t[s]:     56.95
	FillingsUpdate:  mu: -0.114703311  nElectrons: 9.000000
	SubspaceRotationAdjust: set factor to 3.51
ElecMinimize: Iter:  65  F: -23.325491430275893  |grad|_K:  9.233e-06  alpha:  1.041e-01  linmin: -6.313e-02  t[s]:     57.74
ElecMinimize: 	Wrong curvature in test step, increasing alphaT to 3.122693e-01.
	FillingsUpdate:  mu: -0.115044601  nElectrons: 9.000000
	SubspaceRotationAdjust: set factor to 4.07
ElecMinimize: Iter:  66  F: -23.325733431392493  |grad|_K:  1.032e-05  alpha: -1.059e+00  linmin: -5.896e-02  t[s]:     58.47
	FillingsUpdate:  mu: -0.116884944  nElectrons: 9.000000
	SubspaceRotationAdjust: set factor to 4.3
ElecMinimize: Iter:  67  F: -23.326023111993791  |grad|_K:  9.118e-06  alpha:  2.088e-01  linmin: -7.544e-03  t[s]:     59.26
	FillingsUpdate:  mu: -0.117148921  nElectrons: 9.000000
	SubspaceRotationAdjust: set factor to 4.59
ElecMinimize: Iter:  68  F: -23.326049209962530  |grad|_K:  6.946e-06  alpha:  7.980e-02  linmin:  8.418e-04  t[s]:     60.05
	FillingsUpdate:  mu: -0.117141975  nElectrons: 9.000000
	SubspaceRotationAdjust: set factor to 5.18
ElecMinimize: Iter:  69  F: -23.326054626458308  |grad|_K:  5.285e-06  alpha:  5.017e-02  linmin:  1.381e-05  t[s]:     60.84
	FillingsUpdate:  mu: -0.117040344  nElectrons: 9.000000
	SubspaceRotationAdjust: set factor to 6.07
ElecMinimize: Iter:  70  F: -23.326057930194310  |grad|_K:  3.999e-06  alpha:  5.011e-02  linmin:  5.015e-06  t[s]:     61.63
ElecMinimize: 	Wrong curvature in test step, increasing alphaT to 1.503193e-01.
	FillingsUpdate:  mu: -0.117126795  nElectrons: 9.000000
	SubspaceRotationAdjust: set factor to 6.8
ElecMinimize: Iter:  71  F: -23.326085330314367  |grad|_K:  3.745e-06  alpha: -4.016e-03  linmin: -2.699e-03  t[s]:     62.35
	FillingsUpdate:  mu: -0.117544963  nElectrons: 9.000000
	SubspaceRotationAdjust: set factor to 7.26
ElecMinimize: Iter:  72  F: -23.326090159110052  |grad|_K:  3.693e-06  alpha:  2.364e-02  linmin: -5.059e-03  t[s]:     63.14
ElecMinimize: 	Predicted alpha/alphaT>3.000000, increasing alphaT to 7.092384e-02.
	FillingsUpdate:  mu: -0.116565010  nElectrons: 9.000000
	SubspaceRotationAdjust: set factor to 6.94
ElecMinimize: Iter:  73  F: -23.326095567886377  |grad|_K:  4.310e-06  alpha:  8.310e-02  linmin: -1.829e-04  t[s]:     64.18
	FillingsUpdate:  mu: -0.116344013  nElectrons: 9.000000
	SubspaceRotationAdjust: set factor to 7.81
ElecMinimize: Iter:  74  F: -23.326097706023674  |grad|_K:  5.083e-06  alpha:  3.835e-02  linmin: -7.961e-04  t[s]:     64.99
ElecMinimize: 	Step increased F by 6.895308e-06, reducing alpha to 5.905075e-03.
	FillingsUpdate:  mu: -0.116317095  nElectrons: 9.000000
	SubspaceRotationAdjust: set factor to 9.29
ElecMinimize: Iter:  75  F: -23.326098540309246  |grad|_K:  5.242e-06  alpha:  5.905e-03  linmin: -4.393e-03  t[s]:     66.28
ElecMinimize: 	Predicted alpha/alphaT>3.000000, increasing alphaT to 1.771522e-02.
ElecMinimize: 	Predicted alpha/alphaT>3.000000, increasing alphaT to 5.314567e-02.
	FillingsUpdate:  mu: -0.116215692  nElectrons: 9.000000
	SubspaceRotationAdjust: set factor to 10.5
ElecMinimize: Iter:  76  F: -23.326102599594662  |grad|_K:  6.350e-06  alpha:  1.108e-01  linmin: -7.447e-05  t[s]:     67.57
	FillingsUpdate:  mu: -0.116204557  nElectrons: 9.000000
	SubspaceRotationAdjust: set factor to 12.1
ElecMinimize: Iter:  77  F: -23.326105915797950  |grad|_K:  6.596e-06  alpha:  2.766e-02  linmin: -5.728e-04  t[s]:     68.36
ElecMinimize: 	Wrong curvature in test step, increasing alphaT to 8.297809e-02.
	FillingsUpdate:  mu: -0.116134411  nElectrons: 9.000000
	SubspaceRotationAdjust: set factor to 13.7
ElecMinimize: Iter:  78  F: -23.326121880903681  |grad|_K:  6.558e-06  alpha: -1.112e-02  linmin: -6.828e-04  t[s]:     69.08
	FillingsUpdate:  mu: -0.116088343  nElectrons: 9.000000
	SubspaceRotationAdjust: set factor to 15.6
ElecMinimize: Iter:  79  F: -23.326123682356101  |grad|_K:  6.475e-06  alpha:  7.634e-03  linmin: -2.037e-03  t[s]:     69.87
ElecMinimize: 	Predicted alpha/alphaT>3.000000, increasing alphaT to 2.290077e-02.
	FillingsUpdate:  mu: -0.115784070  nElectrons: 9.000000
	SubspaceRotationAdjust: set factor to 17.3
ElecMinimize: Iter:  80  F: -23.326125986240754  |grad|_K:  5.810e-06  alpha:  3.550e-02  linmin: -2.387e-04  t[s]:     70.91
	FillingsUpdate:  mu: -0.115757603  nElectrons: 9.000000
	SubspaceRotationAdjust: set factor to 20.7
ElecMinimize: Iter:  81  F: -23.326126432329012  |grad|_K:  5.814e-06  alpha:  2.680e-03  linmin: -1.781e-03  t[s]:     71.70
ElecMinimize: 	Predicted alpha/alphaT>3.000000, increasing alphaT to 8.038546e-03.
ElecMinimize: 	Predicted alpha/alphaT>3.000000, increasing alphaT to 2.411564e-02.
	FillingsUpdate:  mu: -0.115380604  nElectrons: 9.000000
	SubspaceRotationAdjust: set factor to 24.8
ElecMinimize: Iter:  82  F: -23.326130781835104  |grad|_K:  5.261e-06  alpha:  2.799e-02  linmin:  2.213e-04  t[s]:     72.99
ElecMinimize: 	Wrong curvature in test step, increasing alphaT to 8.396465e-02.
	FillingsUpdate:  mu: -0.115445211  nElectrons: 9.000000
	SubspaceRotationAdjust: set factor to 27.8
ElecMinimize: Iter:  83  F: -23.326134640887922  |grad|_K:  5.611e-06  alpha: -7.174e-02  linmin:  2.953e-03  t[s]:     73.71
ElecMinimize: 	Bad step direction: g.d > 0.
ElecMinimize: 	Undoing step.
ElecMinimize: 	Step failed: resetting search direction.
	FillingsUpdate:  mu: -0.115445211  nElectrons: 9.000000
	SubspaceRotationAdjust: set factor to 29.3
ElecMinimize: Iter:  84  F: -23.326134640887922  |grad|_K:  5.762e-06  alpha:  0.000e+00
	FillingsUpdate:  mu: -0.115102891  nElectrons: 9.000000
	SubspaceRotationAdjust: set factor to 29.2
ElecMinimize: Iter:  85  F: -23.326138882989675  |grad|_K:  3.980e-06  alpha:  3.722e-02  linmin: -3.115e-03  t[s]:     75.04
ElecMinimize: 	Predicted alpha/alphaT>3.000000, increasing alphaT to 1.116727e-01.
ElecMinimize: 	Step increased F by 2.437231e-06, reducing alpha to 2.133785e-02.
	FillingsUpdate:  mu: -0.115188287  nElectrons: 9.000000
	SubspaceRotationAdjust: set factor to 29.4
ElecMinimize: Iter:  86  F: -23.326141143600118  |grad|_K:  3.908e-06  alpha:  2.134e-02  linmin: -5.773e-03  t[s]:     76.57
ElecMinimize: 	Predicted alpha/alphaT>3.000000, increasing alphaT to 6.401356e-02.
ElecMinimize: 	Predicted alpha/alphaT>3.000000, increasing alphaT to 1.920407e-01.
	FillingsUpdate:  mu: -0.116794769  nElectrons: 9.000000
	SubspaceRotationAdjust: set factor to 18.2
ElecMinimize: Iter:  87  F: -23.326155223513194  |grad|_K:  7.083e-06  alpha:  1.774e-01  linmin: -5.712e-03  t[s]:     77.86
	FillingsUpdate:  mu: -0.115755847  nElectrons: 9.000000
	SubspaceRotationAdjust: set factor to 28.1
ElecMinimize: Iter:  88  F: -23.326167641165100  |grad|_K:  3.935e-06  alpha:  1.975e-02  linmin: -4.094e-03  t[s]:     78.64
ElecMinimize: 	Predicted alpha/alphaT>3.000000, increasing alphaT to 5.925918e-02.
	FillingsUpdate:  mu: -0.113032619  nElectrons: 9.000000
	SubspaceRotationAdjust: set factor to 20.2
ElecMinimize: Iter:  89  F: -23.326170526107003  |grad|_K:  6.015e-06  alpha:  6.790e-02  linmin: -8.219e-05  t[s]:     79.67
	FillingsUpdate:  mu: -0.112693903  nElectrons: 9.000000
	SubspaceRotationAdjust: set factor to 12.3
ElecMinimize: Iter:  90  F: -23.326174044504342  |grad|_K:  7.737e-06  alpha:  3.556e-02  linmin: -3.504e-04  t[s]:     80.45
ElecMinimize: 	Step increased F by 4.909552e-05, reducing alpha to 5.608222e-03.
	FillingsUpdate:  mu: -0.112774298  nElectrons: 9.000000
	SubspaceRotationAdjust: set factor to 8.25
ElecMinimize: Iter:  91  F: -23.326175599389053  |grad|_K:  6.333e-06  alpha:  5.608e-03  linmin: -3.390e-03  t[s]:     81.73
ElecMinimize: 	Predicted alpha/alphaT>3.000000, increasing alphaT to 1.682467e-02.
ElecMinimize: 	Wrong curvature in test step, increasing alphaT to 5.047400e-02.
	FillingsUpdate:  mu: -0.114232047  nElectrons: 9.000000
	SubspaceRotationAdjust: set factor to 7.6
ElecMinimize: Iter:  92  F: -23.326182923601234  |grad|_K:  4.401e-06  alpha: -3.960e-02  linmin: -3.248e-03  t[s]:     82.72
	FillingsUpdate:  mu: -0.114411626  nElectrons: 9.000000
	SubspaceRotationAdjust: set factor to 8.48
ElecMinimize: Iter:  93  F: -23.326184731506348  |grad|_K:  3.871e-06  alpha:  9.289e-03  linmin: -4.441e-03  t[s]:     83.51
ElecMinimize: 	Wrong curvature in test step, increasing alphaT to 2.786686e-02.
	FillingsUpdate:  mu: -0.115142159  nElectrons: 9.000000
	SubspaceRotationAdjust: set factor to 11.6
ElecMinimize: Iter:  94  F: -23.326187175466949  |grad|_K:  3.383e-06  alpha: -1.854e-02  linmin: -5.319e-03  t[s]:     84.23
	FillingsUpdate:  mu: -0.115416628  nElectrons: 9.000000
	SubspaceRotationAdjust: set factor to 14.6
ElecMinimize: Iter:  95  F: -23.326189840326968  |grad|_K:  2.796e-06  alpha:  1.725e-02  linmin: -6.011e-03  t[s]:     85.02
ElecMinimize: 	Predicted alpha/alphaT>3.000000, increasing alphaT to 5.174779e-02.
	FillingsUpdate:  mu: -0.115608792  nElectrons: 9.000000
	SubspaceRotationAdjust: set factor to 16.3
ElecMinimize: Iter:  96  F: -23.326192036487349  |grad|_K:  2.512e-06  alpha:  2.156e-02  linmin: -7.175e-03  t[s]:     86.06
ElecMinimize: 	Predicted alpha/alphaT>3.000000, increasing alphaT to 6.469418e-02.
	FillingsUpdate:  mu: -0.115655364  nElectrons: 9.000000
	SubspaceRotationAdjust: set factor to 18.8
ElecMinimize: Iter:  97  F: -23.326194176617541  |grad|_K:  2.595e-06  alpha:  2.688e-02  linmin: -4.491e-03  t[s]:     87.10
ElecMinimize: 	Predicted alpha/alphaT>3.000000, increasing alphaT to 8.062974e-02.
	FillingsUpdate:  mu: -0.114741826  nElectrons: 9.000000
	SubspaceRotationAdjust: set factor to 13.3
ElecMinimize: Iter:  98  F: -23.326198194392951  |grad|_K:  3.815e-06  alpha:  7.990e-02  linmin: -4.950e-04  t[s]:     88.14
	FillingsUpdate:  mu: -0.114695442  nElectrons: 9.000000
	SubspaceRotationAdjust: set factor to 11.2
ElecMinimize: Iter:  99  F: -23.326199098817963  |grad|_K:  3.661e-06  alpha:  1.345e-02  linmin: -1.234e-03  t[s]:     88.92
	FillingsUpdate:  mu: -0.114805311  nElectrons: 9.000000
	SubspaceRotationAdjust: set factor to 16.9
ElecMinimize: Iter: 100  F: -23.326200920989066  |grad|_K:  3.635e-06  alpha:  3.611e-02  linmin:  5.920e-05  t[s]:     89.71
	FillingsUpdate:  mu: -0.114816876  nElectrons: 9.000000
	SubspaceRotationAdjust: set factor to 21.3
ElecMinimize: Iter: 101  F: -23.326200999327735  |grad|_K:  3.857e-06  alpha:  1.344e-03  linmin: -1.241e-03  t[s]:     90.51
ElecMinimize: 	Predicted alpha/alphaT>3.000000, increasing alphaT to 4.031939e-03.
ElecMinimize: 	Predicted alpha/alphaT>3.000000, increasing alphaT to 1.209582e-02.
ElecMinimize: 	Step increased F by 2.547601e-05, reducing alpha to 2.680925e-03.
	FillingsUpdate:  mu: -0.114864742  nElectrons: 9.000000
	SubspaceRotationAdjust: set factor to 28.8
ElecMinimize: Iter: 102  F: -23.326201341020031  |grad|_K:  3.864e-06  alpha:  2.681e-03  linmin: -1.636e-03  t[s]:     92.31
ElecMinimize: 	Predicted alpha/alphaT>3.000000, increasing alphaT to 8.042774e-03.
ElecMinimize: 	Step increased F by 2.548814e-05, reducing alpha to 2.388781e-03.
	FillingsUpdate:  mu: -0.114929925  nElectrons: 9.000000
	SubspaceRotationAdjust: set factor to 38.5
ElecMinimize: Iter: 103  F: -23.326201777736792  |grad|_K:  3.808e-06  alpha:  2.389e-03  linmin: -1.655e-03  t[s]:     93.83
ElecMinimize: 	Predicted alpha/alphaT>3.000000, increasing alphaT to 7.166342e-03.
ElecMinimize: 	Predicted alpha/alphaT>3.000000, increasing alphaT to 2.149903e-02.
	FillingsUpdate:  mu: -0.115935586  nElectrons: 9.000000
	SubspaceRotationAdjust: set factor to 27.6
ElecMinimize: Iter: 104  F: -23.326203754019197  |grad|_K:  4.030e-06  alpha:  1.506e-02  linmin:  7.839e-05  t[s]:     95.13
	FillingsUpdate:  mu: -0.116016724  nElectrons: 9.000000
	SubspaceRotationAdjust: set factor to 22.8
ElecMinimize: Iter: 105  F: -23.326203889162329  |grad|_K:  4.370e-06  alpha:  3.738e-03  linmin: -5.953e-05  t[s]:     95.91
	FillingsUpdate:  mu: -0.116124194  nElectrons: 9.000000
	SubspaceRotationAdjust: set factor to 15
ElecMinimize: Iter: 106  F: -23.326204210324661  |grad|_K:  5.119e-06  alpha:  6.708e-03  linmin:  4.816e-05  t[s]:     96.70
	FillingsUpdate:  mu: -0.116192440  nElectrons: 9.000000
	SubspaceRotationAdjust: set factor to 9.32
ElecMinimize: Iter: 107  F: -23.326204558810524  |grad|_K:  4.995e-06  alpha:  5.863e-03  linmin:  1.014e-05  t[s]:     97.48
	FillingsUpdate:  mu: -0.116218094  nElectrons: 9.000000
	SubspaceRotationAdjust: set factor to 5.81
ElecMinimize: Iter: 108  F: -23.326205026544692  |grad|_K:  4.374e-06  alpha:  7.998e-03  linmin:  1.210e-05  t[s]:     98.27
	FillingsUpdate:  mu: -0.116188918  nElectrons: 9.000000
	SubspaceRotationAdjust: set factor to 4.06
ElecMinimize: Iter: 109  F: -23.326205501229886  |grad|_K:  3.558e-06  alpha:  1.059e-02  linmin:  2.068e-05  t[s]:     99.06
	FillingsUpdate:  mu: -0.116121399  nElectrons: 9.000000
	SubspaceRotationAdjust: set factor to 3.74
ElecMinimize: Iter: 110  F: -23.326205897414980  |grad|_K:  3.000e-06  alpha:  1.345e-02  linmin:  2.777e-05  t[s]:     99.85
	FillingsUpdate:  mu: -0.116036881  nElectrons: 9.000000
	SubspaceRotationAdjust: set factor to 4.73
ElecMinimize: Iter: 111  F: -23.326206210617496  |grad|_K:  2.801e-06  alpha:  1.504e-02  linmin:  2.558e-05  t[s]:    100.64
	FillingsUpdate:  mu: -0.115875558  nElectrons: 9.000000
	SubspaceRotationAdjust: set factor to 6.63
ElecMinimize: Iter: 112  F: -23.326206500673866  |grad|_K:  2.823e-06  alpha:  1.549e-02  linmin: -5.768e-04  t[s]:    101.42
	FillingsUpdate:  mu: -0.115439241  nElectrons: 9.000000
	SubspaceRotationAdjust: set factor to 8.69
ElecMinimize: Iter: 113  F: -23.326206593156396  |grad|_K:  2.845e-06  alpha:  7.655e-03  linmin: -6.273e-06  t[s]:    102.20
	FillingsUpdate:  mu: -0.115326449  nElectrons: 9.000000
	SubspaceRotationAdjust: set factor to 10
ElecMinimize: Iter: 114  F: -23.326206795166446  |grad|_K:  2.929e-06  alpha:  1.055e-02  linmin:  1.234e-05  t[s]:    102.99
	FillingsUpdate:  mu: -0.115223583  nElectrons: 9.000000
	SubspaceRotationAdjust: set factor to 10.1
ElecMinimize: Iter: 115  F: -23.326206993311636  |grad|_K:  2.998e-06  alpha:  9.925e-03  linmin: -1.486e-05  t[s]:    103.78
	FillingsUpdate:  mu: -0.115132116  nElectrons: 9.000000
	SubspaceRotationAdjust: set factor to 9.61
ElecMinimize: Iter: 116  F: -23.326207218679933  |grad|_K:  2.888e-06  alpha:  1.042e-02  linmin: -3.039e-05  t[s]:    104.57
	FillingsUpdate:  mu: -0.115076430  nElectrons: 9.000000
	SubspaceRotationAdjust: set factor to 9.3
ElecMinimize: Iter: 117  F: -23.326207435404481  |grad|_K:  2.628e-06  alpha:  1.067e-02  linmin: -4.235e-05  t[s]:    105.37
	FillingsUpdate:  mu: -0.115063067  nElectrons: 9.000000
	SubspaceRotationAdjust: set factor to 9.11
ElecMinimize: Iter: 118  F: -23.326207631793494  |grad|_K:  2.369e-06  alpha:  1.156e-02  linmin: -7.849e-05  t[s]:    106.15
	FillingsUpdate:  mu: -0.115091819  nElectrons: 9.000000
	SubspaceRotationAdjust: set factor to 8.78
ElecMinimize: Iter: 119  F: -23.326207831074864  |grad|_K:  2.143e-06  alpha:  1.403e-02  linmin: -1.201e-04  t[s]:    106.94
ElecMinimize: 	Wrong curvature in test step, increasing alphaT to 4.208682e-02.
	FillingsUpdate:  mu: -0.115690816  nElectrons: 9.000000
	SubspaceRotationAdjust: set factor to 8.96
ElecMinimize: Iter: 120  F: -23.326208229017187  |grad|_K:  1.936e-06  alpha: -3.225e-02  linmin: -2.969e-04  t[s]:    107.67
	FillingsUpdate:  mu: -0.115694293  nElectrons: 9.000000
	SubspaceRotationAdjust: set factor to 9.09
ElecMinimize: Iter: 121  F: -23.326208244901718  |grad|_K:  1.935e-06  alpha:  7.499e-04  linmin: -1.338e-03  t[s]:    108.46
ElecMinimize: 	Predicted alpha/alphaT>3.000000, increasing alphaT to 2.249676e-03.
ElecMinimize: 	Predicted alpha/alphaT>3.000000, increasing alphaT to 6.749027e-03.
ElecMinimize: 	Predicted alpha/alphaT>3.000000, increasing alphaT to 2.024708e-02.
	FillingsUpdate:  mu: -0.115800945  nElectrons: 9.000000
	SubspaceRotationAdjust: set factor to 13.1
ElecMinimize: Iter: 122  F: -23.326208882363176  |grad|_K:  1.490e-06  alpha:  3.279e-02  linmin: -3.328e-05  t[s]:    109.75
	FillingsUpdate:  mu: -0.115809508  nElectrons: 9.000000
	SubspaceRotationAdjust: set factor to 15.5
ElecMinimize: Iter: 123  F: -23.326209007206018  |grad|_K:  1.474e-06  alpha:  2.273e-02  linmin:  1.167e-06  t[s]:    110.53
	FillingsUpdate:  mu: -0.115763801  nElectrons: 9.000000
	SubspaceRotationAdjust: set factor to 17.9
ElecMinimize: Iter: 124  F: -23.326209106047447  |grad|_K:  1.507e-06  alpha:  1.916e-02  linmin:  1.142e-05  t[s]:    111.32
	FillingsUpdate:  mu: -0.115665267  nElectrons: 9.000000
	SubspaceRotationAdjust: set factor to 21.4
ElecMinimize: Iter: 125  F: -23.326209204102788  |grad|_K:  1.683e-06  alpha:  1.845e-02  linmin:  1.420e-05  t[s]:    112.10
	FillingsUpdate:  mu: -0.115621620  nElectrons: 9.000000
	SubspaceRotationAdjust: set factor to 21.3
ElecMinimize: Iter: 126  F: -23.326209264069302  |grad|_K:  1.794e-06  alpha:  5.285e-03  linmin: -9.135e-04  t[s]:    112.89
ElecMinimize: 	Predicted alpha/alphaT>3.000000, increasing alphaT to 1.585641e-02.
	FillingsUpdate:  mu: -0.115544537  nElectrons: 9.000000
	SubspaceRotationAdjust: set factor to 20.5
ElecMinimize: Iter: 127  F: -23.326209402871374  |grad|_K:  1.771e-06  alpha:  6.091e-03  linmin: -1.234e-03  t[s]:    113.93
	FillingsUpdate:  mu: -0.115470137  nElectrons: 9.000000
	SubspaceRotationAdjust: set factor to 16.5
ElecMinimize: Iter: 128  F: -23.326209444628059  |grad|_K:  1.970e-06  alpha:  1.772e-03  linmin: -6.354e-04  t[s]:    114.71
	FillingsUpdate:  mu: -0.115384009  nElectrons: 9.000000
	SubspaceRotationAdjust: set factor to 11.6
ElecMinimize: Iter: 129  F: -23.326209461197863  |grad|_K:  2.259e-06  alpha:  9.495e-04  linmin: -3.249e-05  t[s]:    115.50
	FillingsUpdate:  mu: -0.115315234  nElectrons: 9.000000
	SubspaceRotationAdjust: set factor to 7.95
ElecMinimize: Iter: 130  F: -23.326209467876755  |grad|_K:  2.295e-06  alpha:  5.307e-04  linmin:  6.179e-06  t[s]:    116.30
	FillingsUpdate:  mu: -0.115228930  nElectrons: 9.000000
	SubspaceRotationAdjust: set factor to 5.45
ElecMinimize: Iter: 131  F: -23.326209476831753  |grad|_K:  2.281e-06  alpha:  7.115e-04  linmin: -2.969e-05  t[s]:    117.08
ElecMinimize: Converged (|Delta F|<1.000000e-08 for 2 iters).
Setting wave functions to eigenvectors of Hamiltonian

# Ionic positions in lattice coordinates:
ion Rb   0.000000000000000   0.000000000000000   0.000000000000000 0

# Forces in Lattice coordinates:
force Rb   0.000000000000000   0.000000000000000   0.000000000000000 0

# Energy components:
   Eewald =      -48.7784489198180040
       EH =      -31.0947266503652848
     Eloc =       52.3647481159379566
      Enl =       -1.0085971481121576
   Epulay =        0.0000000062683695
      Exc =       -4.4404645912129475
       KE =        9.6312797640287080
-------------------------------------
     Etot =      -23.3262094232733652
       TS =        0.0000000535583889
-------------------------------------
        F =      -23.3262094768317532

IonicMinimize: Iter:   0  F: -23.326209476831753  |grad|_K:  0.000e+00  t[s]:    117.16
IonicMinimize: Converged (|grad|_K<1.000000e-04).

#--- Lowdin population analysis ---
# oxidation-state Rb +1.197

End date and time: Sun Jan 16 15:47:59 2022  (Duration: 0-0:01:57.18)
Done!
