1.67
--------------------------------------------------------------------------
The library attempted to open the following supporting CUDA libraries,
but each of them failed.  CUDA-aware support is disabled.
libcuda.so.1: cannot open shared object file: No such file or directory
libcuda.dylib: cannot open shared object file: No such file or directory
/usr/lib64/libcuda.so.1: cannot open shared object file: No such file or directory
/usr/lib64/libcuda.dylib: cannot open shared object file: No such file or directory
If you are not interested in CUDA-aware support, then run with
--mca opal_warn_on_missing_libcuda 0 to suppress this message.  If you are interested
in CUDA-aware support, then try setting LD_LIBRARY_PATH to the location
of libcuda.so.1 to get passed this issue.
--------------------------------------------------------------------------
--------------------------------------------------------------------------
No OpenFabrics connection schemes reported that they were able to be
used on a specific port.  As such, the openib BTL (OpenFabrics
support) will be disabled for this port.

  Local host:           d-3-3-1
  Local device:         mlx5_1
  Local port:           1
  CPCs attempted:       rdmacm, udcm
--------------------------------------------------------------------------

*************** JDFTx 1.6.0 (git hash 42ebbcc2) ***************

Start date and time: Sun Jan 16 15:49:26 2022
Executable jdftx with command-line: -i Rubidium.in
Running on hosts (process indices):  d-3-3-1 (0-18)
Divided in process groups (process indices):  0 (0)  1 (1)  2 (2)  3 (3)  4 (4)  5 (5)  6 (6)  7 (7)  8 (8)  9 (9)  10 (10)  11 (11)  12 (12)  13 (13)  14 (14)  15 (15)  16 (16)  17 (17)  18 (18)
Resource initialization completed at t[s]:      0.00
Run totals: 19 processes, 48 threads, 0 GPUs


Input parsed successfully to the following command list (including defaults):

basis kpoint-dependent
coords-type Lattice
core-overlap-check vector
coulomb-interaction Slab 001
davidson-band-ratio 1.1
dump End None
dump-name $INPUT.$VAR
elec-cutoff 20 100
elec-eigen-algo Davidson
elec-ex-corr gga-PBE
elec-smearing Fermi 1e-05
electronic-minimize  \
	dirUpdateScheme      FletcherReeves \
	linminMethod         DirUpdateRecommended \
	nIterations          10000 \
	history              15 \
	knormThreshold       0 \
	energyDiffThreshold  1e-08 \
	nEnergyDiff          2 \
	alphaTstart          1 \
	alphaTmin            1e-10 \
	updateTestStepSize   yes \
	alphaTreduceFactor   0.1 \
	alphaTincreaseFactor 3 \
	nAlphaAdjustMax      3 \
	wolfeEnergy          0.0001 \
	wolfeGradient        0.9 \
	fdTest               no
exchange-regularization WignerSeitzTruncated
fluid None
fluid-ex-corr (null) lda-PZ
fluid-gummel-loop 10 1.000000e-05
fluid-minimize  \
	dirUpdateScheme      PolakRibiere \
	linminMethod         DirUpdateRecommended \
	nIterations          100 \
	history              15 \
	knormThreshold       0 \
	energyDiffThreshold  0 \
	nEnergyDiff          2 \
	alphaTstart          1 \
	alphaTmin            1e-10 \
	updateTestStepSize   yes \
	alphaTreduceFactor   0.1 \
	alphaTincreaseFactor 3 \
	nAlphaAdjustMax      3 \
	wolfeEnergy          0.0001 \
	wolfeGradient        0.9 \
	fdTest               no
fluid-solvent H2O 55.338 ScalarEOS \
	epsBulk 78.4 \
	pMol 0.92466 \
	epsInf 1.77 \
	Pvap 1.06736e-10 \
	sigmaBulk 4.62e-05 \
	Rvdw 2.61727 \
	Res 1.42 \
	tauNuc 343133 \
	poleEl 15 7 1
forces-output-coords Positions
ion Rb   0.000000000000000   0.000000000000000   0.000000000000000 0
ion-species SG15/$ID_ONCV_PBE.upf
ion-width 0
ionic-minimize  \
	dirUpdateScheme      L-BFGS \
	linminMethod         DirUpdateRecommended \
	nIterations          0 \
	history              15 \
	knormThreshold       0.0001 \
	energyDiffThreshold  1e-06 \
	nEnergyDiff          2 \
	alphaTstart          1 \
	alphaTmin            1e-10 \
	updateTestStepSize   yes \
	alphaTreduceFactor   0.1 \
	alphaTincreaseFactor 3 \
	nAlphaAdjustMax      3 \
	wolfeEnergy          0.0001 \
	wolfeGradient        0.9 \
	fdTest               no
kpoint   0.000000000000   0.000000000000   0.000000000000  1.00000000000000
kpoint-folding 48 48 1 
latt-move-scale 1 1 1
latt-scale 1.67 1.67 1 
lattice  \
	   4.727486978767153   -2.363743489383575    0.000000000000000  \
	  -0.000000000000000    4.094123819672498    0.000000000000000  \
	   0.000000000000000    0.000000000000000   40.000000000000000 
lattice-minimize  \
	dirUpdateScheme      L-BFGS \
	linminMethod         DirUpdateRecommended \
	nIterations          0 \
	history              15 \
	knormThreshold       0 \
	energyDiffThreshold  1e-06 \
	nEnergyDiff          2 \
	alphaTstart          1 \
	alphaTmin            1e-10 \
	updateTestStepSize   yes \
	alphaTreduceFactor   0.1 \
	alphaTincreaseFactor 3 \
	nAlphaAdjustMax      3 \
	wolfeEnergy          0.0001 \
	wolfeGradient        0.9 \
	fdTest               no
lcao-params -1 1e-06 1e-05
pcm-variant GLSSA13
spintype no-spin
subspace-rotation-factor 1 yes
symmetries automatic
symmetry-threshold 0.0001



---------- Setting up symmetries ----------

Found 24 point-group symmetries of the bravais lattice
Found 24 space-group symmetries with basis
Applied RMS atom displacement 0 bohrs to make symmetries exact.

---------- Initializing the Grid ----------
R = 
[       7.8949     -3.94745            0  ]
[            0      6.83719            0  ]
[            0            0           40  ]
unit cell volume = 2159.16
G =
[   0.795853   0.459486         -0  ]
[          0   0.918972         -0  ]
[         -0         -0    0.15708  ]
Minimum fftbox size, Smin = [  36  36  184  ]
Chosen fftbox size, S = [  36  36  192  ]

---------- Initializing tighter grid for wavefunction operations ----------
R = 
[       7.8949     -3.94745            0  ]
[            0      6.83719            0  ]
[            0            0           40  ]
unit cell volume = 2159.16
G =
[   0.795853   0.459486         -0  ]
[          0   0.918972         -0  ]
[         -0         -0    0.15708  ]
Minimum fftbox size, Smin = [  32  32  164  ]
Chosen fftbox size, S = [  32  32  168  ]

---------- Exchange Correlation functional ----------
Initalized PBE GGA exchange.
Initalized PBE GGA correlation.

---------- Setting up pseudopotentials ----------
Width of ionic core gaussian charges (only for fluid interactions / plotting) set to 0

Reading pseudopotential file '/home/gridsan/aligho/DFT/build-Nov24/pseudopotentials/SG15/Rb_ONCV_PBE.upf':
  'Rb' pseudopotential, 'PBE' functional
  Generated using ONCVPSP code by D. R. Hamann
  Author: Martin Schlipf and Francois Gygi  Date: 150915.
  9 valence electrons, 3 orbitals, 6 projectors, 2308 radial grid points, with lMax = 2
  Transforming local potential to a uniform radial grid of dG=0.02 with 1624 points.
  Transforming nonlocal projectors to a uniform radial grid of dG=0.02 with 432 points.
    4S    l: 0   occupation:  2.0   eigenvalue: -1.172069
    4P    l: 1   occupation:  6.0   eigenvalue: -0.586674
    5S    l: 0   occupation:  1.0   eigenvalue: -0.082006
  Transforming atomic orbitals to a uniform radial grid of dG=0.02 with 432 points.
  Core radius for overlap checks: 2.60 bohrs.
  Reading pulay file /home/gridsan/aligho/DFT/build-Nov24/pseudopotentials/SG15/Rb_ONCV_PBE.pulay ... using dE_dnG = -1.360715e-05 computed for Ecut = 20.

Initialized 1 species with 1 total atoms.

Folded 1 k-points by 48x48x1 to 2304 k-points.

---------- Setting up k-points, bands, fillings ----------
Reduced to 217 k-points under symmetry. 
Computing the number of bands and number of electrons
Calculating initial fillings.
nElectrons:   9.000000   nBands: 6   nStates: 217

----- Setting up reduced wavefunction bases (one per k-point) -----
average nbasis = 9224.285 , ideal nbasis = 9224.084

---------- Setting up coulomb interaction ----------
Initialized slab truncation along lattice direction 001

---------- Setting up 2D ewald sum ----------
Optimum gaussian width for ewald sums = 4.382932 bohr.
Real space sums over 289 unit cells with max indices [  8  8  0  ]
Reciprocal space sums over 81 terms with max indices [  4  4  0  ]

---------- Allocating electronic variables ----------
Initializing wave functions:  linear combination of atomic orbitals
Note: number of bands (6) exceeds available atomic orbitals (5)
Rb pseudo-atom occupations:   s ( 2 1 )  p ( 6 )
[d-3-3-1:81419] 18 more processes have sent help message help-mpi-common-cuda.txt / dlopen failed
[d-3-3-1:81419] Set MCA parameter "orte_base_help_aggregate" to 0 to see all help / error messages
[d-3-3-1:81419] 18 more processes have sent help message help-mpi-btl-openib-cpc-base.txt / no cpcs for port
	FillingsUpdate:  mu: -0.103379134  nElectrons: 9.000000
LCAOMinimize: Iter:   0  F: -24.4427121226246520  |grad|_K:  5.911e-06  alpha:  1.000e+00
	FillingsUpdate:  mu: -0.103370429  nElectrons: 9.000000
LCAOMinimize: Iter:   1  F: -24.4427122574479299  |grad|_K:  7.217e-08  alpha:  9.881e-01  linmin: -2.732e-02  cgtest:  5.682e-01  t[s]:      7.23
LCAOMinimize: Encountered beta<0, resetting CG.
	FillingsUpdate:  mu: -0.103370221  nElectrons: 9.000000
LCAOMinimize: Iter:   2  F: -24.4427122574682549  |grad|_K:  2.234e-09  alpha:  9.613e-01  linmin: -5.115e-02  cgtest:  8.827e-01  t[s]:      9.62
LCAOMinimize: Encountered beta<0, resetting CG.
LCAOMinimize: Converged (|Delta F|<1.000000e-06 for 2 iters).


---- Citations for features of the code used in this run ----

   Software package:
      R. Sundararaman, K. Letchworth-Weaver, K.A. Schwarz, D. Gunceler, Y. Ozhabes and T.A. Arias, 'JDFTx: software for joint density-functional theory', SoftwareX 6, 278 (2017)

   gga-PBE exchange-correlation functional:
      J.P. Perdew, K. Burke and M. Ernzerhof, Phys. Rev. Lett. 77, 3865 (1996)

   Pseudopotentials:
      M Schlipf and F Gygi, Comput. Phys. Commun. 196, 36 (2015)

   Truncated Coulomb potentials:
      R. Sundararaman and T.A. Arias, Phys. Rev. B 87, 165122 (2013)

   Total energy minimization with Auxiliary Hamiltonian:
      C. Freysoldt, S. Boeck, and J. Neugebauer, Phys. Rev. B 79, 241103(R) (2009)

This list may not be complete. Please suggest additional citations or
report any other bugs at https://github.com/shankar1729/jdftx/issues

Initialization completed successfully at t[s]:      9.91


-------- Electronic minimization -----------
	FillingsUpdate:  mu: -0.103370221  nElectrons: 9.000000
ElecMinimize: Iter:   0  F: -24.442712257468269  |grad|_K:  1.090e-05  alpha:  1.000e+00
	FillingsUpdate:  mu: -0.100472783  nElectrons: 9.000000
	SubspaceRotationAdjust: set factor to 1
ElecMinimize: Iter:   1  F: -24.445390535713809  |grad|_K:  1.001e-05  alpha:  1.885e+00  linmin:  3.647e-04  t[s]:     15.08
	FillingsUpdate:  mu: -0.093255977  nElectrons: 9.000000
	SubspaceRotationAdjust: set factor to 1.03
ElecMinimize: Iter:   2  F: -24.447048105119833  |grad|_K:  7.569e-06  alpha:  1.326e+00  linmin: -2.699e-05  t[s]:     18.29
	FillingsUpdate:  mu: -0.090849763  nElectrons: 9.000000
	SubspaceRotationAdjust: set factor to 1.07
ElecMinimize: Iter:   3  F: -24.447521601828477  |grad|_K:  5.199e-06  alpha:  4.242e-01  linmin: -2.889e-03  t[s]:     21.55
	FillingsUpdate:  mu: -0.087520065  nElectrons: 9.000000
	SubspaceRotationAdjust: set factor to 1.05
ElecMinimize: Iter:   4  F: -24.447886195407204  |grad|_K:  4.385e-06  alpha:  7.274e-01  linmin:  5.993e-04  t[s]:     24.85
	FillingsUpdate:  mu: -0.086599923  nElectrons: 9.000000
	SubspaceRotationAdjust: set factor to 1.2
ElecMinimize: Iter:   5  F: -24.447950547527796  |grad|_K:  4.163e-06  alpha:  1.996e-01  linmin: -2.204e-03  t[s]:     28.13
	FillingsUpdate:  mu: -0.084203297  nElectrons: 9.000000
	SubspaceRotationAdjust: set factor to 1.52
ElecMinimize: Iter:   6  F: -24.448119677954736  |grad|_K:  2.928e-06  alpha:  5.277e-01  linmin:  2.450e-04  t[s]:     31.39
ElecMinimize: 	Step increased F by 1.832466e-04, reducing alpha to 6.332910e-02.
	FillingsUpdate:  mu: -0.084109203  nElectrons: 9.000000
	SubspaceRotationAdjust: set factor to 1.95
ElecMinimize: Iter:   7  F: -24.448131608101576  |grad|_K:  2.909e-06  alpha:  6.333e-02  linmin: -8.701e-03  t[s]:     36.81
ElecMinimize: 	Predicted alpha/alphaT>3.000000, increasing alphaT to 1.899873e-01.
	FillingsUpdate:  mu: -0.083925096  nElectrons: 9.000000
	SubspaceRotationAdjust: set factor to 1.72
ElecMinimize: Iter:   8  F: -24.448223264852285  |grad|_K:  1.787e-06  alpha:  4.465e-01  linmin: -2.584e-03  t[s]:     41.13
	FillingsUpdate:  mu: -0.083144763  nElectrons: 9.000000
	SubspaceRotationAdjust: set factor to 1.97
ElecMinimize: Iter:   9  F: -24.448261360251788  |grad|_K:  1.582e-06  alpha:  7.803e-01  linmin: -8.909e-06  t[s]:     44.31
	FillingsUpdate:  mu: -0.081868793  nElectrons: 9.000000
	SubspaceRotationAdjust: set factor to 2.14
ElecMinimize: Iter:  10  F: -24.448281044284141  |grad|_K:  1.276e-06  alpha:  6.438e-01  linmin:  9.658e-05  t[s]:     47.55
	FillingsUpdate:  mu: -0.081143965  nElectrons: 9.000000
	SubspaceRotationAdjust: set factor to 2.18
ElecMinimize: Iter:  11  F: -24.448290804979397  |grad|_K:  1.065e-06  alpha:  5.001e-01  linmin:  4.883e-05  t[s]:     50.81
	FillingsUpdate:  mu: -0.081080799  nElectrons: 9.000000
	SubspaceRotationAdjust: set factor to 2.87
ElecMinimize: Iter:  12  F: -24.448297473752827  |grad|_K:  8.581e-07  alpha:  4.953e-01  linmin:  3.654e-06  t[s]:     54.08
	FillingsUpdate:  mu: -0.081285272  nElectrons: 9.000000
	SubspaceRotationAdjust: set factor to 3.08
ElecMinimize: Iter:  13  F: -24.448301367419258  |grad|_K:  6.559e-07  alpha:  4.420e-01  linmin: -9.319e-05  t[s]:     57.34
	FillingsUpdate:  mu: -0.081238706  nElectrons: 9.000000
	SubspaceRotationAdjust: set factor to 3.08
ElecMinimize: Iter:  14  F: -24.448303823412040  |grad|_K:  5.621e-07  alpha:  4.702e-01  linmin: -1.413e-05  t[s]:     60.62
	FillingsUpdate:  mu: -0.080968973  nElectrons: 9.000000
	SubspaceRotationAdjust: set factor to 3.19
ElecMinimize: Iter:  15  F: -24.448305786113217  |grad|_K:  5.189e-07  alpha:  5.150e-01  linmin:  3.435e-05  t[s]:     63.85
	FillingsUpdate:  mu: -0.080907980  nElectrons: 9.000000
	SubspaceRotationAdjust: set factor to 3.41
ElecMinimize: Iter:  16  F: -24.448307363757507  |grad|_K:  4.654e-07  alpha:  4.920e-01  linmin:  2.658e-05  t[s]:     67.14
	FillingsUpdate:  mu: -0.081089783  nElectrons: 9.000000
	SubspaceRotationAdjust: set factor to 3.55
ElecMinimize: Iter:  17  F: -24.448308458888846  |grad|_K:  3.993e-07  alpha:  4.245e-01  linmin:  1.232e-05  t[s]:     70.40
	FillingsUpdate:  mu: -0.081176746  nElectrons: 9.000000
	SubspaceRotationAdjust: set factor to 3.86
ElecMinimize: Iter:  18  F: -24.448309310784815  |grad|_K:  3.576e-07  alpha:  4.461e-01  linmin: -1.811e-05  t[s]:     73.69
	FillingsUpdate:  mu: -0.081080887  nElectrons: 9.000000
	SubspaceRotationAdjust: set factor to 3.88
ElecMinimize: Iter:  19  F: -24.448309958353210  |grad|_K:  3.105e-07  alpha:  4.184e-01  linmin:  3.873e-06  t[s]:     76.89
	FillingsUpdate:  mu: -0.081050152  nElectrons: 9.000000
	SubspaceRotationAdjust: set factor to 4.07
ElecMinimize: Iter:  20  F: -24.448310444006967  |grad|_K:  2.732e-07  alpha:  4.202e-01  linmin:  2.695e-05  t[s]:     80.09
	FillingsUpdate:  mu: -0.081169942  nElectrons: 9.000000
	SubspaceRotationAdjust: set factor to 4.14
ElecMinimize: Iter:  21  F: -24.448310777476610  |grad|_K:  2.332e-07  alpha:  3.752e-01  linmin:  7.564e-06  t[s]:     83.31
	FillingsUpdate:  mu: -0.081270371  nElectrons: 9.000000
	SubspaceRotationAdjust: set factor to 4.27
ElecMinimize: Iter:  22  F: -24.448311052619495  |grad|_K:  2.228e-07  alpha:  4.222e-01  linmin: -1.855e-05  t[s]:     86.56
	FillingsUpdate:  mu: -0.081248593  nElectrons: 9.000000
	SubspaceRotationAdjust: set factor to 4.59
ElecMinimize: Iter:  23  F: -24.448311277218021  |grad|_K:  1.792e-07  alpha:  3.742e-01  linmin: -3.683e-07  t[s]:     89.83
	FillingsUpdate:  mu: -0.081229874  nElectrons: 9.000000
	SubspaceRotationAdjust: set factor to 4.45
ElecMinimize: Iter:  24  F: -24.448311416537582  |grad|_K:  1.534e-07  alpha:  3.608e-01  linmin:  2.179e-05  t[s]:     93.07
	FillingsUpdate:  mu: -0.081287108  nElectrons: 9.000000
	SubspaceRotationAdjust: set factor to 4.64
ElecMinimize: Iter:  25  F: -24.448311512753136  |grad|_K:  1.250e-07  alpha:  3.433e-01  linmin:  4.822e-06  t[s]:     96.33
	FillingsUpdate:  mu: -0.081337798  nElectrons: 9.000000
	SubspaceRotationAdjust: set factor to 4.78
ElecMinimize: Iter:  26  F: -24.448311578932980  |grad|_K:  1.071e-07  alpha:  3.534e-01  linmin: -1.159e-05  t[s]:     99.56
	FillingsUpdate:  mu: -0.081333322  nElectrons: 9.000000
	SubspaceRotationAdjust: set factor to 4.76
ElecMinimize: Iter:  27  F: -24.448311626212721  |grad|_K:  8.839e-08  alpha:  3.415e-01  linmin: -5.052e-07  t[s]:    102.82
	FillingsUpdate:  mu: -0.081325071  nElectrons: 9.000000
	SubspaceRotationAdjust: set factor to 4.83
ElecMinimize: Iter:  28  F: -24.448311659006347  |grad|_K:  7.556e-08  alpha:  3.493e-01  linmin:  1.186e-05  t[s]:    106.09
	FillingsUpdate:  mu: -0.081347355  nElectrons: 9.000000
	SubspaceRotationAdjust: set factor to 4.9
ElecMinimize: Iter:  29  F: -24.448311681815088  |grad|_K:  6.329e-08  alpha:  3.342e-01  linmin:  2.905e-06  t[s]:    109.34
	FillingsUpdate:  mu: -0.081367094  nElectrons: 9.000000
	SubspaceRotationAdjust: set factor to 4.93
ElecMinimize: Iter:  30  F: -24.448311698811686  |grad|_K:  5.656e-08  alpha:  3.539e-01  linmin: -4.642e-06  t[s]:    112.60
	FillingsUpdate:  mu: -0.081360649  nElectrons: 9.000000
	SubspaceRotationAdjust: set factor to 5.06
ElecMinimize: Iter:  31  F: -24.448311711585966  |grad|_K:  4.651e-08  alpha:  3.317e-01  linmin: -1.044e-08  t[s]:    115.82
	FillingsUpdate:  mu: -0.081352606  nElectrons: 9.000000
	SubspaceRotationAdjust: set factor to 4.97
ElecMinimize: Iter:  32  F: -24.448311720404398  |grad|_K:  4.076e-08  alpha:  3.394e-01  linmin:  5.026e-06  t[s]:    119.07
	FillingsUpdate:  mu: -0.081359909  nElectrons: 9.000000
	SubspaceRotationAdjust: set factor to 5.02
ElecMinimize: Iter:  33  F: -24.448311727099952  |grad|_K:  3.551e-08  alpha:  3.365e-01  linmin:  2.443e-06  t[s]:    122.25
ElecMinimize: Converged (|Delta F|<1.000000e-08 for 2 iters).
Setting wave functions to eigenvectors of Hamiltonian

# Ionic positions in lattice coordinates:
ion Rb   0.000000000000000   0.000000000000000   0.000000000000000 0

# Forces in Lattice coordinates:
force Rb  -0.000000000000000   0.000000000000000   0.000000000000000 0

# Energy components:
   Eewald =      -21.6144025153684538
       EH =       -1.9296509905209709
     Eloc =       -3.4345003924965778
      Enl =       -0.7870162881357700
   Epulay =        0.0000000012690502
      Exc =       -3.6983033949422586
       KE =        7.0155618829737945
-------------------------------------
     Etot =      -24.4483116972211860
       TS =        0.0000000298787672
-------------------------------------
        F =      -24.4483117270999522

IonicMinimize: Iter:   0  F: -24.448311727099952  |grad|_K:  0.000e+00  t[s]:    122.64
IonicMinimize: Converged (|grad|_K<1.000000e-04).

#--- Lowdin population analysis ---
# oxidation-state Rb +0.032

End date and time: Sun Jan 16 15:51:29 2022  (Duration: 0-0:02:02.72)
Done!
