1.13
--------------------------------------------------------------------------
The library attempted to open the following supporting CUDA libraries,
but each of them failed.  CUDA-aware support is disabled.
libcuda.so.1: cannot open shared object file: No such file or directory
libcuda.dylib: cannot open shared object file: No such file or directory
/usr/lib64/libcuda.so.1: cannot open shared object file: No such file or directory
/usr/lib64/libcuda.dylib: cannot open shared object file: No such file or directory
If you are not interested in CUDA-aware support, then run with
--mca opal_warn_on_missing_libcuda 0 to suppress this message.  If you are interested
in CUDA-aware support, then try setting LD_LIBRARY_PATH to the location
of libcuda.so.1 to get passed this issue.
--------------------------------------------------------------------------
--------------------------------------------------------------------------
No OpenFabrics connection schemes reported that they were able to be
used on a specific port.  As such, the openib BTL (OpenFabrics
support) will be disabled for this port.

  Local host:           d-16-11-3
  Local device:         mlx5_1
  Local port:           1
  CPCs attempted:       rdmacm, udcm
--------------------------------------------------------------------------

*************** JDFTx 1.6.0 (git hash 42ebbcc2) ***************

Start date and time: Sun Jan 16 15:46:02 2022
Executable jdftx with command-line: -i Rubidium.in
Running on hosts (process indices):  d-16-11-3 (0-18)
Divided in process groups (process indices):  0 (0)  1 (1)  2 (2)  3 (3)  4 (4)  5 (5)  6 (6)  7 (7)  8 (8)  9 (9)  10 (10)  11 (11)  12 (12)  13 (13)  14 (14)  15 (15)  16 (16)  17 (17)  18 (18)
Resource initialization completed at t[s]:      0.00
Run totals: 19 processes, 48 threads, 0 GPUs


Input parsed successfully to the following command list (including defaults):

basis kpoint-dependent
coords-type Lattice
core-overlap-check vector
coulomb-interaction Slab 001
davidson-band-ratio 1.1
dump End None
dump-name $INPUT.$VAR
elec-cutoff 20 100
elec-eigen-algo Davidson
elec-ex-corr gga-PBE
elec-smearing Fermi 1e-05
electronic-minimize  \
	dirUpdateScheme      FletcherReeves \
	linminMethod         DirUpdateRecommended \
	nIterations          10000 \
	history              15 \
	knormThreshold       0 \
	energyDiffThreshold  1e-08 \
	nEnergyDiff          2 \
	alphaTstart          1 \
	alphaTmin            1e-10 \
	updateTestStepSize   yes \
	alphaTreduceFactor   0.1 \
	alphaTincreaseFactor 3 \
	nAlphaAdjustMax      3 \
	wolfeEnergy          0.0001 \
	wolfeGradient        0.9 \
	fdTest               no
exchange-regularization WignerSeitzTruncated
fluid None
fluid-ex-corr (null) lda-PZ
fluid-gummel-loop 10 1.000000e-05
fluid-minimize  \
	dirUpdateScheme      PolakRibiere \
	linminMethod         DirUpdateRecommended \
	nIterations          100 \
	history              15 \
	knormThreshold       0 \
	energyDiffThreshold  0 \
	nEnergyDiff          2 \
	alphaTstart          1 \
	alphaTmin            1e-10 \
	updateTestStepSize   yes \
	alphaTreduceFactor   0.1 \
	alphaTincreaseFactor 3 \
	nAlphaAdjustMax      3 \
	wolfeEnergy          0.0001 \
	wolfeGradient        0.9 \
	fdTest               no
fluid-solvent H2O 55.338 ScalarEOS \
	epsBulk 78.4 \
	pMol 0.92466 \
	epsInf 1.77 \
	Pvap 1.06736e-10 \
	sigmaBulk 4.62e-05 \
	Rvdw 2.61727 \
	Res 1.42 \
	tauNuc 343133 \
	poleEl 15 7 1
forces-output-coords Positions
ion Rb   0.000000000000000   0.000000000000000   0.000000000000000 0
ion-species SG15/$ID_ONCV_PBE.upf
ion-width 0
ionic-minimize  \
	dirUpdateScheme      L-BFGS \
	linminMethod         DirUpdateRecommended \
	nIterations          0 \
	history              15 \
	knormThreshold       0.0001 \
	energyDiffThreshold  1e-06 \
	nEnergyDiff          2 \
	alphaTstart          1 \
	alphaTmin            1e-10 \
	updateTestStepSize   yes \
	alphaTreduceFactor   0.1 \
	alphaTincreaseFactor 3 \
	nAlphaAdjustMax      3 \
	wolfeEnergy          0.0001 \
	wolfeGradient        0.9 \
	fdTest               no
kpoint   0.000000000000   0.000000000000   0.000000000000  1.00000000000000
kpoint-folding 48 48 1 
latt-move-scale 1 1 1
latt-scale 1.13 1.13 1 
lattice  \
	   4.727486978767153   -2.363743489383575    0.000000000000000  \
	  -0.000000000000000    4.094123819672498    0.000000000000000  \
	   0.000000000000000    0.000000000000000   40.000000000000000 
lattice-minimize  \
	dirUpdateScheme      L-BFGS \
	linminMethod         DirUpdateRecommended \
	nIterations          0 \
	history              15 \
	knormThreshold       0 \
	energyDiffThreshold  1e-06 \
	nEnergyDiff          2 \
	alphaTstart          1 \
	alphaTmin            1e-10 \
	updateTestStepSize   yes \
	alphaTreduceFactor   0.1 \
	alphaTincreaseFactor 3 \
	nAlphaAdjustMax      3 \
	wolfeEnergy          0.0001 \
	wolfeGradient        0.9 \
	fdTest               no
lcao-params -1 1e-06 1e-05
pcm-variant GLSSA13
spintype no-spin
subspace-rotation-factor 1 yes
symmetries automatic
symmetry-threshold 0.0001



---------- Setting up symmetries ----------

Found 24 point-group symmetries of the bravais lattice
Found 24 space-group symmetries with basis
Applied RMS atom displacement 0 bohrs to make symmetries exact.

---------- Initializing the Grid ----------
R = 
[      5.34206     -2.67103            0  ]
[            0      4.62636            0  ]
[            0            0           40  ]
unit cell volume = 988.572
G =
[    1.17617   0.679064         -0  ]
[          0    1.35813         -0  ]
[         -0         -0    0.15708  ]
Minimum fftbox size, Smin = [  28  28  184  ]
Chosen fftbox size, S = [  28  28  192  ]

---------- Initializing tighter grid for wavefunction operations ----------
R = 
[      5.34206     -2.67103            0  ]
[            0      4.62636            0  ]
[            0            0           40  ]
unit cell volume = 988.572
G =
[    1.17617   0.679064         -0  ]
[          0    1.35813         -0  ]
[         -0         -0    0.15708  ]
Minimum fftbox size, Smin = [  24  24  164  ]
Chosen fftbox size, S = [  24  24  168  ]

---------- Exchange Correlation functional ----------
Initalized PBE GGA exchange.
Initalized PBE GGA correlation.

---------- Setting up pseudopotentials ----------
Width of ionic core gaussian charges (only for fluid interactions / plotting) set to 0

Reading pseudopotential file '/home/gridsan/aligho/DFT/build-Nov24/pseudopotentials/SG15/Rb_ONCV_PBE.upf':
  'Rb' pseudopotential, 'PBE' functional
  Generated using ONCVPSP code by D. R. Hamann
  Author: Martin Schlipf and Francois Gygi  Date: 150915.
  9 valence electrons, 3 orbitals, 6 projectors, 2308 radial grid points, with lMax = 2
  Transforming local potential to a uniform radial grid of dG=0.02 with 1817 points.
  Transforming nonlocal projectors to a uniform radial grid of dG=0.02 with 432 points.
    4S    l: 0   occupation:  2.0   eigenvalue: -1.172069
    4P    l: 1   occupation:  6.0   eigenvalue: -0.586674
    5S    l: 0   occupation:  1.0   eigenvalue: -0.082006
  Transforming atomic orbitals to a uniform radial grid of dG=0.02 with 432 points.
  Core radius for overlap checks: 2.60 bohrs.
  Reading pulay file /home/gridsan/aligho/DFT/build-Nov24/pseudopotentials/SG15/Rb_ONCV_PBE.pulay ... using dE_dnG = -1.360715e-05 computed for Ecut = 20.

Initialized 1 species with 1 total atoms.

Folded 1 k-points by 48x48x1 to 2304 k-points.

---------- Setting up k-points, bands, fillings ----------
Reduced to 217 k-points under symmetry. 
Computing the number of bands and number of electrons
Calculating initial fillings.
nElectrons:   9.000000   nBands: 6   nStates: 217

----- Setting up reduced wavefunction bases (one per k-point) -----
average nbasis = 4223.452 , ideal nbasis = 4223.254

---------- Setting up coulomb interaction ----------
Initialized slab truncation along lattice direction 001

---------- Setting up 2D ewald sum ----------
Optimum gaussian width for ewald sums = 2.965696 bohr.
Real space sums over 289 unit cells with max indices [  8  8  0  ]
Reciprocal space sums over 81 terms with max indices [  4  4  0  ]

---------- Allocating electronic variables ----------
Initializing wave functions:  linear combination of atomic orbitals
Note: number of bands (6) exceeds available atomic orbitals (5)
Rb pseudo-atom occupations:   s ( 2 1 )  p ( 6 )
	FillingsUpdate:  mu: -0.131548411  nElectrons: 9.000000
LCAOMinimize: Iter:   0  F: -24.2686720583170583  |grad|_K:  1.142e-04  alpha:  1.000e+00
	FillingsUpdate:  mu: -0.130795688  nElectrons: 9.000000
LCAOMinimize: Iter:   1  F: -24.2687175765164334  |grad|_K:  7.782e-06  alpha:  9.072e-01  linmin: -5.229e-02  cgtest:  1.116e+00  t[s]:      4.72
LCAOMinimize: Encountered beta<0, resetting CG.
[d-16-11-3:29294] 18 more processes have sent help message help-mpi-common-cuda.txt / dlopen failed
[d-16-11-3:29294] Set MCA parameter "orte_base_help_aggregate" to 0 to see all help / error messages
[d-16-11-3:29294] 18 more processes have sent help message help-mpi-btl-openib-cpc-base.txt / no cpcs for port
	FillingsUpdate:  mu: -0.130748718  nElectrons: 9.000000
LCAOMinimize: Iter:   2  F: -24.2687178088987316  |grad|_K:  1.219e-07  alpha:  9.813e-01  linmin: -3.064e-02  cgtest:  5.153e-01  t[s]:      6.30
LCAOMinimize: Encountered beta<0, resetting CG.
	FillingsUpdate:  mu: -0.130748652  nElectrons: 9.000000
LCAOMinimize: Iter:   3  F: -24.2687178089572093  |grad|_K:  1.985e-09  alpha:  9.943e-01  linmin:  7.427e-02  cgtest: -3.809e-01  t[s]:      7.87
LCAOMinimize: Converged (|Delta F|<1.000000e-06 for 2 iters).


---- Citations for features of the code used in this run ----

   Software package:
      R. Sundararaman, K. Letchworth-Weaver, K.A. Schwarz, D. Gunceler, Y. Ozhabes and T.A. Arias, 'JDFTx: software for joint density-functional theory', SoftwareX 6, 278 (2017)

   gga-PBE exchange-correlation functional:
      J.P. Perdew, K. Burke and M. Ernzerhof, Phys. Rev. Lett. 77, 3865 (1996)

   Pseudopotentials:
      M Schlipf and F Gygi, Comput. Phys. Commun. 196, 36 (2015)

   Truncated Coulomb potentials:
      R. Sundararaman and T.A. Arias, Phys. Rev. B 87, 165122 (2013)

   Total energy minimization with Auxiliary Hamiltonian:
      C. Freysoldt, S. Boeck, and J. Neugebauer, Phys. Rev. B 79, 241103(R) (2009)

This list may not be complete. Please suggest additional citations or
report any other bugs at https://github.com/shankar1729/jdftx/issues

Initialization completed successfully at t[s]:      8.02


-------- Electronic minimization -----------
	FillingsUpdate:  mu: -0.130748652  nElectrons: 9.000000
ElecMinimize: Iter:   0  F: -24.268717808957213  |grad|_K:  6.662e-05  alpha:  1.000e+00
	FillingsUpdate:  mu: -0.124424056  nElectrons: 9.000000
	SubspaceRotationAdjust: set factor to 1
ElecMinimize: Iter:   1  F: -24.293072712579768  |grad|_K:  3.723e-05  alpha:  9.968e-01  linmin:  3.245e-04  t[s]:     11.20
	FillingsUpdate:  mu: -0.125901781  nElectrons: 9.000000
	SubspaceRotationAdjust: set factor to 0.996
ElecMinimize: Iter:   2  F: -24.303158940516244  |grad|_K:  3.771e-05  alpha:  1.313e+00  linmin:  1.242e-03  t[s]:     13.16
	FillingsUpdate:  mu: -0.126247855  nElectrons: 9.000000
	SubspaceRotationAdjust: set factor to 1.03
ElecMinimize: Iter:   3  F: -24.304736728720080  |grad|_K:  3.291e-05  alpha:  1.089e-01  linmin: -8.620e-03  t[s]:     15.13
ElecMinimize: 	Wrong curvature in test step, increasing alphaT to 3.267450e-01.
	FillingsUpdate:  mu: -0.121628730  nElectrons: 9.000000
	SubspaceRotationAdjust: set factor to 1.09
ElecMinimize: Iter:   4  F: -24.307958435121531  |grad|_K:  2.796e-05  alpha: -1.387e-01  linmin: -1.465e-02  t[s]:     16.97
	FillingsUpdate:  mu: -0.121996393  nElectrons: 9.000000
	SubspaceRotationAdjust: set factor to 1.21
ElecMinimize: Iter:   5  F: -24.308778325509518  |grad|_K:  2.631e-05  alpha:  3.517e-02  linmin: -1.420e-02  t[s]:     18.92
ElecMinimize: 	Wrong curvature in test step, increasing alphaT to 1.055247e-01.
	FillingsUpdate:  mu: -0.122365269  nElectrons: 9.000000
	SubspaceRotationAdjust: set factor to 0.888
ElecMinimize: Iter:   6  F: -24.309884455743067  |grad|_K:  4.091e-05  alpha: -9.280e-02  linmin: -7.448e-03  t[s]:     20.77
	FillingsUpdate:  mu: -0.122758071  nElectrons: 9.000000
	SubspaceRotationAdjust: set factor to 1.06
ElecMinimize: Iter:   7  F: -24.310811677476984  |grad|_K:  2.325e-05  alpha:  1.343e-02  linmin: -1.305e-02  t[s]:     22.71
ElecMinimize: 	Predicted alpha/alphaT>3.000000, increasing alphaT to 4.030489e-02.
ElecMinimize: 	Predicted alpha/alphaT>3.000000, increasing alphaT to 1.209147e-01.
ElecMinimize: 	Predicted alpha/alphaT>3.000000, increasing alphaT to 3.627440e-01.
ElecMinimize: 	Step increased F by 2.401390e+00, reducing alpha to 1.810859e-01.
	FillingsUpdate:  mu: -0.120666270  nElectrons: 9.000000
	SubspaceRotationAdjust: set factor to 1.13
ElecMinimize: Iter:   8  F: -24.314805731481702  |grad|_K:  2.914e-05  alpha:  1.811e-01  linmin: -3.891e-03  t[s]:     27.22
	FillingsUpdate:  mu: -0.120695866  nElectrons: 9.000000
	SubspaceRotationAdjust: set factor to 1.37
ElecMinimize: Iter:   9  F: -24.315057279327696  |grad|_K:  3.330e-05  alpha:  1.103e-02  linmin: -7.766e-03  t[s]:     29.19
	FillingsUpdate:  mu: -0.120270008  nElectrons: 9.000000
	SubspaceRotationAdjust: set factor to 1.46
ElecMinimize: Iter:  10  F: -24.315264396820865  |grad|_K:  3.511e-05  alpha:  8.526e-03  linmin: -5.129e-03  t[s]:     31.15
	FillingsUpdate:  mu: -0.118739647  nElectrons: 9.000000
	SubspaceRotationAdjust: set factor to 1.5
ElecMinimize: Iter:  11  F: -24.316308772566387  |grad|_K:  4.021e-05  alpha:  2.340e-02  linmin: -2.847e-03  t[s]:     33.11
ElecMinimize: 	Step increased F by 1.339740e-03, reducing alpha to 3.959850e-03.
	FillingsUpdate:  mu: -0.117714935  nElectrons: 9.000000
	SubspaceRotationAdjust: set factor to 1.59
ElecMinimize: Iter:  12  F: -24.316594702617170  |grad|_K:  4.136e-05  alpha:  3.960e-03  linmin: -3.892e-03  t[s]:     36.38
ElecMinimize: 	Wrong curvature in test step, increasing alphaT to 1.187955e-02.
	FillingsUpdate:  mu: -0.116524774  nElectrons: 9.000000
	SubspaceRotationAdjust: set factor to 1.75
ElecMinimize: Iter:  13  F: -24.316918119468014  |grad|_K:  4.317e-05  alpha: -1.351e-02  linmin: -4.820e-03  t[s]:     38.23
	FillingsUpdate:  mu: -0.116106262  nElectrons: 9.000000
	SubspaceRotationAdjust: set factor to 1.93
ElecMinimize: Iter:  14  F: -24.318190234230006  |grad|_K:  4.760e-05  alpha:  1.722e-02  linmin: -3.166e-03  t[s]:     40.20
ElecMinimize: 	Step increased F by 7.429533e-05, reducing alpha to 4.599762e-04.
ElecMinimize: 	Step increased F by 3.468140e-05, reducing alpha to 4.599762e-05.
	FillingsUpdate:  mu: -0.116115468  nElectrons: 9.000000
	SubspaceRotationAdjust: set factor to 2.23
ElecMinimize: Iter:  15  F: -24.318194311208707  |grad|_K:  4.791e-05  alpha:  4.600e-05  linmin: -4.372e-03  t[s]:     44.72
ElecMinimize: 	Predicted alpha/alphaT>3.000000, increasing alphaT to 1.379929e-04.
	FillingsUpdate:  mu: -0.116116471  nElectrons: 9.000000
	SubspaceRotationAdjust: set factor to 2.66
ElecMinimize: Iter:  16  F: -24.318201710312682  |grad|_K:  5.763e-05  alpha:  1.421e-04  linmin:  5.422e-03  t[s]:     47.29
ElecMinimize: 	Bad step direction: g.d > 0.
ElecMinimize: 	Undoing step.
ElecMinimize: 	Step failed: resetting search direction.
	FillingsUpdate:  mu: -0.116116471  nElectrons: 9.000000
	SubspaceRotationAdjust: set factor to 2.87
ElecMinimize: Iter:  17  F: -24.318201710312689  |grad|_K:  5.990e-05  alpha:  0.000e+00
ElecMinimize: 	Predicted alpha/alphaT>3.000000, increasing alphaT to 4.264009e-04.
ElecMinimize: 	Predicted alpha/alphaT>3.000000, increasing alphaT to 1.279203e-03.
ElecMinimize: 	Predicted alpha/alphaT>3.000000, increasing alphaT to 3.837608e-03.
	FillingsUpdate:  mu: -0.116125873  nElectrons: 9.000000
	SubspaceRotationAdjust: set factor to 3.9
ElecMinimize: Iter:  18  F: -24.318317327453226  |grad|_K:  5.337e-05  alpha:  3.929e-03  linmin: -4.811e-02  t[s]:     51.86
ElecMinimize: 	Predicted alpha/alphaT>3.000000, increasing alphaT to 1.178552e-02.
ElecMinimize: 	Predicted alpha/alphaT>3.000000, increasing alphaT to 3.535655e-02.
	FillingsUpdate:  mu: -0.115700715  nElectrons: 9.000000
	SubspaceRotationAdjust: set factor to 4.35
ElecMinimize: Iter:  19  F: -24.321055840258733  |grad|_K:  3.108e-05  alpha:  7.512e-02  linmin: -3.460e-02  t[s]:     55.06
ElecMinimize: 	Predicted alpha/alphaT>3.000000, increasing alphaT to 2.253690e-01.
	FillingsUpdate:  mu: -0.119486154  nElectrons: 9.000000
	SubspaceRotationAdjust: set factor to 4.19
ElecMinimize: Iter:  20  F: -24.323233493074859  |grad|_K:  2.551e-05  alpha:  2.265e-01  linmin: -1.081e-02  t[s]:     57.66
	FillingsUpdate:  mu: -0.114339785  nElectrons: 9.000000
	SubspaceRotationAdjust: set factor to 3.2
ElecMinimize: Iter:  21  F: -24.324280804227204  |grad|_K:  4.038e-05  alpha:  2.397e-01  linmin:  8.691e-03  t[s]:     59.63
ElecMinimize: 	Bad step direction: g.d > 0.
ElecMinimize: 	Undoing step.
ElecMinimize: 	Step failed: resetting search direction.
	FillingsUpdate:  mu: -0.114339785  nElectrons: 9.000000
	SubspaceRotationAdjust: set factor to 4.21
ElecMinimize: Iter:  22  F: -24.324280804227204  |grad|_K:  3.899e-05  alpha:  0.000e+00
	FillingsUpdate:  mu: -0.117232493  nElectrons: 9.000000
	SubspaceRotationAdjust: set factor to 2.42
ElecMinimize: Iter:  23  F: -24.327445592014850  |grad|_K:  4.423e-05  alpha:  3.911e-01  linmin:  3.966e-03  t[s]:     62.94
	FillingsUpdate:  mu: -0.113902590  nElectrons: 9.000000
	SubspaceRotationAdjust: set factor to 3.02
ElecMinimize: Iter:  24  F: -24.328393584067733  |grad|_K:  2.454e-05  alpha:  1.798e-01  linmin: -1.156e-03  t[s]:     64.92
ElecMinimize: 	Wrong curvature in test step, increasing alphaT to 5.393715e-01.
	FillingsUpdate:  mu: -0.113161624  nElectrons: 9.000000
	SubspaceRotationAdjust: set factor to 3.64
ElecMinimize: Iter:  25  F: -24.329632680384861  |grad|_K:  2.288e-05  alpha: -3.660e+00  linmin: -3.099e-02  t[s]:     66.77
	FillingsUpdate:  mu: -0.112360248  nElectrons: 9.000000
	SubspaceRotationAdjust: set factor to 4.17
ElecMinimize: Iter:  26  F: -24.331394864569070  |grad|_K:  2.120e-05  alpha:  1.527e-01  linmin: -3.981e-02  t[s]:     68.70
	FillingsUpdate:  mu: -0.105427012  nElectrons: 9.000000
	SubspaceRotationAdjust: set factor to 3.78
ElecMinimize: Iter:  27  F: -24.332719031530882  |grad|_K:  1.639e-05  alpha:  1.336e-01  linmin: -2.369e-02  t[s]:     70.68
	FillingsUpdate:  mu: -0.108631597  nElectrons: 9.000000
	SubspaceRotationAdjust: set factor to 3.69
ElecMinimize: Iter:  28  F: -24.333379719506791  |grad|_K:  3.145e-05  alpha:  3.608e-01  linmin: -1.626e-03  t[s]:     72.63
ElecMinimize: 	Step increased F by 2.476823e-05, reducing alpha to 2.395103e-03.
	FillingsUpdate:  mu: -0.108804666  nElectrons: 9.000000
	SubspaceRotationAdjust: set factor to 5.08
ElecMinimize: Iter:  29  F: -24.333415052688594  |grad|_K:  3.162e-05  alpha:  2.395e-03  linmin: -6.577e-03  t[s]:     75.87
ElecMinimize: 	Predicted alpha/alphaT>3.000000, increasing alphaT to 7.185310e-03.
ElecMinimize: 	Predicted alpha/alphaT>3.000000, increasing alphaT to 2.155593e-02.
ElecMinimize: 	Predicted alpha/alphaT>3.000000, increasing alphaT to 6.466779e-02.
ElecMinimize: 	Step increased F by 5.737928e-04, reducing alpha to 1.160477e-02.
	FillingsUpdate:  mu: -0.109330889  nElectrons: 9.000000
	SubspaceRotationAdjust: set factor to 6.03
ElecMinimize: Iter:  30  F: -24.333697049146501  |grad|_K:  3.456e-05  alpha:  1.160e-02  linmin: -1.300e-02  t[s]:     80.34
ElecMinimize: 	Predicted alpha/alphaT>3.000000, increasing alphaT to 3.481430e-02.
ElecMinimize: 	Predicted alpha/alphaT>3.000000, increasing alphaT to 1.044429e-01.
	FillingsUpdate:  mu: -0.102049869  nElectrons: 9.000000
	SubspaceRotationAdjust: set factor to 7.99
	SubspaceRotationAdjust: resetting CG because factor has changed by 7.98554
ElecMinimize: 	State modified externally: resetting search direction.
ElecMinimize: Iter:  31  F: -24.335864347055985  |grad|_K:  3.929e-05  alpha:  1.055e-01
ElecMinimize: 	Wrong curvature in test step, increasing alphaT to 3.165592e-01.
	FillingsUpdate:  mu: -0.106321694  nElectrons: 9.000000
	SubspaceRotationAdjust: set factor to 9.32
ElecMinimize: Iter:  32  F: -24.338381492245375  |grad|_K:  1.970e-05  alpha: -1.307e-01  linmin: -7.900e-03  t[s]:     86.53
ElecMinimize: 	Step increased F by 4.973128e-05, reducing alpha to 2.819774e-02.
	FillingsUpdate:  mu: -0.108119025  nElectrons: 9.000000
	SubspaceRotationAdjust: set factor to 9.44
ElecMinimize: Iter:  33  F: -24.338531955125642  |grad|_K:  1.764e-05  alpha:  2.820e-02  linmin: -8.938e-03  t[s]:     89.80
ElecMinimize: 	Predicted alpha/alphaT>3.000000, increasing alphaT to 8.459322e-02.
	FillingsUpdate:  mu: -0.099994475  nElectrons: 9.000000
	SubspaceRotationAdjust: set factor to 5.67
ElecMinimize: Iter:  34  F: -24.339043379525766  |grad|_K:  1.960e-05  alpha:  1.733e-01  linmin:  4.279e-04  t[s]:     92.39
	FillingsUpdate:  mu: -0.103612422  nElectrons: 9.000000
	SubspaceRotationAdjust: set factor to 6.37
ElecMinimize: Iter:  35  F: -24.339246271239421  |grad|_K:  1.437e-05  alpha:  7.017e-02  linmin:  2.000e-04  t[s]:     94.35
ElecMinimize: 	Wrong curvature in test step, increasing alphaT to 2.105082e-01.
	FillingsUpdate:  mu: -0.106827778  nElectrons: 9.000000
	SubspaceRotationAdjust: set factor to 7.3
ElecMinimize: Iter:  36  F: -24.339437164111416  |grad|_K:  1.327e-05  alpha: -1.581e-01  linmin: -7.419e-04  t[s]:     96.21
	FillingsUpdate:  mu: -0.107161701  nElectrons: 9.000000
	SubspaceRotationAdjust: set factor to 6.9
ElecMinimize: Iter:  37  F: -24.339697034225882  |grad|_K:  1.522e-05  alpha:  8.124e-02  linmin: -1.619e-03  t[s]:     98.17
	FillingsUpdate:  mu: -0.107869884  nElectrons: 9.000000
	SubspaceRotationAdjust: set factor to 8.29
ElecMinimize: Iter:  38  F: -24.339817489351322  |grad|_K:  1.521e-05  alpha:  4.041e-02  linmin: -9.712e-03  t[s]:    100.15
	FillingsUpdate:  mu: -0.101318220  nElectrons: 9.000000
	SubspaceRotationAdjust: set factor to 10.5
ElecMinimize: Iter:  39  F: -24.339931579311116  |grad|_K:  1.334e-05  alpha:  6.268e-02  linmin: -3.954e-02  t[s]:    102.11
ElecMinimize: 	Wrong curvature in test step, increasing alphaT to 1.880480e-01.
	FillingsUpdate:  mu: -0.102077465  nElectrons: 9.000000
	SubspaceRotationAdjust: set factor to 14.5
ElecMinimize: Iter:  40  F: -24.340451874337287  |grad|_K:  1.017e-05  alpha: -1.838e-01  linmin: -3.936e-02  t[s]:    103.96
	FillingsUpdate:  mu: -0.112143938  nElectrons: 9.000000
	SubspaceRotationAdjust: set factor to 7.61
ElecMinimize: Iter:  41  F: -24.340759343490586  |grad|_K:  2.882e-05  alpha:  1.771e-01  linmin:  3.068e-02  t[s]:    105.94
ElecMinimize: 	Bad step direction: g.d > 0.
ElecMinimize: 	Undoing step.
ElecMinimize: 	Step failed: resetting search direction.
	FillingsUpdate:  mu: -0.112143938  nElectrons: 9.000000
	SubspaceRotationAdjust: set factor to 4.19
ElecMinimize: Iter:  42  F: -24.340759343490586  |grad|_K:  2.138e-05  alpha:  0.000e+00
	FillingsUpdate:  mu: -0.099434584  nElectrons: 9.000000
	SubspaceRotationAdjust: set factor to 3.32
ElecMinimize: Iter:  43  F: -24.341112373376340  |grad|_K:  7.725e-06  alpha:  1.390e-01  linmin: -2.123e-03  t[s]:    109.23
ElecMinimize: 	Predicted alpha/alphaT>3.000000, increasing alphaT to 4.170749e-01.
	FillingsUpdate:  mu: -0.105618728  nElectrons: 9.000000
	SubspaceRotationAdjust: set factor to 3.08
ElecMinimize: Iter:  44  F: -24.341234639654203  |grad|_K:  6.064e-06  alpha:  1.834e-01  linmin: -3.092e-03  t[s]:    111.83
ElecMinimize: 	Predicted alpha/alphaT>3.000000, increasing alphaT to 5.501530e-01.
	FillingsUpdate:  mu: -0.111576251  nElectrons: 9.000000
	SubspaceRotationAdjust: set factor to 1.72
ElecMinimize: Iter:  45  F: -24.341331302172179  |grad|_K:  1.828e-05  alpha:  2.320e-01  linmin:  3.581e-03  t[s]:    114.40
ElecMinimize: 	Bad step direction: g.d > 0.
ElecMinimize: 	Undoing step.
ElecMinimize: 	Step failed: resetting search direction.
	FillingsUpdate:  mu: -0.111576251  nElectrons: 9.000000
	SubspaceRotationAdjust: set factor to 1.04
	SubspaceRotationAdjust: resetting CG because factor has changed by 0.130095
ElecMinimize: 	State modified externally: resetting search direction.
ElecMinimize: Iter:  46  F: -24.341331302172165  |grad|_K:  1.166e-05  alpha:  0.000e+00
	FillingsUpdate:  mu: -0.106782639  nElectrons: 9.000000
	SubspaceRotationAdjust: set factor to 1.41
ElecMinimize: Iter:  47  F: -24.341466475494066  |grad|_K:  5.720e-06  alpha:  2.008e-01  linmin: -1.070e-02  t[s]:    118.89
ElecMinimize: 	Predicted alpha/alphaT>3.000000, increasing alphaT to 6.023055e-01.
ElecMinimize: 	Predicted alpha/alphaT>3.000000, increasing alphaT to 1.806917e+00.
	FillingsUpdate:  mu: -0.081238105  nElectrons: 9.000000
	SubspaceRotationAdjust: set factor to 1.18
ElecMinimize: Iter:  48  F: -24.341494882202376  |grad|_K:  1.516e-05  alpha:  4.841e+00  linmin:  4.844e-04  t[s]:    122.11
	FillingsUpdate:  mu: -0.090240273  nElectrons: 9.000000
	SubspaceRotationAdjust: set factor to 0.638
ElecMinimize: Iter:  49  F: -24.342502949780755  |grad|_K:  2.565e-05  alpha:  2.049e-01  linmin: -7.114e-03  t[s]:    124.06
	FillingsUpdate:  mu: -0.100772810  nElectrons: 9.000000
	SubspaceRotationAdjust: set factor to 1.16
ElecMinimize: Iter:  50  F: -24.342752870400115  |grad|_K:  6.481e-06  alpha:  5.669e-02  linmin:  9.373e-03  t[s]:    126.01
ElecMinimize: 	Predicted alpha/alphaT>3.000000, increasing alphaT to 1.700742e-01.
	FillingsUpdate:  mu: -0.107227018  nElectrons: 9.000000
	SubspaceRotationAdjust: set factor to 1.44
ElecMinimize: Iter:  51  F: -24.342890944056720  |grad|_K:  5.899e-06  alpha:  2.320e-01  linmin:  1.234e-03  t[s]:    128.61
ElecMinimize: 	Wrong curvature in test step, increasing alphaT to 6.958720e-01.
	FillingsUpdate:  mu: -0.114692160  nElectrons: 9.000000
	SubspaceRotationAdjust: set factor to 1.08
ElecMinimize: Iter:  52  F: -24.342980285793065  |grad|_K:  1.023e-05  alpha: -4.867e-01  linmin: -1.471e-02  t[s]:    130.45
ElecMinimize: 	Step increased F by 7.377587e-04, reducing alpha to 1.902716e-02.
	FillingsUpdate:  mu: -0.114992825  nElectrons: 9.000000
	SubspaceRotationAdjust: set factor to 1.16
ElecMinimize: Iter:  53  F: -24.343014147255310  |grad|_K:  6.173e-06  alpha:  1.903e-02  linmin: -1.392e-03  t[s]:    133.72
ElecMinimize: 	Wrong curvature in test step, increasing alphaT to 5.708149e-02.
	FillingsUpdate:  mu: -0.115031197  nElectrons: 9.000000
	SubspaceRotationAdjust: set factor to 1.22
ElecMinimize: Iter:  54  F: -24.343026663082316  |grad|_K:  6.120e-06  alpha: -1.477e-01  linmin: -4.435e-03  t[s]:    135.57
	FillingsUpdate:  mu: -0.119667795  nElectrons: 9.000000
	SubspaceRotationAdjust: set factor to 1.27
ElecMinimize: Iter:  55  F: -24.343063873534792  |grad|_K:  6.051e-06  alpha:  1.024e-01  linmin: -6.714e-03  t[s]:    137.55
	FillingsUpdate:  mu: -0.118937011  nElectrons: 9.000000
	SubspaceRotationAdjust: set factor to 1.38
ElecMinimize: Iter:  56  F: -24.343107443515269  |grad|_K:  5.112e-06  alpha:  2.088e-01  linmin: -1.078e-02  t[s]:    139.52
	FillingsUpdate:  mu: -0.114786338  nElectrons: 9.000000
	SubspaceRotationAdjust: set factor to 1.25
ElecMinimize: Iter:  57  F: -24.343172957286342  |grad|_K:  6.261e-06  alpha:  1.973e-01  linmin: -1.486e-02  t[s]:    141.49
ElecMinimize: 	Step increased F by 7.265952e-06, reducing alpha to 4.744053e-03.
	FillingsUpdate:  mu: -0.114732478  nElectrons: 9.000000
	SubspaceRotationAdjust: set factor to 1.17
ElecMinimize: Iter:  58  F: -24.343176187733974  |grad|_K:  6.136e-06  alpha:  4.744e-03  linmin: -1.524e-02  t[s]:    144.76
ElecMinimize: 	Predicted alpha/alphaT>3.000000, increasing alphaT to 1.423216e-02.
ElecMinimize: 	Predicted alpha/alphaT>3.000000, increasing alphaT to 4.269648e-02.
	FillingsUpdate:  mu: -0.113499567  nElectrons: 9.000000
	SubspaceRotationAdjust: set factor to 0.71
ElecMinimize: Iter:  59  F: -24.343194688378745  |grad|_K:  1.027e-05  alpha:  2.646e-02  linmin:  5.340e-03  t[s]:    147.93
ElecMinimize: 	Bad step direction: g.d > 0.
ElecMinimize: 	Undoing step.
ElecMinimize: 	Step failed: resetting search direction.
	FillingsUpdate:  mu: -0.113499567  nElectrons: 9.000000
	SubspaceRotationAdjust: set factor to 0.478
ElecMinimize: Iter:  60  F: -24.343194688378695  |grad|_K:  8.421e-06  alpha:  0.000e+00
	FillingsUpdate:  mu: -0.114600217  nElectrons: 9.000000
	SubspaceRotationAdjust: set factor to 0.742
ElecMinimize: Iter:  61  F: -24.343222254171927  |grad|_K:  4.770e-06  alpha:  6.073e-02  linmin: -2.362e-02  t[s]:    151.23
ElecMinimize: 	Predicted alpha/alphaT>3.000000, increasing alphaT to 1.821852e-01.
ElecMinimize: 	Predicted alpha/alphaT>3.000000, increasing alphaT to 5.465555e-01.
ElecMinimize: 	Wrong curvature in test step, increasing alphaT to 1.639667e+00.
	FillingsUpdate:  mu: -0.115981450  nElectrons: 9.000000
	SubspaceRotationAdjust: set factor to 0.99
ElecMinimize: Iter:  62  F: -24.343466264727020  |grad|_K:  3.562e-06  alpha: -9.892e-01  linmin: -1.440e-02  t[s]:    154.34
ElecMinimize: 	Predicted alpha/alphaT>3.000000, increasing alphaT to 3.000000e+00.
	FillingsUpdate:  mu: -0.108923932  nElectrons: 9.000000
	SubspaceRotationAdjust: set factor to 0.939
ElecMinimize: Iter:  63  F: -24.343703537091368  |grad|_K:  2.589e-06  alpha:  7.485e-01  linmin: -9.909e-03  t[s]:    156.90
	FillingsUpdate:  mu: -0.108767664  nElectrons: 9.000000
	SubspaceRotationAdjust: set factor to 0.998
ElecMinimize: Iter:  64  F: -24.343717678700532  |grad|_K:  2.206e-06  alpha:  2.957e-01  linmin: -5.768e-02  t[s]:    158.83
	FillingsUpdate:  mu: -0.109977937  nElectrons: 9.000000
	SubspaceRotationAdjust: set factor to 0.567
ElecMinimize: Iter:  65  F: -24.343736760216650  |grad|_K:  4.898e-06  alpha:  2.965e-01  linmin: -5.433e-03  t[s]:    160.80
	FillingsUpdate:  mu: -0.114819793  nElectrons: 9.000000
	SubspaceRotationAdjust: set factor to 0.614
ElecMinimize: Iter:  66  F: -24.343809765792624  |grad|_K:  2.090e-06  alpha:  8.974e-02  linmin: -9.318e-03  t[s]:    162.77
ElecMinimize: 	Predicted alpha/alphaT>3.000000, increasing alphaT to 2.692087e-01.
ElecMinimize: 	Predicted alpha/alphaT>3.000000, increasing alphaT to 8.076262e-01.
	FillingsUpdate:  mu: -0.114317865  nElectrons: 9.000000
	SubspaceRotationAdjust: set factor to 0.688
ElecMinimize: Iter:  67  F: -24.343860315053099  |grad|_K:  1.980e-06  alpha:  9.151e-01  linmin:  1.140e-04  t[s]:    165.98
	FillingsUpdate:  mu: -0.111259130  nElectrons: 9.000000
	SubspaceRotationAdjust: set factor to 0.705
ElecMinimize: Iter:  68  F: -24.343877489733526  |grad|_K:  2.052e-06  alpha:  9.943e-01  linmin:  2.821e-02  t[s]:    167.94
ElecMinimize: 	Bad step direction: g.d > 0.
ElecMinimize: 	Undoing step.
ElecMinimize: 	Step failed: resetting search direction.
	FillingsUpdate:  mu: -0.111259130  nElectrons: 9.000000
	SubspaceRotationAdjust: set factor to 0.715
ElecMinimize: Iter:  69  F: -24.343877489733572  |grad|_K:  2.052e-06  alpha:  0.000e+00
	FillingsUpdate:  mu: -0.109752222  nElectrons: 9.000000
	SubspaceRotationAdjust: set factor to 0.716
ElecMinimize: Iter:  70  F: -24.343902004510436  |grad|_K:  1.653e-06  alpha:  1.122e+00  linmin:  5.491e-03  t[s]:    171.25
	FillingsUpdate:  mu: -0.110028183  nElectrons: 9.000000
	SubspaceRotationAdjust: set factor to 0.716
ElecMinimize: Iter:  71  F: -24.343910639861907  |grad|_K:  1.200e-06  alpha:  6.182e-01  linmin: -6.929e-03  t[s]:    173.22
	FillingsUpdate:  mu: -0.109955507  nElectrons: 9.000000
	SubspaceRotationAdjust: set factor to 0.726
ElecMinimize: Iter:  72  F: -24.343918389443257  |grad|_K:  9.968e-07  alpha:  8.757e-01  linmin: -1.120e-05  t[s]:    175.17
	FillingsUpdate:  mu: -0.109907209  nElectrons: 9.000000
	SubspaceRotationAdjust: set factor to 0.744
ElecMinimize: Iter:  73  F: -24.343922541932056  |grad|_K:  7.325e-07  alpha:  7.233e-01  linmin:  3.667e-03  t[s]:    177.12
	FillingsUpdate:  mu: -0.110138463  nElectrons: 9.000000
	SubspaceRotationAdjust: set factor to 0.755
ElecMinimize: Iter:  74  F: -24.343924746500100  |grad|_K:  4.992e-07  alpha:  8.354e-01  linmin:  2.475e-05  t[s]:    179.08
	FillingsUpdate:  mu: -0.110278101  nElectrons: 9.000000
	SubspaceRotationAdjust: set factor to 0.753
ElecMinimize: Iter:  75  F: -24.343925454628902  |grad|_K:  2.617e-07  alpha:  5.165e-01  linmin: -6.618e-06  t[s]:    181.06
	FillingsUpdate:  mu: -0.110315626  nElectrons: 9.000000
	SubspaceRotationAdjust: set factor to 0.763
ElecMinimize: Iter:  76  F: -24.343925749727536  |grad|_K:  2.203e-07  alpha:  7.828e-01  linmin:  7.382e-06  t[s]:    183.02
	FillingsUpdate:  mu: -0.110281119  nElectrons: 9.000000
	SubspaceRotationAdjust: set factor to 0.763
ElecMinimize: Iter:  77  F: -24.343926009513499  |grad|_K:  2.287e-07  alpha:  9.735e-01  linmin:  8.297e-06  t[s]:    184.97
	FillingsUpdate:  mu: -0.110244305  nElectrons: 9.000000
	SubspaceRotationAdjust: set factor to 0.768
ElecMinimize: Iter:  78  F: -24.343926313613856  |grad|_K:  2.301e-07  alpha:  1.058e+00  linmin:  3.808e-05  t[s]:    186.93
	FillingsUpdate:  mu: -0.110276329  nElectrons: 9.000000
	SubspaceRotationAdjust: set factor to 0.806
ElecMinimize: Iter:  79  F: -24.343926547627873  |grad|_K:  1.627e-07  alpha:  8.032e-01  linmin:  2.560e-05  t[s]:    188.90
	FillingsUpdate:  mu: -0.110303704  nElectrons: 9.000000
	SubspaceRotationAdjust: set factor to 0.82
ElecMinimize: Iter:  80  F: -24.343926638054800  |grad|_K:  1.135e-07  alpha:  6.208e-01  linmin:  4.178e-06  t[s]:    190.84
	FillingsUpdate:  mu: -0.110311424  nElectrons: 9.000000
	SubspaceRotationAdjust: set factor to 0.822
ElecMinimize: Iter:  81  F: -24.343926699473464  |grad|_K:  9.720e-08  alpha:  8.663e-01  linmin:  4.383e-06  t[s]:    192.78
	FillingsUpdate:  mu: -0.110310378  nElectrons: 9.000000
	SubspaceRotationAdjust: set factor to 0.836
ElecMinimize: Iter:  82  F: -24.343926740053593  |grad|_K:  8.521e-08  alpha:  7.809e-01  linmin: -5.554e-07  t[s]:    194.75
	FillingsUpdate:  mu: -0.110310317  nElectrons: 9.000000
	SubspaceRotationAdjust: set factor to 0.863
ElecMinimize: Iter:  83  F: -24.343926774712738  |grad|_K:  6.239e-08  alpha:  8.670e-01  linmin: -2.878e-06  t[s]:    196.72
	FillingsUpdate:  mu: -0.110305592  nElectrons: 9.000000
	SubspaceRotationAdjust: set factor to 0.898
ElecMinimize: Iter:  84  F: -24.343926787089202  |grad|_K:  3.880e-08  alpha:  5.773e-01  linmin:  1.515e-07  t[s]:    198.70
	FillingsUpdate:  mu: -0.110295500  nElectrons: 9.000000
	SubspaceRotationAdjust: set factor to 0.892
ElecMinimize: Iter:  85  F: -24.343926793139726  |grad|_K:  2.721e-08  alpha:  7.301e-01  linmin:  3.836e-07  t[s]:    200.67
	FillingsUpdate:  mu: -0.110288640  nElectrons: 9.000000
	SubspaceRotationAdjust: set factor to 0.908
ElecMinimize: Iter:  86  F: -24.343926796002965  |grad|_K:  2.258e-08  alpha:  7.025e-01  linmin: -3.816e-07  t[s]:    202.61
ElecMinimize: Converged (|Delta F|<1.000000e-08 for 2 iters).
Setting wave functions to eigenvectors of Hamiltonian

# Ionic positions in lattice coordinates:
ion Rb   0.000000000000000   0.000000000000000   0.000000000000000 0

# Forces in Lattice coordinates:
force Rb   0.000000000000000  -0.000000000000000   0.000000000000000 0

# Energy components:
   Eewald =      -31.9434090271374487
       EH =      -12.9318468934279664
     Eloc =       17.8234142157356494
      Enl =       -0.8095560820045107
   Epulay =        0.0000000027253659
      Exc =       -3.8196153351950723
       KE =        7.3370863531797674
-------------------------------------
     Etot =      -24.3439267661242162
       TS =        0.0000000298787482
-------------------------------------
        F =      -24.3439267960029646

IonicMinimize: Iter:   0  F: -24.343926796002965  |grad|_K:  0.000e+00  t[s]:    202.78
IonicMinimize: Converged (|grad|_K<1.000000e-04).

#--- Lowdin population analysis ---
# oxidation-state Rb +0.571

End date and time: Sun Jan 16 15:49:25 2022  (Duration: 0-0:03:22.83)
Done!
