3.08
--------------------------------------------------------------------------
The library attempted to open the following supporting CUDA libraries,
but each of them failed.  CUDA-aware support is disabled.
libcuda.so.1: cannot open shared object file: No such file or directory
libcuda.dylib: cannot open shared object file: No such file or directory
/usr/lib64/libcuda.so.1: cannot open shared object file: No such file or directory
/usr/lib64/libcuda.dylib: cannot open shared object file: No such file or directory
If you are not interested in CUDA-aware support, then run with
--mca opal_warn_on_missing_libcuda 0 to suppress this message.  If you are interested
in CUDA-aware support, then try setting LD_LIBRARY_PATH to the location
of libcuda.so.1 to get passed this issue.
--------------------------------------------------------------------------
--------------------------------------------------------------------------
No OpenFabrics connection schemes reported that they were able to be
used on a specific port.  As such, the openib BTL (OpenFabrics
support) will be disabled for this port.

  Local host:           d-16-8-1
  Local device:         mlx5_1
  Local port:           1
  CPCs attempted:       rdmacm, udcm
--------------------------------------------------------------------------

*************** JDFTx 1.6.0 (git hash 42ebbcc2) ***************

Start date and time: Sun Jan 16 15:58:48 2022
Executable jdftx with command-line: -i Rubidium.in
Running on hosts (process indices):  d-16-8-1 (0-18)
Divided in process groups (process indices):  0 (0)  1 (1)  2 (2)  3 (3)  4 (4)  5 (5)  6 (6)  7 (7)  8 (8)  9 (9)  10 (10)  11 (11)  12 (12)  13 (13)  14 (14)  15 (15)  16 (16)  17 (17)  18 (18)
Resource initialization completed at t[s]:      0.00
Run totals: 19 processes, 48 threads, 0 GPUs


Input parsed successfully to the following command list (including defaults):

basis kpoint-dependent
coords-type Lattice
core-overlap-check vector
coulomb-interaction Slab 001
davidson-band-ratio 1.1
dump End None
dump-name $INPUT.$VAR
elec-cutoff 20 100
elec-eigen-algo Davidson
elec-ex-corr gga-PBE
elec-smearing Fermi 1e-05
electronic-minimize  \
	dirUpdateScheme      FletcherReeves \
	linminMethod         DirUpdateRecommended \
	nIterations          10000 \
	history              15 \
	knormThreshold       0 \
	energyDiffThreshold  1e-08 \
	nEnergyDiff          2 \
	alphaTstart          1 \
	alphaTmin            1e-10 \
	updateTestStepSize   yes \
	alphaTreduceFactor   0.1 \
	alphaTincreaseFactor 3 \
	nAlphaAdjustMax      3 \
	wolfeEnergy          0.0001 \
	wolfeGradient        0.9 \
	fdTest               no
exchange-regularization WignerSeitzTruncated
fluid None
fluid-ex-corr (null) lda-PZ
fluid-gummel-loop 10 1.000000e-05
fluid-minimize  \
	dirUpdateScheme      PolakRibiere \
	linminMethod         DirUpdateRecommended \
	nIterations          100 \
	history              15 \
	knormThreshold       0 \
	energyDiffThreshold  0 \
	nEnergyDiff          2 \
	alphaTstart          1 \
	alphaTmin            1e-10 \
	updateTestStepSize   yes \
	alphaTreduceFactor   0.1 \
	alphaTincreaseFactor 3 \
	nAlphaAdjustMax      3 \
	wolfeEnergy          0.0001 \
	wolfeGradient        0.9 \
	fdTest               no
fluid-solvent H2O 55.338 ScalarEOS \
	epsBulk 78.4 \
	pMol 0.92466 \
	epsInf 1.77 \
	Pvap 1.06736e-10 \
	sigmaBulk 4.62e-05 \
	Rvdw 2.61727 \
	Res 1.42 \
	tauNuc 343133 \
	poleEl 15 7 1
forces-output-coords Positions
ion Rb   0.000000000000000   0.000000000000000   0.000000000000000 0
ion-species SG15/$ID_ONCV_PBE.upf
ion-width 0
ionic-minimize  \
	dirUpdateScheme      L-BFGS \
	linminMethod         DirUpdateRecommended \
	nIterations          0 \
	history              15 \
	knormThreshold       0.0001 \
	energyDiffThreshold  1e-06 \
	nEnergyDiff          2 \
	alphaTstart          1 \
	alphaTmin            1e-10 \
	updateTestStepSize   yes \
	alphaTreduceFactor   0.1 \
	alphaTincreaseFactor 3 \
	nAlphaAdjustMax      3 \
	wolfeEnergy          0.0001 \
	wolfeGradient        0.9 \
	fdTest               no
kpoint   0.000000000000   0.000000000000   0.000000000000  1.00000000000000
kpoint-folding 48 48 1 
latt-move-scale 1 1 1
latt-scale 3.08 3.08 1 
lattice  \
	   4.727486978767153   -2.363743489383575    0.000000000000000  \
	  -0.000000000000000    4.094123819672498    0.000000000000000  \
	   0.000000000000000    0.000000000000000   40.000000000000000 
lattice-minimize  \
	dirUpdateScheme      L-BFGS \
	linminMethod         DirUpdateRecommended \
	nIterations          0 \
	history              15 \
	knormThreshold       0 \
	energyDiffThreshold  1e-06 \
	nEnergyDiff          2 \
	alphaTstart          1 \
	alphaTmin            1e-10 \
	updateTestStepSize   yes \
	alphaTreduceFactor   0.1 \
	alphaTincreaseFactor 3 \
	nAlphaAdjustMax      3 \
	wolfeEnergy          0.0001 \
	wolfeGradient        0.9 \
	fdTest               no
lcao-params -1 1e-06 1e-05
pcm-variant GLSSA13
spintype no-spin
subspace-rotation-factor 1 yes
symmetries automatic
symmetry-threshold 0.0001



---------- Setting up symmetries ----------

Found 24 point-group symmetries of the bravais lattice
Found 24 space-group symmetries with basis
Applied RMS atom displacement 0 bohrs to make symmetries exact.

---------- Initializing the Grid ----------
R = 
[      14.5607     -7.28033            0  ]
[            0      12.6099            0  ]
[            0            0           40  ]
unit cell volume = 7344.34
G =
[   0.431518   0.249137         -0  ]
[          0   0.498274         -0  ]
[         -0         -0    0.15708  ]
Minimum fftbox size, Smin = [  68  68  184  ]
Chosen fftbox size, S = [  70  70  192  ]

---------- Initializing tighter grid for wavefunction operations ----------
R = 
[      14.5607     -7.28033            0  ]
[            0      12.6099            0  ]
[            0            0           40  ]
unit cell volume = 7344.34
G =
[   0.431518   0.249137         -0  ]
[          0   0.498274         -0  ]
[         -0         -0    0.15708  ]
Minimum fftbox size, Smin = [  60  60  164  ]
Chosen fftbox size, S = [  60  60  168  ]

---------- Exchange Correlation functional ----------
Initalized PBE GGA exchange.
Initalized PBE GGA correlation.

---------- Setting up pseudopotentials ----------
Width of ionic core gaussian charges (only for fluid interactions / plotting) set to 0

Reading pseudopotential file '/home/gridsan/aligho/DFT/build-Nov24/pseudopotentials/SG15/Rb_ONCV_PBE.upf':
  'Rb' pseudopotential, 'PBE' functional
  Generated using ONCVPSP code by D. R. Hamann
  Author: Martin Schlipf and Francois Gygi  Date: 150915.
  9 valence electrons, 3 orbitals, 6 projectors, 2308 radial grid points, with lMax = 2
  Transforming local potential to a uniform radial grid of dG=0.02 with 1694 points.
  Transforming nonlocal projectors to a uniform radial grid of dG=0.02 with 432 points.
    4S    l: 0   occupation:  2.0   eigenvalue: -1.172069
    4P    l: 1   occupation:  6.0   eigenvalue: -0.586674
    5S    l: 0   occupation:  1.0   eigenvalue: -0.082006
  Transforming atomic orbitals to a uniform radial grid of dG=0.02 with 432 points.
  Core radius for overlap checks: 2.60 bohrs.
  Reading pulay file /home/gridsan/aligho/DFT/build-Nov24/pseudopotentials/SG15/Rb_ONCV_PBE.pulay ... using dE_dnG = -1.360715e-05 computed for Ecut = 20.

Initialized 1 species with 1 total atoms.

Folded 1 k-points by 48x48x1 to 2304 k-points.

---------- Setting up k-points, bands, fillings ----------
Reduced to 217 k-points under symmetry. 
Computing the number of bands and number of electrons
Calculating initial fillings.
nElectrons:   9.000000   nBands: 6   nStates: 217

----- Setting up reduced wavefunction bases (one per k-point) -----
average nbasis = 31376.296 , ideal nbasis = 31375.578

---------- Setting up coulomb interaction ----------
Initialized slab truncation along lattice direction 001

---------- Setting up 2D ewald sum ----------
Optimum gaussian width for ewald sums = 8.083491 bohr.
Real space sums over 289 unit cells with max indices [  8  8  0  ]
Reciprocal space sums over 81 terms with max indices [  4  4  0  ]

---------- Allocating electronic variables ----------
Initializing wave functions:  linear combination of atomic orbitals
Note: number of bands (6) exceeds available atomic orbitals (5)
Rb pseudo-atom occupations:   s ( 2 1 )  p ( 6 )
[d-16-8-1:72102] 18 more processes have sent help message help-mpi-common-cuda.txt / dlopen failed
[d-16-8-1:72102] Set MCA parameter "orte_base_help_aggregate" to 0 to see all help / error messages
[d-16-8-1:72102] 18 more processes have sent help message help-mpi-btl-openib-cpc-base.txt / no cpcs for port
	FillingsUpdate:  mu: -0.083324884  nElectrons: 9.000000
LCAOMinimize: Iter:   0  F: -24.4360218013265431  |grad|_K:  6.666e-06  alpha:  1.000e+00
	FillingsUpdate:  mu: -0.083321569  nElectrons: 9.000000
LCAOMinimize: Iter:   1  F: -24.4360219726310568  |grad|_K:  5.222e-08  alpha:  9.871e-01  linmin: -1.519e-02  cgtest:  3.546e-01  t[s]:     22.95
LCAOMinimize: Encountered beta<0, resetting CG.
	FillingsUpdate:  mu: -0.083321573  nElectrons: 9.000000
LCAOMinimize: Iter:   2  F: -24.4360219726413916  |grad|_K:  2.212e-09  alpha:  9.575e-01  linmin: -5.943e-02  cgtest:  9.965e-01  t[s]:     30.96
LCAOMinimize: Encountered beta<0, resetting CG.
LCAOMinimize: Converged (|Delta F|<1.000000e-06 for 2 iters).


---- Citations for features of the code used in this run ----

   Software package:
      R. Sundararaman, K. Letchworth-Weaver, K.A. Schwarz, D. Gunceler, Y. Ozhabes and T.A. Arias, 'JDFTx: software for joint density-functional theory', SoftwareX 6, 278 (2017)

   gga-PBE exchange-correlation functional:
      J.P. Perdew, K. Burke and M. Ernzerhof, Phys. Rev. Lett. 77, 3865 (1996)

   Pseudopotentials:
      M Schlipf and F Gygi, Comput. Phys. Commun. 196, 36 (2015)

   Truncated Coulomb potentials:
      R. Sundararaman and T.A. Arias, Phys. Rev. B 87, 165122 (2013)

   Total energy minimization with Auxiliary Hamiltonian:
      C. Freysoldt, S. Boeck, and J. Neugebauer, Phys. Rev. B 79, 241103(R) (2009)

This list may not be complete. Please suggest additional citations or
report any other bugs at https://github.com/shankar1729/jdftx/issues

Initialization completed successfully at t[s]:     31.74


-------- Electronic minimization -----------
	FillingsUpdate:  mu: -0.083321573  nElectrons: 9.000000
ElecMinimize: Iter:   0  F: -24.436021972641392  |grad|_K:  1.648e-06  alpha:  1.000e+00
ElecMinimize: 	Predicted alpha/alphaT>3.000000, increasing alphaT to 3.000000e+00.
	FillingsUpdate:  mu: -0.082734692  nElectrons: 9.000000
	SubspaceRotationAdjust: set factor to 1
ElecMinimize: Iter:   1  F: -24.436699673850878  |grad|_K:  3.000e-06  alpha:  6.104e+00  linmin:  1.304e-04  t[s]:     51.97
	FillingsUpdate:  mu: -0.082744197  nElectrons: 9.000000
	SubspaceRotationAdjust: set factor to 1.03
ElecMinimize: Iter:   2  F: -24.436710748324899  |grad|_K:  2.948e-06  alpha:  1.530e-02  linmin: -1.000e-03  t[s]:     62.46
ElecMinimize: 	Predicted alpha/alphaT>3.000000, increasing alphaT to 4.588557e-02.
ElecMinimize: 	Predicted alpha/alphaT>3.000000, increasing alphaT to 1.376567e-01.
ElecMinimize: 	Predicted alpha/alphaT>3.000000, increasing alphaT to 4.129701e-01.
	FillingsUpdate:  mu: -0.083570592  nElectrons: 9.000000
	SubspaceRotationAdjust: set factor to 1.09
ElecMinimize: Iter:   3  F: -24.437134798765506  |grad|_K:  2.048e-06  alpha:  6.114e-01  linmin:  6.306e-05  t[s]:     79.54
	FillingsUpdate:  mu: -0.083777846  nElectrons: 9.000000
	SubspaceRotationAdjust: set factor to 0.965
ElecMinimize: Iter:   4  F: -24.437231283210480  |grad|_K:  2.184e-06  alpha:  5.501e-01  linmin:  1.435e-04  t[s]:     90.06
	FillingsUpdate:  mu: -0.083778674  nElectrons: 9.000000
	SubspaceRotationAdjust: set factor to 1.12
ElecMinimize: Iter:   5  F: -24.437232005146679  |grad|_K:  2.158e-06  alpha:  2.611e-03  linmin: -3.918e-04  t[s]:    100.55
ElecMinimize: 	Predicted alpha/alphaT>3.000000, increasing alphaT to 7.832839e-03.
ElecMinimize: 	Predicted alpha/alphaT>3.000000, increasing alphaT to 2.349852e-02.
ElecMinimize: 	Predicted alpha/alphaT>3.000000, increasing alphaT to 7.049555e-02.
	FillingsUpdate:  mu: -0.083829761  nElectrons: 9.000000
	SubspaceRotationAdjust: set factor to 0.814
ElecMinimize: Iter:   6  F: -24.437289988228684  |grad|_K:  2.559e-06  alpha:  2.799e-01  linmin:  1.319e-03  t[s]:    117.64
ElecMinimize: 	Bad step direction: g.d > 0.
ElecMinimize: 	Undoing step.
ElecMinimize: 	Step failed: resetting search direction.
	FillingsUpdate:  mu: -0.083829761  nElectrons: 9.000000
	SubspaceRotationAdjust: set factor to 0.657
ElecMinimize: Iter:   7  F: -24.437289988228677  |grad|_K:  2.298e-06  alpha:  0.000e+00
	FillingsUpdate:  mu: -0.083812144  nElectrons: 9.000000
	SubspaceRotationAdjust: set factor to 1.17
ElecMinimize: Iter:   8  F: -24.437411139097165  |grad|_K:  9.187e-07  alpha:  4.915e-01  linmin: -3.218e-03  t[s]:    135.38
	FillingsUpdate:  mu: -0.083819051  nElectrons: 9.000000
	SubspaceRotationAdjust: set factor to 1.11
ElecMinimize: Iter:   9  F: -24.437458883483114  |grad|_K:  5.719e-07  alpha:  9.662e-01  linmin: -1.629e-03  t[s]:    145.86
ElecMinimize: 	Predicted alpha/alphaT>3.000000, increasing alphaT to 2.898584e+00.
	FillingsUpdate:  mu: -0.083939430  nElectrons: 9.000000
	SubspaceRotationAdjust: set factor to 1.11
ElecMinimize: Iter:  10  F: -24.437511899273716  |grad|_K:  9.309e-07  alpha:  3.104e+00  linmin:  6.654e-05  t[s]:    159.64
	FillingsUpdate:  mu: -0.083939785  nElectrons: 9.000000
	SubspaceRotationAdjust: set factor to 1.54
ElecMinimize: Iter:  11  F: -24.437512084939943  |grad|_K:  9.278e-07  alpha:  2.738e-03  linmin: -1.947e-03  t[s]:    170.16
ElecMinimize: 	Predicted alpha/alphaT>3.000000, increasing alphaT to 8.213528e-03.
ElecMinimize: 	Predicted alpha/alphaT>3.000000, increasing alphaT to 2.464058e-02.
ElecMinimize: 	Predicted alpha/alphaT>3.000000, increasing alphaT to 7.392175e-02.
	FillingsUpdate:  mu: -0.084056331  nElectrons: 9.000000
	SubspaceRotationAdjust: set factor to 1.43
ElecMinimize: Iter:  12  F: -24.437557223066587  |grad|_K:  1.088e-06  alpha:  8.159e-01  linmin:  1.409e-03  t[s]:    187.22
	FillingsUpdate:  mu: -0.084057012  nElectrons: 9.000000
	SubspaceRotationAdjust: set factor to 1.72
ElecMinimize: Iter:  13  F: -24.437557712269179  |grad|_K:  1.107e-06  alpha:  3.026e-02  linmin: -3.531e-04  t[s]:    197.73
ElecMinimize: 	Predicted alpha/alphaT>3.000000, increasing alphaT to 9.077955e-02.
ElecMinimize: 	Predicted alpha/alphaT>3.000000, increasing alphaT to 2.723386e-01.
	FillingsUpdate:  mu: -0.084022658  nElectrons: 9.000000
	SubspaceRotationAdjust: set factor to 1.52
ElecMinimize: Iter:  14  F: -24.437574416366960  |grad|_K:  1.095e-06  alpha:  3.029e-01  linmin:  3.372e-04  t[s]:    214.73
	FillingsUpdate:  mu: -0.083987916  nElectrons: 9.000000
	SubspaceRotationAdjust: set factor to 1.19
ElecMinimize: Iter:  15  F: -24.437583859954401  |grad|_K:  9.567e-07  alpha:  2.088e-01  linmin:  1.199e-05  t[s]:    225.24
	FillingsUpdate:  mu: -0.083965894  nElectrons: 9.000000
	SubspaceRotationAdjust: set factor to 1.78
ElecMinimize: Iter:  16  F: -24.437592499322385  |grad|_K:  7.966e-07  alpha:  2.298e-01  linmin: -1.632e-04  t[s]:    235.80
	FillingsUpdate:  mu: -0.083962051  nElectrons: 9.000000
	SubspaceRotationAdjust: set factor to 2.05
ElecMinimize: Iter:  17  F: -24.437601617154275  |grad|_K:  6.653e-07  alpha:  3.230e-01  linmin: -4.282e-04  t[s]:    246.33
	FillingsUpdate:  mu: -0.083981793  nElectrons: 9.000000
	SubspaceRotationAdjust: set factor to 1.9
ElecMinimize: Iter:  18  F: -24.437608396656159  |grad|_K:  4.520e-07  alpha:  3.371e-01  linmin: -1.747e-04  t[s]:    256.84
	FillingsUpdate:  mu: -0.083998963  nElectrons: 9.000000
	SubspaceRotationAdjust: set factor to 2.49
ElecMinimize: Iter:  19  F: -24.437612090930337  |grad|_K:  4.277e-07  alpha:  4.305e-01  linmin:  1.605e-05  t[s]:    267.34
	FillingsUpdate:  mu: -0.083993117  nElectrons: 9.000000
	SubspaceRotationAdjust: set factor to 2.61
ElecMinimize: Iter:  20  F: -24.437616097471139  |grad|_K:  5.118e-07  alpha:  5.720e-01  linmin:  1.706e-04  t[s]:    277.85
	FillingsUpdate:  mu: -0.083974353  nElectrons: 9.000000
	SubspaceRotationAdjust: set factor to 3.07
ElecMinimize: Iter:  21  F: -24.437618096501861  |grad|_K:  5.181e-07  alpha:  1.805e-01  linmin: -2.695e-04  t[s]:    288.38
	FillingsUpdate:  mu: -0.083928989  nElectrons: 9.000000
	SubspaceRotationAdjust: set factor to 2.45
ElecMinimize: Iter:  22  F: -24.437621329607442  |grad|_K:  4.855e-07  alpha:  2.522e-01  linmin:  1.193e-04  t[s]:    298.89
	FillingsUpdate:  mu: -0.083904815  nElectrons: 9.000000
	SubspaceRotationAdjust: set factor to 2.57
ElecMinimize: Iter:  23  F: -24.437623019012808  |grad|_K:  3.761e-07  alpha:  1.839e-01  linmin: -2.077e-05  t[s]:    309.42
	FillingsUpdate:  mu: -0.083903763  nElectrons: 9.000000
	SubspaceRotationAdjust: set factor to 3.26
ElecMinimize: Iter:  24  F: -24.437624356678523  |grad|_K:  3.089e-07  alpha:  2.268e-01  linmin: -1.536e-04  t[s]:    319.95
	FillingsUpdate:  mu: -0.083923028  nElectrons: 9.000000
	SubspaceRotationAdjust: set factor to 3.08
ElecMinimize: Iter:  25  F: -24.437625546975905  |grad|_K:  2.759e-07  alpha:  2.865e-01  linmin: -1.145e-04  t[s]:    330.47
	FillingsUpdate:  mu: -0.083949265  nElectrons: 9.000000
	SubspaceRotationAdjust: set factor to 2.94
ElecMinimize: Iter:  26  F: -24.437626652587248  |grad|_K:  2.655e-07  alpha:  3.436e-01  linmin:  1.453e-05  t[s]:    341.04
	FillingsUpdate:  mu: -0.083958411  nElectrons: 9.000000
	SubspaceRotationAdjust: set factor to 3.94
ElecMinimize: Iter:  27  F: -24.437627510624779  |grad|_K:  2.340e-07  alpha:  2.972e-01  linmin:  3.121e-05  t[s]:    351.55
	FillingsUpdate:  mu: -0.083951476  nElectrons: 9.000000
	SubspaceRotationAdjust: set factor to 3.99
ElecMinimize: Iter:  28  F: -24.437628126168580  |grad|_K:  2.357e-07  alpha:  2.803e-01  linmin:  2.180e-05  t[s]:    362.09
	FillingsUpdate:  mu: -0.083939583  nElectrons: 9.000000
	SubspaceRotationAdjust: set factor to 3.58
ElecMinimize: Iter:  29  F: -24.437628789220216  |grad|_K:  2.486e-07  alpha:  2.952e-01  linmin: -2.399e-05  t[s]:    372.58
	FillingsUpdate:  mu: -0.083939585  nElectrons: 9.000000
	SubspaceRotationAdjust: set factor to 4.63
ElecMinimize: Iter:  30  F: -24.437629491346261  |grad|_K:  2.083e-07  alpha:  2.758e-01  linmin: -5.766e-05  t[s]:    383.08
	FillingsUpdate:  mu: -0.083952037  nElectrons: 9.000000
	SubspaceRotationAdjust: set factor to 4.65
ElecMinimize: Iter:  31  F: -24.437629987859548  |grad|_K:  1.813e-07  alpha:  2.754e-01  linmin: -1.630e-08  t[s]:    393.62
	FillingsUpdate:  mu: -0.083965691  nElectrons: 9.000000
	SubspaceRotationAdjust: set factor to 4.41
ElecMinimize: Iter:  32  F: -24.437630408327127  |grad|_K:  1.963e-07  alpha:  3.153e-01  linmin:  4.315e-05  t[s]:    404.18
	FillingsUpdate:  mu: -0.083967842  nElectrons: 9.000000
	SubspaceRotationAdjust: set factor to 4.51
ElecMinimize: Iter:  33  F: -24.437630825782289  |grad|_K:  1.927e-07  alpha:  2.741e-01  linmin:  1.784e-05  t[s]:    414.71
	FillingsUpdate:  mu: -0.083962499  nElectrons: 9.000000
	SubspaceRotationAdjust: set factor to 5.06
ElecMinimize: Iter:  34  F: -24.437631174501938  |grad|_K:  1.706e-07  alpha:  2.328e-01  linmin: -1.009e-05  t[s]:    425.24
	FillingsUpdate:  mu: -0.083963063  nElectrons: 9.000000
	SubspaceRotationAdjust: set factor to 5.23
ElecMinimize: Iter:  35  F: -24.437631516637179  |grad|_K:  1.729e-07  alpha:  2.823e-01  linmin: -6.806e-05  t[s]:    435.78
	FillingsUpdate:  mu: -0.083977089  nElectrons: 9.000000
	SubspaceRotationAdjust: set factor to 6.35
ElecMinimize: Iter:  36  F: -24.437631873215590  |grad|_K:  1.451e-07  alpha:  2.786e-01  linmin: -1.008e-05  t[s]:    446.30
	FillingsUpdate:  mu: -0.083990217  nElectrons: 9.000000
	SubspaceRotationAdjust: set factor to 6.07
ElecMinimize: Iter:  37  F: -24.437632093698841  |grad|_K:  1.359e-07  alpha:  2.539e-01  linmin:  2.314e-05  t[s]:    456.79
	FillingsUpdate:  mu: -0.083995146  nElectrons: 9.000000
	SubspaceRotationAdjust: set factor to 5.41
ElecMinimize: Iter:  38  F: -24.437632287236525  |grad|_K:  1.505e-07  alpha:  2.639e-01  linmin:  3.420e-05  t[s]:    467.31
	FillingsUpdate:  mu: -0.083995704  nElectrons: 9.000000
	SubspaceRotationAdjust: set factor to 5.63
ElecMinimize: Iter:  39  F: -24.437632491109078  |grad|_K:  1.309e-07  alpha:  2.266e-01  linmin: -8.071e-06  t[s]:    477.80
	FillingsUpdate:  mu: -0.084000071  nElectrons: 9.000000
	SubspaceRotationAdjust: set factor to 6.2
ElecMinimize: Iter:  40  F: -24.437632645699995  |grad|_K:  1.097e-07  alpha:  2.204e-01  linmin: -3.744e-05  t[s]:    488.30
	FillingsUpdate:  mu: -0.084010730  nElectrons: 9.000000
	SubspaceRotationAdjust: set factor to 6.2
ElecMinimize: Iter:  41  F: -24.437632784031010  |grad|_K:  1.123e-07  alpha:  2.733e-01  linmin: -5.756e-06  t[s]:    498.84
	FillingsUpdate:  mu: -0.084021119  nElectrons: 9.000000
	SubspaceRotationAdjust: set factor to 6.23
ElecMinimize: Iter:  42  F: -24.437632926271803  |grad|_K:  1.083e-07  alpha:  2.751e-01  linmin:  2.476e-05  t[s]:    509.32
	FillingsUpdate:  mu: -0.084023031  nElectrons: 9.000000
	SubspaceRotationAdjust: set factor to 6.81
ElecMinimize: Iter:  43  F: -24.437633026519840  |grad|_K:  9.555e-08  alpha:  2.131e-01  linmin:  4.095e-06  t[s]:    519.87
	FillingsUpdate:  mu: -0.084022508  nElectrons: 9.000000
	SubspaceRotationAdjust: set factor to 6.43
ElecMinimize: Iter:  44  F: -24.437633114502137  |grad|_K:  9.672e-08  alpha:  2.360e-01  linmin: -1.899e-05  t[s]:    530.38
	FillingsUpdate:  mu: -0.084025750  nElectrons: 9.000000
	SubspaceRotationAdjust: set factor to 7.01
ElecMinimize: Iter:  45  F: -24.437633204904632  |grad|_K:  8.312e-08  alpha:  2.334e-01  linmin: -1.874e-05  t[s]:    540.90
	FillingsUpdate:  mu: -0.084030278  nElectrons: 9.000000
	SubspaceRotationAdjust: set factor to 6.92
ElecMinimize: Iter:  46  F: -24.437633269065156  |grad|_K:  7.607e-08  alpha:  2.249e-01  linmin:  7.317e-06  t[s]:    551.44
	FillingsUpdate:  mu: -0.084031781  nElectrons: 9.000000
	SubspaceRotationAdjust: set factor to 6.31
ElecMinimize: Iter:  47  F: -24.437633328069712  |grad|_K:  8.125e-08  alpha:  2.524e-01  linmin:  2.541e-05  t[s]:    561.99
	FillingsUpdate:  mu: -0.084030180  nElectrons: 9.000000
	SubspaceRotationAdjust: set factor to 6.59
ElecMinimize: Iter:  48  F: -24.437633386720869  |grad|_K:  7.268e-08  alpha:  2.231e-01  linmin: -9.788e-07  t[s]:    572.54
	FillingsUpdate:  mu: -0.084029918  nElectrons: 9.000000
	SubspaceRotationAdjust: set factor to 7.1
ElecMinimize: Iter:  49  F: -24.437633432463972  |grad|_K:  6.332e-08  alpha:  2.123e-01  linmin: -1.879e-05  t[s]:    583.04
	FillingsUpdate:  mu: -0.084032550  nElectrons: 9.000000
	SubspaceRotationAdjust: set factor to 7.06
ElecMinimize: Iter:  50  F: -24.437633472570901  |grad|_K:  6.096e-08  alpha:  2.406e-01  linmin: -5.376e-06  t[s]:    593.58
	FillingsUpdate:  mu: -0.084034944  nElectrons: 9.000000
	SubspaceRotationAdjust: set factor to 7.43
	SubspaceRotationAdjust: resetting CG because factor has changed by 7.43395
ElecMinimize: 	State modified externally: resetting search direction.
ElecMinimize: Iter:  51  F: -24.437633507634185  |grad|_K:  5.564e-08  alpha:  2.300e-01
	FillingsUpdate:  mu: -0.084032364  nElectrons: 9.000000
	SubspaceRotationAdjust: set factor to 6.43
ElecMinimize: Iter:  52  F: -24.437633538345718  |grad|_K:  4.461e-08  alpha:  2.427e-01  linmin: -6.321e-06  t[s]:    620.88
ElecMinimize: 	Predicted alpha/alphaT>3.000000, increasing alphaT to 7.281047e-01.
	FillingsUpdate:  mu: -0.084032316  nElectrons: 9.000000
	SubspaceRotationAdjust: set factor to 5.67
ElecMinimize: Iter:  53  F: -24.437633601000456  |grad|_K:  3.724e-08  alpha:  7.678e-01  linmin:  1.823e-06  t[s]:    634.66
	FillingsUpdate:  mu: -0.084027124  nElectrons: 9.000000
	SubspaceRotationAdjust: set factor to 3.99
ElecMinimize: Iter:  54  F: -24.437633662500797  |grad|_K:  4.088e-08  alpha:  1.086e+00  linmin:  1.043e-08  t[s]:    645.14
	FillingsUpdate:  mu: -0.084027358  nElectrons: 9.000000
	SubspaceRotationAdjust: set factor to 2.31
ElecMinimize: Iter:  55  F: -24.437633683574361  |grad|_K:  2.598e-08  alpha:  3.081e-01  linmin: -3.192e-06  t[s]:    655.64
ElecMinimize: 	Predicted alpha/alphaT>3.000000, increasing alphaT to 9.243289e-01.
	FillingsUpdate:  mu: -0.084022487  nElectrons: 9.000000
	SubspaceRotationAdjust: set factor to 2.61
ElecMinimize: Iter:  56  F: -24.437633717043074  |grad|_K:  2.276e-08  alpha:  1.212e+00  linmin:  1.968e-06  t[s]:    669.41
	FillingsUpdate:  mu: -0.084018527  nElectrons: 9.000000
	SubspaceRotationAdjust: set factor to 1.79
ElecMinimize: Iter:  57  F: -24.437633732293968  |grad|_K:  1.580e-08  alpha:  7.203e-01  linmin: -2.850e-07  t[s]:    679.91
	FillingsUpdate:  mu: -0.084017542  nElectrons: 9.000000
	SubspaceRotationAdjust: set factor to 1.94
ElecMinimize: Iter:  58  F: -24.437633743515857  |grad|_K:  1.390e-08  alpha:  1.100e+00  linmin:  3.671e-07  t[s]:    690.46
	FillingsUpdate:  mu: -0.084016053  nElectrons: 9.000000
	SubspaceRotationAdjust: set factor to 1.79
ElecMinimize: Iter:  59  F: -24.437633751591019  |grad|_K:  1.049e-08  alpha:  1.022e+00  linmin:  6.616e-07  t[s]:    700.98
	FillingsUpdate:  mu: -0.084014321  nElectrons: 9.000000
	SubspaceRotationAdjust: set factor to 1.71
ElecMinimize: Iter:  60  F: -24.437633756287273  |grad|_K:  7.873e-09  alpha:  1.046e+00  linmin: -2.497e-07  t[s]:    711.56
ElecMinimize: Converged (|Delta F|<1.000000e-08 for 2 iters).
Setting wave functions to eigenvectors of Hamiltonian

# Ionic positions in lattice coordinates:
ion Rb   0.000000000000000   0.000000000000000   0.000000000000000 0

# Forces in Lattice coordinates:
force Rb   0.000000000000000  -0.000000000000000   0.000000000000000 0

# Energy components:
   Eewald =      -11.7194974677484787
       EH =        7.7937295149629371
     Eloc =      -23.0161794615360797
      Enl =       -0.7975489613795703
   Epulay =        0.0000000013301796
      Exc =       -3.6458166125602274
       KE =        6.9476793013932632
-------------------------------------
     Etot =      -24.4376336855379748
       TS =        0.0000000707492992
-------------------------------------
        F =      -24.4376337562872727

IonicMinimize: Iter:   0  F: -24.437633756287273  |grad|_K:  0.000e+00  t[s]:    712.77
IonicMinimize: Converged (|grad|_K<1.000000e-04).

#--- Lowdin population analysis ---
# oxidation-state Rb +0.027

End date and time: Sun Jan 16 16:10:41 2022  (Duration: 0-0:11:53.00)
Done!
