2.57
--------------------------------------------------------------------------
The library attempted to open the following supporting CUDA libraries,
but each of them failed.  CUDA-aware support is disabled.
libcuda.so.1: cannot open shared object file: No such file or directory
libcuda.dylib: cannot open shared object file: No such file or directory
/usr/lib64/libcuda.so.1: cannot open shared object file: No such file or directory
/usr/lib64/libcuda.dylib: cannot open shared object file: No such file or directory
If you are not interested in CUDA-aware support, then run with
--mca opal_warn_on_missing_libcuda 0 to suppress this message.  If you are interested
in CUDA-aware support, then try setting LD_LIBRARY_PATH to the location
of libcuda.so.1 to get passed this issue.
--------------------------------------------------------------------------
--------------------------------------------------------------------------
No OpenFabrics connection schemes reported that they were able to be
used on a specific port.  As such, the openib BTL (OpenFabrics
support) will be disabled for this port.

  Local host:           d-4-3-2
  Local device:         mlx5_1
  Local port:           1
  CPCs attempted:       rdmacm, udcm
--------------------------------------------------------------------------

*************** JDFTx 1.6.0 (git hash 42ebbcc2) ***************

Start date and time: Sun Jan 16 15:55:03 2022
Executable jdftx with command-line: -i Rubidium.in
Running on hosts (process indices):  d-4-3-2 (0-18)
Divided in process groups (process indices):  0 (0)  1 (1)  2 (2)  3 (3)  4 (4)  5 (5)  6 (6)  7 (7)  8 (8)  9 (9)  10 (10)  11 (11)  12 (12)  13 (13)  14 (14)  15 (15)  16 (16)  17 (17)  18 (18)
Resource initialization completed at t[s]:      0.00
Run totals: 19 processes, 48 threads, 0 GPUs


Input parsed successfully to the following command list (including defaults):

basis kpoint-dependent
coords-type Lattice
core-overlap-check vector
coulomb-interaction Slab 001
davidson-band-ratio 1.1
dump End None
dump-name $INPUT.$VAR
elec-cutoff 20 100
elec-eigen-algo Davidson
elec-ex-corr gga-PBE
elec-smearing Fermi 1e-05
electronic-minimize  \
	dirUpdateScheme      FletcherReeves \
	linminMethod         DirUpdateRecommended \
	nIterations          10000 \
	history              15 \
	knormThreshold       0 \
	energyDiffThreshold  1e-08 \
	nEnergyDiff          2 \
	alphaTstart          1 \
	alphaTmin            1e-10 \
	updateTestStepSize   yes \
	alphaTreduceFactor   0.1 \
	alphaTincreaseFactor 3 \
	nAlphaAdjustMax      3 \
	wolfeEnergy          0.0001 \
	wolfeGradient        0.9 \
	fdTest               no
exchange-regularization WignerSeitzTruncated
fluid None
fluid-ex-corr (null) lda-PZ
fluid-gummel-loop 10 1.000000e-05
fluid-minimize  \
	dirUpdateScheme      PolakRibiere \
	linminMethod         DirUpdateRecommended \
	nIterations          100 \
	history              15 \
	knormThreshold       0 \
	energyDiffThreshold  0 \
	nEnergyDiff          2 \
	alphaTstart          1 \
	alphaTmin            1e-10 \
	updateTestStepSize   yes \
	alphaTreduceFactor   0.1 \
	alphaTincreaseFactor 3 \
	nAlphaAdjustMax      3 \
	wolfeEnergy          0.0001 \
	wolfeGradient        0.9 \
	fdTest               no
fluid-solvent H2O 55.338 ScalarEOS \
	epsBulk 78.4 \
	pMol 0.92466 \
	epsInf 1.77 \
	Pvap 1.06736e-10 \
	sigmaBulk 4.62e-05 \
	Rvdw 2.61727 \
	Res 1.42 \
	tauNuc 343133 \
	poleEl 15 7 1
forces-output-coords Positions
ion Rb   0.000000000000000   0.000000000000000   0.000000000000000 0
ion-species SG15/$ID_ONCV_PBE.upf
ion-width 0
ionic-minimize  \
	dirUpdateScheme      L-BFGS \
	linminMethod         DirUpdateRecommended \
	nIterations          0 \
	history              15 \
	knormThreshold       0.0001 \
	energyDiffThreshold  1e-06 \
	nEnergyDiff          2 \
	alphaTstart          1 \
	alphaTmin            1e-10 \
	updateTestStepSize   yes \
	alphaTreduceFactor   0.1 \
	alphaTincreaseFactor 3 \
	nAlphaAdjustMax      3 \
	wolfeEnergy          0.0001 \
	wolfeGradient        0.9 \
	fdTest               no
kpoint   0.000000000000   0.000000000000   0.000000000000  1.00000000000000
kpoint-folding 48 48 1 
latt-move-scale 1 1 1
latt-scale 2.57 2.57 1 
lattice  \
	   4.727486978767153   -2.363743489383574    0.000000000000000  \
	  -0.000000000000000    4.094123819672498    0.000000000000000  \
	   0.000000000000000    0.000000000000000   40.000000000000000 
lattice-minimize  \
	dirUpdateScheme      L-BFGS \
	linminMethod         DirUpdateRecommended \
	nIterations          0 \
	history              15 \
	knormThreshold       0 \
	energyDiffThreshold  1e-06 \
	nEnergyDiff          2 \
	alphaTstart          1 \
	alphaTmin            1e-10 \
	updateTestStepSize   yes \
	alphaTreduceFactor   0.1 \
	alphaTincreaseFactor 3 \
	nAlphaAdjustMax      3 \
	wolfeEnergy          0.0001 \
	wolfeGradient        0.9 \
	fdTest               no
lcao-params -1 1e-06 1e-05
pcm-variant GLSSA13
spintype no-spin
subspace-rotation-factor 1 yes
symmetries automatic
symmetry-threshold 0.0001



---------- Setting up symmetries ----------

Found 24 point-group symmetries of the bravais lattice
Found 24 space-group symmetries with basis
Applied RMS atom displacement 0 bohrs to make symmetries exact.

---------- Initializing the Grid ----------
R = 
[      12.1496     -6.07482            0  ]
[            0      10.5219            0  ]
[            0            0           40  ]
unit cell volume = 5113.49
G =
[    0.51715   0.298577         -0  ]
[          0   0.597153         -0  ]
[         -0         -0    0.15708  ]
Minimum fftbox size, Smin = [  56  56  184  ]
Chosen fftbox size, S = [  56  56  192  ]

---------- Initializing tighter grid for wavefunction operations ----------
R = 
[      12.1496     -6.07482            0  ]
[            0      10.5219            0  ]
[            0            0           40  ]
unit cell volume = 5113.49
G =
[    0.51715   0.298577         -0  ]
[          0   0.597153         -0  ]
[         -0         -0    0.15708  ]
Minimum fftbox size, Smin = [  52  52  164  ]
Chosen fftbox size, S = [  54  54  168  ]

---------- Exchange Correlation functional ----------
Initalized PBE GGA exchange.
Initalized PBE GGA correlation.

---------- Setting up pseudopotentials ----------
Width of ionic core gaussian charges (only for fluid interactions / plotting) set to 0

Reading pseudopotential file '/home/gridsan/aligho/DFT/build-Nov24/pseudopotentials/SG15/Rb_ONCV_PBE.upf':
  'Rb' pseudopotential, 'PBE' functional
  Generated using ONCVPSP code by D. R. Hamann
  Author: Martin Schlipf and Francois Gygi  Date: 150915.
  9 valence electrons, 3 orbitals, 6 projectors, 2308 radial grid points, with lMax = 2
  Transforming local potential to a uniform radial grid of dG=0.02 with 1638 points.
  Transforming nonlocal projectors to a uniform radial grid of dG=0.02 with 432 points.
    4S    l: 0   occupation:  2.0   eigenvalue: -1.172069
    4P    l: 1   occupation:  6.0   eigenvalue: -0.586674
    5S    l: 0   occupation:  1.0   eigenvalue: -0.082006
  Transforming atomic orbitals to a uniform radial grid of dG=0.02 with 432 points.
  Core radius for overlap checks: 2.60 bohrs.
  Reading pulay file /home/gridsan/aligho/DFT/build-Nov24/pseudopotentials/SG15/Rb_ONCV_PBE.pulay ... using dE_dnG = -1.360715e-05 computed for Ecut = 20.

Initialized 1 species with 1 total atoms.

Folded 1 k-points by 48x48x1 to 2304 k-points.

---------- Setting up k-points, bands, fillings ----------
Reduced to 217 k-points under symmetry. 
Computing the number of bands and number of electrons
Calculating initial fillings.
nElectrons:   9.000000   nBands: 6   nStates: 217

----- Setting up reduced wavefunction bases (one per k-point) -----
average nbasis = 21846.225 , ideal nbasis = 21845.226

---------- Setting up coulomb interaction ----------
Initialized slab truncation along lattice direction 001

---------- Setting up 2D ewald sum ----------
Optimum gaussian width for ewald sums = 6.744991 bohr.
Real space sums over 289 unit cells with max indices [  8  8  0  ]
Reciprocal space sums over 81 terms with max indices [  4  4  0  ]

---------- Allocating electronic variables ----------
Initializing wave functions:  linear combination of atomic orbitals
Note: number of bands (6) exceeds available atomic orbitals (5)
Rb pseudo-atom occupations:   s ( 2 1 )  p ( 6 )
[d-4-3-2:68254] 18 more processes have sent help message help-mpi-common-cuda.txt / dlopen failed
[d-4-3-2:68254] Set MCA parameter "orte_base_help_aggregate" to 0 to see all help / error messages
[d-4-3-2:68254] 18 more processes have sent help message help-mpi-btl-openib-cpc-base.txt / no cpcs for port
	FillingsUpdate:  mu: -0.085685144  nElectrons: 9.000000
LCAOMinimize: Iter:   0  F: -24.4431736618327768  |grad|_K:  7.327e-06  alpha:  1.000e+00
	FillingsUpdate:  mu: -0.085680665  nElectrons: 9.000000
LCAOMinimize: Iter:   1  F: -24.4431738681572206  |grad|_K:  5.983e-08  alpha:  9.841e-01  linmin: -1.791e-02  cgtest:  3.522e-01  t[s]:     18.02
LCAOMinimize: Encountered beta<0, resetting CG.
	FillingsUpdate:  mu: -0.085680667  nElectrons: 9.000000
LCAOMinimize: Iter:   2  F: -24.4431738681713746  |grad|_K:  8.669e-10  alpha:  1.015e+00  linmin:  7.017e-02  cgtest: -9.821e-01  t[s]:     24.62
LCAOMinimize: Converged (|Delta F|<1.000000e-06 for 2 iters).


---- Citations for features of the code used in this run ----

   Software package:
      R. Sundararaman, K. Letchworth-Weaver, K.A. Schwarz, D. Gunceler, Y. Ozhabes and T.A. Arias, 'JDFTx: software for joint density-functional theory', SoftwareX 6, 278 (2017)

   gga-PBE exchange-correlation functional:
      J.P. Perdew, K. Burke and M. Ernzerhof, Phys. Rev. Lett. 77, 3865 (1996)

   Pseudopotentials:
      M Schlipf and F Gygi, Comput. Phys. Commun. 196, 36 (2015)

   Truncated Coulomb potentials:
      R. Sundararaman and T.A. Arias, Phys. Rev. B 87, 165122 (2013)

   Total energy minimization with Auxiliary Hamiltonian:
      C. Freysoldt, S. Boeck, and J. Neugebauer, Phys. Rev. B 79, 241103(R) (2009)

This list may not be complete. Please suggest additional citations or
report any other bugs at https://github.com/shankar1729/jdftx/issues

Initialization completed successfully at t[s]:     25.20


-------- Electronic minimization -----------
	FillingsUpdate:  mu: -0.085680667  nElectrons: 9.000000
ElecMinimize: Iter:   0  F: -24.443173868171378  |grad|_K:  3.242e-06  alpha:  1.000e+00
ElecMinimize: 	Predicted alpha/alphaT>3.000000, increasing alphaT to 3.000000e+00.
	FillingsUpdate:  mu: -0.085347933  nElectrons: 9.000000
	SubspaceRotationAdjust: set factor to 1
ElecMinimize: Iter:   1  F: -24.445046916295123  |grad|_K:  4.649e-06  alpha:  6.254e+00  linmin:  3.661e-04  t[s]:     41.37
	FillingsUpdate:  mu: -0.085372609  nElectrons: 9.000000
	SubspaceRotationAdjust: set factor to 1.06
ElecMinimize: Iter:   2  F: -24.445081084983876  |grad|_K:  4.485e-06  alpha:  2.861e-02  linmin: -1.756e-03  t[s]:     49.84
ElecMinimize: 	Predicted alpha/alphaT>3.000000, increasing alphaT to 8.583050e-02.
ElecMinimize: 	Predicted alpha/alphaT>3.000000, increasing alphaT to 2.574915e-01.
	FillingsUpdate:  mu: -0.086136131  nElectrons: 9.000000
	SubspaceRotationAdjust: set factor to 1.11
ElecMinimize: Iter:   3  F: -24.445772208652688  |grad|_K:  3.054e-06  alpha:  6.381e-01  linmin:  2.728e-04  t[s]:     63.48
	FillingsUpdate:  mu: -0.086051494  nElectrons: 9.000000
	SubspaceRotationAdjust: set factor to 1.07
ElecMinimize: Iter:   4  F: -24.445880792154359  |grad|_K:  2.996e-06  alpha:  4.061e-01  linmin: -7.477e-05  t[s]:     71.92
	FillingsUpdate:  mu: -0.085924733  nElectrons: 9.000000
	SubspaceRotationAdjust: set factor to 1.23
ElecMinimize: Iter:   5  F: -24.445960979542907  |grad|_K:  2.732e-06  alpha:  2.270e-01  linmin: -1.672e-04  t[s]:     80.31
	FillingsUpdate:  mu: -0.085758451  nElectrons: 9.000000
	SubspaceRotationAdjust: set factor to 1.14
ElecMinimize: Iter:   6  F: -24.446014675945477  |grad|_K:  2.814e-06  alpha:  2.106e-01  linmin:  1.392e-04  t[s]:     88.71
	FillingsUpdate:  mu: -0.085643700  nElectrons: 9.000000
	SubspaceRotationAdjust: set factor to 0.952
ElecMinimize: Iter:   7  F: -24.446039577136570  |grad|_K:  2.923e-06  alpha:  1.112e-01  linmin: -2.893e-05  t[s]:     97.09
	FillingsUpdate:  mu: -0.085502539  nElectrons: 9.000000
	SubspaceRotationAdjust: set factor to 0.953
ElecMinimize: Iter:   8  F: -24.446072594109431  |grad|_K:  2.893e-06  alpha:  1.323e-01  linmin: -3.263e-05  t[s]:    105.50
	FillingsUpdate:  mu: -0.085370551  nElectrons: 9.000000
	SubspaceRotationAdjust: set factor to 1.18
ElecMinimize: Iter:   9  F: -24.446107495063906  |grad|_K:  2.986e-06  alpha:  1.439e-01  linmin:  3.796e-06  t[s]:    113.94
	FillingsUpdate:  mu: -0.085310891  nElectrons: 9.000000
	SubspaceRotationAdjust: set factor to 1.6
ElecMinimize: Iter:  10  F: -24.446141132414226  |grad|_K:  2.956e-06  alpha:  1.334e-01  linmin: -6.505e-05  t[s]:    122.32
	FillingsUpdate:  mu: -0.085317781  nElectrons: 9.000000
	SubspaceRotationAdjust: set factor to 1.9
ElecMinimize: Iter:  11  F: -24.446175111953966  |grad|_K:  2.911e-06  alpha:  1.340e-01  linmin: -6.143e-04  t[s]:    130.67
	FillingsUpdate:  mu: -0.085340766  nElectrons: 9.000000
	SubspaceRotationAdjust: set factor to 2.26
ElecMinimize: Iter:  12  F: -24.446194097268837  |grad|_K:  2.327e-06  alpha:  8.860e-02  linmin: -2.109e-04  t[s]:    139.07
	FillingsUpdate:  mu: -0.085348369  nElectrons: 9.000000
	SubspaceRotationAdjust: set factor to 2.77
ElecMinimize: Iter:  13  F: -24.446232369120128  |grad|_K:  2.022e-06  alpha:  2.003e-01  linmin: -2.970e-04  t[s]:    147.40
	FillingsUpdate:  mu: -0.085184003  nElectrons: 9.000000
	SubspaceRotationAdjust: set factor to 3.54
ElecMinimize: Iter:  14  F: -24.446274644605129  |grad|_K:  1.668e-06  alpha:  2.952e-01  linmin: -2.553e-05  t[s]:    155.76
	FillingsUpdate:  mu: -0.084962745  nElectrons: 9.000000
	SubspaceRotationAdjust: set factor to 3.86
ElecMinimize: Iter:  15  F: -24.446295828716703  |grad|_K:  1.446e-06  alpha:  2.594e-01  linmin:  9.005e-05  t[s]:    164.18
	FillingsUpdate:  mu: -0.084815686  nElectrons: 9.000000
	SubspaceRotationAdjust: set factor to 3.87
ElecMinimize: Iter:  16  F: -24.446307669258612  |grad|_K:  1.414e-06  alpha:  1.930e-01  linmin:  1.242e-05  t[s]:    172.60
	FillingsUpdate:  mu: -0.084749046  nElectrons: 9.000000
	SubspaceRotationAdjust: set factor to 4.23
ElecMinimize: Iter:  17  F: -24.446316072379005  |grad|_K:  1.478e-06  alpha:  1.385e-01  linmin:  2.567e-06  t[s]:    180.99
	FillingsUpdate:  mu: -0.084752361  nElectrons: 9.000000
	SubspaceRotationAdjust: set factor to 3.42
ElecMinimize: Iter:  18  F: -24.446322677197724  |grad|_K:  1.572e-06  alpha:  1.009e-01  linmin:  6.633e-06  t[s]:    189.35
	FillingsUpdate:  mu: -0.084813860  nElectrons: 9.000000
	SubspaceRotationAdjust: set factor to 2.99
ElecMinimize: Iter:  19  F: -24.446328424898596  |grad|_K:  1.422e-06  alpha:  8.214e-02  linmin:  5.747e-06  t[s]:    197.70
	FillingsUpdate:  mu: -0.084894632  nElectrons: 9.000000
	SubspaceRotationAdjust: set factor to 3.84
ElecMinimize: Iter:  20  F: -24.446333413144892  |grad|_K:  1.185e-06  alpha:  8.672e-02  linmin: -1.287e-04  t[s]:    206.07
	FillingsUpdate:  mu: -0.084959373  nElectrons: 9.000000
	SubspaceRotationAdjust: set factor to 4.74
ElecMinimize: Iter:  21  F: -24.446337883163668  |grad|_K:  1.044e-06  alpha:  1.051e-01  linmin: -1.100e-04  t[s]:    214.47
	FillingsUpdate:  mu: -0.084991631  nElectrons: 9.000000
	SubspaceRotationAdjust: set factor to 5.55
ElecMinimize: Iter:  22  F: -24.446343268718817  |grad|_K:  9.496e-07  alpha:  1.504e-01  linmin: -1.013e-04  t[s]:    222.84
	FillingsUpdate:  mu: -0.084953370  nElectrons: 9.000000
	SubspaceRotationAdjust: set factor to 6.55
ElecMinimize: Iter:  23  F: -24.446349352267003  |grad|_K:  8.694e-07  alpha:  2.066e-01  linmin: -2.727e-05  t[s]:    231.24
	FillingsUpdate:  mu: -0.084889701  nElectrons: 9.000000
	SubspaceRotationAdjust: set factor to 7.64
	SubspaceRotationAdjust: resetting CG because factor has changed by 7.63585
ElecMinimize: 	State modified externally: resetting search direction.
ElecMinimize: Iter:  24  F: -24.446353453440114  |grad|_K:  8.319e-07  alpha:  1.842e-01
	FillingsUpdate:  mu: -0.085015807  nElectrons: 9.000000
	SubspaceRotationAdjust: set factor to 4.97
ElecMinimize: Iter:  25  F: -24.446358526565124  |grad|_K:  9.201e-07  alpha:  2.937e-01  linmin:  3.667e-04  t[s]:    253.06
	FillingsUpdate:  mu: -0.085031814  nElectrons: 9.000000
	SubspaceRotationAdjust: set factor to 3.12
ElecMinimize: Iter:  26  F: -24.446363802163368  |grad|_K:  7.303e-07  alpha:  3.263e-01  linmin:  4.809e-05  t[s]:    261.45
	FillingsUpdate:  mu: -0.084982738  nElectrons: 9.000000
	SubspaceRotationAdjust: set factor to 2.96
ElecMinimize: Iter:  27  F: -24.446366511297629  |grad|_K:  3.840e-07  alpha:  2.010e-01  linmin:  9.183e-06  t[s]:    269.88
ElecMinimize: 	Predicted alpha/alphaT>3.000000, increasing alphaT to 6.028637e-01.
	FillingsUpdate:  mu: -0.084985792  nElectrons: 9.000000
	SubspaceRotationAdjust: set factor to 2.2
ElecMinimize: Iter:  28  F: -24.446369218589108  |grad|_K:  3.860e-07  alpha:  6.466e-01  linmin: -9.228e-05  t[s]:    280.81
	FillingsUpdate:  mu: -0.085079856  nElectrons: 9.000000
	SubspaceRotationAdjust: set factor to 2.5
ElecMinimize: Iter:  29  F: -24.446371978497751  |grad|_K:  3.133e-07  alpha:  6.245e-01  linmin:  3.449e-05  t[s]:    289.26
	FillingsUpdate:  mu: -0.085148286  nElectrons: 9.000000
	SubspaceRotationAdjust: set factor to 2.13
ElecMinimize: Iter:  30  F: -24.446373662140214  |grad|_K:  3.188e-07  alpha:  6.157e-01  linmin:  8.577e-05  t[s]:    297.62
	FillingsUpdate:  mu: -0.085175624  nElectrons: 9.000000
	SubspaceRotationAdjust: set factor to 3.36
ElecMinimize: Iter:  31  F: -24.446375232470444  |grad|_K:  2.800e-07  alpha:  5.782e-01  linmin: -1.844e-06  t[s]:    305.97
	FillingsUpdate:  mu: -0.085185709  nElectrons: 9.000000
	SubspaceRotationAdjust: set factor to 2.8
ElecMinimize: Iter:  32  F: -24.446376440564659  |grad|_K:  2.173e-07  alpha:  5.442e-01  linmin: -7.397e-05  t[s]:    314.36
	FillingsUpdate:  mu: -0.085221927  nElectrons: 9.000000
	SubspaceRotationAdjust: set factor to 3.98
ElecMinimize: Iter:  33  F: -24.446377217391412  |grad|_K:  1.313e-07  alpha:  5.581e-01  linmin: -4.006e-06  t[s]:    322.83
	FillingsUpdate:  mu: -0.085250754  nElectrons: 9.000000
	SubspaceRotationAdjust: set factor to 2.89
ElecMinimize: Iter:  34  F: -24.446377499102820  |grad|_K:  1.103e-07  alpha:  5.752e-01  linmin:  3.896e-05  t[s]:    331.26
	FillingsUpdate:  mu: -0.085258267  nElectrons: 9.000000
	SubspaceRotationAdjust: set factor to 3.65
ElecMinimize: Iter:  35  F: -24.446377746172654  |grad|_K:  7.540e-08  alpha:  7.382e-01  linmin:  7.820e-06  t[s]:    339.68
	FillingsUpdate:  mu: -0.085262837  nElectrons: 9.000000
	SubspaceRotationAdjust: set factor to 2.93
ElecMinimize: Iter:  36  F: -24.446377866067838  |grad|_K:  7.009e-08  alpha:  7.430e-01  linmin: -2.550e-05  t[s]:    348.11
	FillingsUpdate:  mu: -0.085283229  nElectrons: 9.000000
	SubspaceRotationAdjust: set factor to 2.32
ElecMinimize: Iter:  37  F: -24.446377973444594  |grad|_K:  5.035e-08  alpha:  7.547e-01  linmin:  1.121e-05  t[s]:    356.56
	FillingsUpdate:  mu: -0.085293884  nElectrons: 9.000000
	SubspaceRotationAdjust: set factor to 2.38
ElecMinimize: Iter:  38  F: -24.446378034179926  |grad|_K:  3.730e-08  alpha:  8.492e-01  linmin:  3.662e-06  t[s]:    364.94
	FillingsUpdate:  mu: -0.085298837  nElectrons: 9.000000
	SubspaceRotationAdjust: set factor to 1.97
ElecMinimize: Iter:  39  F: -24.446378065901996  |grad|_K:  2.561e-08  alpha:  8.035e-01  linmin: -8.380e-06  t[s]:    373.31
	FillingsUpdate:  mu: -0.085304444  nElectrons: 9.000000
	SubspaceRotationAdjust: set factor to 2.04
ElecMinimize: Iter:  40  F: -24.446378081499152  |grad|_K:  1.893e-08  alpha:  8.334e-01  linmin:  1.107e-07  t[s]:    381.74
	FillingsUpdate:  mu: -0.085308469  nElectrons: 9.000000
	SubspaceRotationAdjust: set factor to 1.89
ElecMinimize: Iter:  41  F: -24.446378091894996  |grad|_K:  1.585e-08  alpha:  1.021e+00  linmin:  2.979e-06  t[s]:    390.15
	FillingsUpdate:  mu: -0.085309711  nElectrons: 9.000000
	SubspaceRotationAdjust: set factor to 1.84
ElecMinimize: Iter:  42  F: -24.446378098485351  |grad|_K:  1.251e-08  alpha:  9.243e-01  linmin:  6.222e-07  t[s]:    398.56
	FillingsUpdate:  mu: -0.085311727  nElectrons: 9.000000
	SubspaceRotationAdjust: set factor to 1.84
ElecMinimize: Iter:  43  F: -24.446378103284665  |grad|_K:  1.103e-08  alpha:  1.079e+00  linmin: -9.691e-07  t[s]:    406.96
ElecMinimize: Converged (|Delta F|<1.000000e-08 for 2 iters).
Setting wave functions to eigenvectors of Hamiltonian

# Ionic positions in lattice coordinates:
ion Rb   0.000000000000000   0.000000000000000   0.000000000000000 0

# Forces in Lattice coordinates:
force Rb  -0.000000000000000  -0.000000000000000   0.000000000000000 0

# Energy components:
   Eewald =      -14.0451564983133537
       EH =        5.5246482577199290
     Eloc =      -18.4233233656691944
      Enl =       -0.7992517583132706
   Epulay =        0.0000000026588658
      Exc =       -3.6537421030086099
       KE =        6.9504474323902707
-------------------------------------
     Etot =      -24.4463780325353675
       TS =        0.0000000707492985
-------------------------------------
        F =      -24.4463781032846654

IonicMinimize: Iter:   0  F: -24.446378103284665  |grad|_K:  0.000e+00  t[s]:    407.82
IonicMinimize: Converged (|grad|_K<1.000000e-04).

#--- Lowdin population analysis ---
# oxidation-state Rb +0.038

End date and time: Sun Jan 16 16:01:51 2022  (Duration: 0-0:06:48.00)
Done!
