2.99
--------------------------------------------------------------------------
The library attempted to open the following supporting CUDA libraries,
but each of them failed.  CUDA-aware support is disabled.
libcuda.so.1: cannot open shared object file: No such file or directory
libcuda.dylib: cannot open shared object file: No such file or directory
/usr/lib64/libcuda.so.1: cannot open shared object file: No such file or directory
/usr/lib64/libcuda.dylib: cannot open shared object file: No such file or directory
If you are not interested in CUDA-aware support, then run with
--mca opal_warn_on_missing_libcuda 0 to suppress this message.  If you are interested
in CUDA-aware support, then try setting LD_LIBRARY_PATH to the location
of libcuda.so.1 to get passed this issue.
--------------------------------------------------------------------------
--------------------------------------------------------------------------
No OpenFabrics connection schemes reported that they were able to be
used on a specific port.  As such, the openib BTL (OpenFabrics
support) will be disabled for this port.

  Local host:           d-6-6-4
  Local device:         mlx5_1
  Local port:           1
  CPCs attempted:       rdmacm, udcm
--------------------------------------------------------------------------

*************** JDFTx 1.6.0 (git hash 42ebbcc2) ***************

Start date and time: Sun Jan 16 15:58:16 2022
Executable jdftx with command-line: -i Rubidium.in
Running on hosts (process indices):  d-6-6-4 (0-18)
Divided in process groups (process indices):  0 (0)  1 (1)  2 (2)  3 (3)  4 (4)  5 (5)  6 (6)  7 (7)  8 (8)  9 (9)  10 (10)  11 (11)  12 (12)  13 (13)  14 (14)  15 (15)  16 (16)  17 (17)  18 (18)
Resource initialization completed at t[s]:      0.00
Run totals: 19 processes, 48 threads, 0 GPUs


Input parsed successfully to the following command list (including defaults):

basis kpoint-dependent
coords-type Lattice
core-overlap-check vector
coulomb-interaction Slab 001
davidson-band-ratio 1.1
dump End None
dump-name $INPUT.$VAR
elec-cutoff 20 100
elec-eigen-algo Davidson
elec-ex-corr gga-PBE
elec-smearing Fermi 1e-05
electronic-minimize  \
	dirUpdateScheme      FletcherReeves \
	linminMethod         DirUpdateRecommended \
	nIterations          10000 \
	history              15 \
	knormThreshold       0 \
	energyDiffThreshold  1e-08 \
	nEnergyDiff          2 \
	alphaTstart          1 \
	alphaTmin            1e-10 \
	updateTestStepSize   yes \
	alphaTreduceFactor   0.1 \
	alphaTincreaseFactor 3 \
	nAlphaAdjustMax      3 \
	wolfeEnergy          0.0001 \
	wolfeGradient        0.9 \
	fdTest               no
exchange-regularization WignerSeitzTruncated
fluid None
fluid-ex-corr (null) lda-PZ
fluid-gummel-loop 10 1.000000e-05
fluid-minimize  \
	dirUpdateScheme      PolakRibiere \
	linminMethod         DirUpdateRecommended \
	nIterations          100 \
	history              15 \
	knormThreshold       0 \
	energyDiffThreshold  0 \
	nEnergyDiff          2 \
	alphaTstart          1 \
	alphaTmin            1e-10 \
	updateTestStepSize   yes \
	alphaTreduceFactor   0.1 \
	alphaTincreaseFactor 3 \
	nAlphaAdjustMax      3 \
	wolfeEnergy          0.0001 \
	wolfeGradient        0.9 \
	fdTest               no
fluid-solvent H2O 55.338 ScalarEOS \
	epsBulk 78.4 \
	pMol 0.92466 \
	epsInf 1.77 \
	Pvap 1.06736e-10 \
	sigmaBulk 4.62e-05 \
	Rvdw 2.61727 \
	Res 1.42 \
	tauNuc 343133 \
	poleEl 15 7 1
forces-output-coords Positions
ion Rb   0.000000000000000   0.000000000000000   0.000000000000000 0
ion-species SG15/$ID_ONCV_PBE.upf
ion-width 0
ionic-minimize  \
	dirUpdateScheme      L-BFGS \
	linminMethod         DirUpdateRecommended \
	nIterations          0 \
	history              15 \
	knormThreshold       0.0001 \
	energyDiffThreshold  1e-06 \
	nEnergyDiff          2 \
	alphaTstart          1 \
	alphaTmin            1e-10 \
	updateTestStepSize   yes \
	alphaTreduceFactor   0.1 \
	alphaTincreaseFactor 3 \
	nAlphaAdjustMax      3 \
	wolfeEnergy          0.0001 \
	wolfeGradient        0.9 \
	fdTest               no
kpoint   0.000000000000   0.000000000000   0.000000000000  1.00000000000000
kpoint-folding 48 48 1 
latt-move-scale 1 1 1
latt-scale 2.99 2.99 1 
lattice  \
	   4.727486978767153   -2.363743489383575    0.000000000000000  \
	  -0.000000000000000    4.094123819672498    0.000000000000000  \
	   0.000000000000000    0.000000000000000   40.000000000000000 
lattice-minimize  \
	dirUpdateScheme      L-BFGS \
	linminMethod         DirUpdateRecommended \
	nIterations          0 \
	history              15 \
	knormThreshold       0 \
	energyDiffThreshold  1e-06 \
	nEnergyDiff          2 \
	alphaTstart          1 \
	alphaTmin            1e-10 \
	updateTestStepSize   yes \
	alphaTreduceFactor   0.1 \
	alphaTincreaseFactor 3 \
	nAlphaAdjustMax      3 \
	wolfeEnergy          0.0001 \
	wolfeGradient        0.9 \
	fdTest               no
lcao-params -1 1e-06 1e-05
pcm-variant GLSSA13
spintype no-spin
subspace-rotation-factor 1 yes
symmetries automatic
symmetry-threshold 0.0001



---------- Setting up symmetries ----------

Found 24 point-group symmetries of the bravais lattice
Found 24 space-group symmetries with basis
Applied RMS atom displacement 0 bohrs to make symmetries exact.

---------- Initializing the Grid ----------
R = 
[      14.1352     -7.06759            0  ]
[            0      12.2414            0  ]
[            0            0           40  ]
unit cell volume = 6921.4
G =
[   0.444507   0.256636         -0  ]
[          0   0.513272         -0  ]
[         -0         -0    0.15708  ]
Minimum fftbox size, Smin = [  64  64  184  ]
Chosen fftbox size, S = [  64  64  192  ]

---------- Initializing tighter grid for wavefunction operations ----------
R = 
[      14.1352     -7.06759            0  ]
[            0      12.2414            0  ]
[            0            0           40  ]
unit cell volume = 6921.4
G =
[   0.444507   0.256636         -0  ]
[          0   0.513272         -0  ]
[         -0         -0    0.15708  ]
Minimum fftbox size, Smin = [  60  60  164  ]
Chosen fftbox size, S = [  60  60  168  ]

---------- Exchange Correlation functional ----------
Initalized PBE GGA exchange.
Initalized PBE GGA correlation.

---------- Setting up pseudopotentials ----------
Width of ionic core gaussian charges (only for fluid interactions / plotting) set to 0

Reading pseudopotential file '/home/gridsan/aligho/DFT/build-Nov24/pseudopotentials/SG15/Rb_ONCV_PBE.upf':
  'Rb' pseudopotential, 'PBE' functional
  Generated using ONCVPSP code by D. R. Hamann
  Author: Martin Schlipf and Francois Gygi  Date: 150915.
  9 valence electrons, 3 orbitals, 6 projectors, 2308 radial grid points, with lMax = 2
  Transforming local potential to a uniform radial grid of dG=0.02 with 1615 points.
  Transforming nonlocal projectors to a uniform radial grid of dG=0.02 with 432 points.
    4S    l: 0   occupation:  2.0   eigenvalue: -1.172069
    4P    l: 1   occupation:  6.0   eigenvalue: -0.586674
    5S    l: 0   occupation:  1.0   eigenvalue: -0.082006
  Transforming atomic orbitals to a uniform radial grid of dG=0.02 with 432 points.
  Core radius for overlap checks: 2.60 bohrs.
  Reading pulay file /home/gridsan/aligho/DFT/build-Nov24/pseudopotentials/SG15/Rb_ONCV_PBE.pulay ... using dE_dnG = -1.360715e-05 computed for Ecut = 20.

Initialized 1 species with 1 total atoms.

Folded 1 k-points by 48x48x1 to 2304 k-points.

---------- Setting up k-points, bands, fillings ----------
Reduced to 217 k-points under symmetry. 
Computing the number of bands and number of electrons
Calculating initial fillings.
nElectrons:   9.000000   nBands: 6   nStates: 217

----- Setting up reduced wavefunction bases (one per k-point) -----
average nbasis = 29569.197 , ideal nbasis = 29568.730

---------- Setting up coulomb interaction ----------
Initialized slab truncation along lattice direction 001

---------- Setting up 2D ewald sum ----------
Optimum gaussian width for ewald sums = 7.847285 bohr.
Real space sums over 289 unit cells with max indices [  8  8  0  ]
Reciprocal space sums over 81 terms with max indices [  4  4  0  ]

---------- Allocating electronic variables ----------
Initializing wave functions:  linear combination of atomic orbitals
Note: number of bands (6) exceeds available atomic orbitals (5)
Rb pseudo-atom occupations:   s ( 2 1 )  p ( 6 )
[d-6-6-4:11521] 18 more processes have sent help message help-mpi-common-cuda.txt / dlopen failed
[d-6-6-4:11521] Set MCA parameter "orte_base_help_aggregate" to 0 to see all help / error messages
[d-6-6-4:11521] 18 more processes have sent help message help-mpi-btl-openib-cpc-base.txt / no cpcs for port
	FillingsUpdate:  mu: -0.083525193  nElectrons: 9.000000
LCAOMinimize: Iter:   0  F: -24.4370459590357463  |grad|_K:  7.036e-06  alpha:  1.000e+00
	FillingsUpdate:  mu: -0.083521730  nElectrons: 9.000000
LCAOMinimize: Iter:   1  F: -24.4370461498092091  |grad|_K:  5.622e-08  alpha:  9.867e-01  linmin: -1.578e-02  cgtest:  3.625e-01  t[s]:     23.30
LCAOMinimize: Encountered beta<0, resetting CG.
	FillingsUpdate:  mu: -0.083521736  nElectrons: 9.000000
LCAOMinimize: Iter:   2  F: -24.4370461498216969  |grad|_K:  2.663e-10  alpha:  1.003e+00  linmin:  5.229e-02  cgtest: -6.617e-01  t[s]:     31.26
LCAOMinimize: Converged (|Delta F|<1.000000e-06 for 2 iters).


---- Citations for features of the code used in this run ----

   Software package:
      R. Sundararaman, K. Letchworth-Weaver, K.A. Schwarz, D. Gunceler, Y. Ozhabes and T.A. Arias, 'JDFTx: software for joint density-functional theory', SoftwareX 6, 278 (2017)

   gga-PBE exchange-correlation functional:
      J.P. Perdew, K. Burke and M. Ernzerhof, Phys. Rev. Lett. 77, 3865 (1996)

   Pseudopotentials:
      M Schlipf and F Gygi, Comput. Phys. Commun. 196, 36 (2015)

   Truncated Coulomb potentials:
      R. Sundararaman and T.A. Arias, Phys. Rev. B 87, 165122 (2013)

   Total energy minimization with Auxiliary Hamiltonian:
      C. Freysoldt, S. Boeck, and J. Neugebauer, Phys. Rev. B 79, 241103(R) (2009)

This list may not be complete. Please suggest additional citations or
report any other bugs at https://github.com/shankar1729/jdftx/issues

Initialization completed successfully at t[s]:     32.04


-------- Electronic minimization -----------
	FillingsUpdate:  mu: -0.083521736  nElectrons: 9.000000
ElecMinimize: Iter:   0  F: -24.437046149821704  |grad|_K:  1.878e-06  alpha:  1.000e+00
ElecMinimize: 	Predicted alpha/alphaT>3.000000, increasing alphaT to 3.000000e+00.
	FillingsUpdate:  mu: -0.082958152  nElectrons: 9.000000
	SubspaceRotationAdjust: set factor to 1
ElecMinimize: Iter:   1  F: -24.437891659825578  |grad|_K:  3.323e-06  alpha:  6.224e+00  linmin:  1.624e-04  t[s]:     51.87
	FillingsUpdate:  mu: -0.082973881  nElectrons: 9.000000
	SubspaceRotationAdjust: set factor to 1.03
ElecMinimize: Iter:   2  F: -24.437910446285009  |grad|_K:  3.248e-06  alpha:  2.253e-02  linmin: -1.169e-03  t[s]:     62.21
ElecMinimize: 	Predicted alpha/alphaT>3.000000, increasing alphaT to 6.759364e-02.
ElecMinimize: 	Predicted alpha/alphaT>3.000000, increasing alphaT to 2.027809e-01.
	FillingsUpdate:  mu: -0.083876181  nElectrons: 9.000000
	SubspaceRotationAdjust: set factor to 1.08
ElecMinimize: Iter:   3  F: -24.438390280180897  |grad|_K:  2.239e-06  alpha:  6.067e-01  linmin:  7.030e-05  t[s]:     78.88
	FillingsUpdate:  mu: -0.084124786  nElectrons: 9.000000
	SubspaceRotationAdjust: set factor to 0.949
ElecMinimize: Iter:   4  F: -24.438498433600881  |grad|_K:  2.419e-06  alpha:  5.845e-01  linmin:  2.150e-04  t[s]:     89.26
	FillingsUpdate:  mu: -0.084125154  nElectrons: 9.000000
	SubspaceRotationAdjust: set factor to 1.14
ElecMinimize: Iter:   5  F: -24.438498738578989  |grad|_K:  2.385e-06  alpha:  1.104e-03  linmin: -3.752e-04  t[s]:     99.58
ElecMinimize: 	Predicted alpha/alphaT>3.000000, increasing alphaT to 3.311200e-03.
ElecMinimize: 	Predicted alpha/alphaT>3.000000, increasing alphaT to 9.933600e-03.
ElecMinimize: 	Predicted alpha/alphaT>3.000000, increasing alphaT to 2.980080e-02.
	FillingsUpdate:  mu: -0.084158355  nElectrons: 9.000000
	SubspaceRotationAdjust: set factor to 0.829
ElecMinimize: Iter:   6  F: -24.438569372714820  |grad|_K:  2.724e-06  alpha:  2.813e-01  linmin:  1.006e-03  t[s]:    116.17
	FillingsUpdate:  mu: -0.084158351  nElectrons: 9.000000
	SubspaceRotationAdjust: set factor to 0.673
ElecMinimize: Iter:   7  F: -24.438569384057001  |grad|_K:  2.456e-06  alpha:  2.980e-04  linmin: -8.632e-05  t[s]:    126.50
ElecMinimize: 	Predicted alpha/alphaT>3.000000, increasing alphaT to 8.941286e-04.
ElecMinimize: 	Predicted alpha/alphaT>3.000000, increasing alphaT to 2.682386e-03.
ElecMinimize: 	Predicted alpha/alphaT>3.000000, increasing alphaT to 8.047157e-03.
	FillingsUpdate:  mu: -0.084113974  nElectrons: 9.000000
	SubspaceRotationAdjust: set factor to 0.588
ElecMinimize: Iter:   8  F: -24.438603099021837  |grad|_K:  2.445e-06  alpha:  1.467e-01  linmin:  2.002e-04  t[s]:    143.15
	FillingsUpdate:  mu: -0.084054717  nElectrons: 9.000000
	SubspaceRotationAdjust: set factor to 0.652
ElecMinimize: Iter:   9  F: -24.438627399894578  |grad|_K:  2.481e-06  alpha:  1.199e-01  linmin:  8.589e-06  t[s]:    153.48
	FillingsUpdate:  mu: -0.083983984  nElectrons: 9.000000
	SubspaceRotationAdjust: set factor to 0.895
ElecMinimize: Iter:  10  F: -24.438661309359627  |grad|_K:  2.564e-06  alpha:  1.427e-01  linmin: -5.002e-05  t[s]:    163.81
	FillingsUpdate:  mu: -0.083938625  nElectrons: 9.000000
	SubspaceRotationAdjust: set factor to 1.15
ElecMinimize: Iter:  11  F: -24.438699855925851  |grad|_K:  2.519e-06  alpha:  1.478e-01  linmin: -1.274e-04  t[s]:    174.14
	FillingsUpdate:  mu: -0.083944586  nElectrons: 9.000000
	SubspaceRotationAdjust: set factor to 1.4
ElecMinimize: Iter:  12  F: -24.438736747944020  |grad|_K:  2.184e-06  alpha:  1.444e-01  linmin: -1.942e-04  t[s]:    184.49
	FillingsUpdate:  mu: -0.083993997  nElectrons: 9.000000
	SubspaceRotationAdjust: set factor to 1.57
ElecMinimize: Iter:  13  F: -24.438770082838698  |grad|_K:  1.800e-06  alpha:  1.660e-01  linmin: -1.678e-04  t[s]:    194.81
	FillingsUpdate:  mu: -0.084055361  nElectrons: 9.000000
	SubspaceRotationAdjust: set factor to 1.72
ElecMinimize: Iter:  14  F: -24.438805753251774  |grad|_K:  1.483e-06  alpha:  2.445e-01  linmin: -1.194e-04  t[s]:    205.18
	FillingsUpdate:  mu: -0.084064958  nElectrons: 9.000000
	SubspaceRotationAdjust: set factor to 1.97
ElecMinimize: Iter:  15  F: -24.438835029775344  |grad|_K:  1.233e-06  alpha:  3.082e-01  linmin: -1.893e-05  t[s]:    215.48
	FillingsUpdate:  mu: -0.084027420  nElectrons: 9.000000
	SubspaceRotationAdjust: set factor to 2.29
ElecMinimize: Iter:  16  F: -24.438853607072840  |grad|_K:  1.093e-06  alpha:  3.127e-01  linmin:  3.441e-05  t[s]:    225.82
	FillingsUpdate:  mu: -0.083974413  nElectrons: 9.000000
	SubspaceRotationAdjust: set factor to 2.37
ElecMinimize: Iter:  17  F: -24.438866951845220  |grad|_K:  1.029e-06  alpha:  2.912e-01  linmin:  4.004e-05  t[s]:    236.12
	FillingsUpdate:  mu: -0.083941841  nElectrons: 9.000000
	SubspaceRotationAdjust: set factor to 2.52
ElecMinimize: Iter:  18  F: -24.438874609454331  |grad|_K:  1.019e-06  alpha:  1.736e-01  linmin: -2.741e-05  t[s]:    246.47
	FillingsUpdate:  mu: -0.083919311  nElectrons: 9.000000
	SubspaceRotationAdjust: set factor to 2.75
ElecMinimize: Iter:  19  F: -24.438881004995505  |grad|_K:  1.072e-06  alpha:  1.439e-01  linmin:  2.898e-05  t[s]:    256.75
	FillingsUpdate:  mu: -0.083911612  nElectrons: 9.000000
	SubspaceRotationAdjust: set factor to 2.19
ElecMinimize: Iter:  20  F: -24.438884946816103  |grad|_K:  1.149e-06  alpha:  8.752e-02  linmin: -1.942e-05  t[s]:    267.08
	FillingsUpdate:  mu: -0.083913460  nElectrons: 9.000000
	SubspaceRotationAdjust: set factor to 1.77
ElecMinimize: Iter:  21  F: -24.438889224991737  |grad|_K:  1.064e-06  alpha:  8.158e-02  linmin:  2.449e-05  t[s]:    277.35
	FillingsUpdate:  mu: -0.083923636  nElectrons: 9.000000
	SubspaceRotationAdjust: set factor to 1.8
ElecMinimize: Iter:  22  F: -24.438892709192814  |grad|_K:  9.388e-07  alpha:  8.168e-02  linmin: -2.488e-05  t[s]:    287.68
	FillingsUpdate:  mu: -0.083939899  nElectrons: 9.000000
	SubspaceRotationAdjust: set factor to 2.57
ElecMinimize: Iter:  23  F: -24.438895986230463  |grad|_K:  8.495e-07  alpha:  9.455e-02  linmin: -9.373e-05  t[s]:    297.99
	FillingsUpdate:  mu: -0.083960573  nElectrons: 9.000000
	SubspaceRotationAdjust: set factor to 3.12
ElecMinimize: Iter:  24  F: -24.438899367910462  |grad|_K:  7.969e-07  alpha:  1.135e-01  linmin: -7.554e-05  t[s]:    308.32
	FillingsUpdate:  mu: -0.083982686  nElectrons: 9.000000
	SubspaceRotationAdjust: set factor to 3.7
ElecMinimize: Iter:  25  F: -24.438903507372149  |grad|_K:  7.286e-07  alpha:  1.491e-01  linmin: -7.108e-05  t[s]:    318.68
	FillingsUpdate:  mu: -0.083995464  nElectrons: 9.000000
	SubspaceRotationAdjust: set factor to 4.47
ElecMinimize: Iter:  26  F: -24.438908415286438  |grad|_K:  6.502e-07  alpha:  2.086e-01  linmin: -4.354e-05  t[s]:    328.90
	FillingsUpdate:  mu: -0.083992370  nElectrons: 9.000000
	SubspaceRotationAdjust: set factor to 5.25
ElecMinimize: Iter:  27  F: -24.438912031546685  |grad|_K:  5.904e-07  alpha:  2.100e-01  linmin:  5.083e-05  t[s]:    339.21
	FillingsUpdate:  mu: -0.083988522  nElectrons: 9.000000
	SubspaceRotationAdjust: set factor to 5.77
ElecMinimize: Iter:  28  F: -24.438914310760172  |grad|_K:  5.876e-07  alpha:  1.672e-01  linmin:  1.542e-05  t[s]:    349.51
	FillingsUpdate:  mu: -0.083993154  nElectrons: 9.000000
	SubspaceRotationAdjust: set factor to 6.19
ElecMinimize: Iter:  29  F: -24.438915944254678  |grad|_K:  6.370e-07  alpha:  1.180e-01  linmin:  1.448e-06  t[s]:    359.82
	FillingsUpdate:  mu: -0.084008225  nElectrons: 9.000000
	SubspaceRotationAdjust: set factor to 4.94
ElecMinimize: Iter:  30  F: -24.438917461159559  |grad|_K:  7.090e-07  alpha:  9.560e-02  linmin:  1.172e-05  t[s]:    370.10
	FillingsUpdate:  mu: -0.084031237  nElectrons: 9.000000
	SubspaceRotationAdjust: set factor to 4.32
ElecMinimize: Iter:  31  F: -24.438918978028791  |grad|_K:  6.406e-07  alpha:  8.043e-02  linmin: -2.318e-05  t[s]:    380.39
	FillingsUpdate:  mu: -0.084052715  nElectrons: 9.000000
	SubspaceRotationAdjust: set factor to 5.45
ElecMinimize: Iter:  32  F: -24.438920409213587  |grad|_K:  5.407e-07  alpha:  8.889e-02  linmin: -4.472e-05  t[s]:    390.68
	FillingsUpdate:  mu: -0.084070287  nElectrons: 9.000000
	SubspaceRotationAdjust: set factor to 6.74
ElecMinimize: Iter:  33  F: -24.438921938998760  |grad|_K:  4.908e-07  alpha:  1.238e-01  linmin: -4.916e-05  t[s]:    400.95
	FillingsUpdate:  mu: -0.084081016  nElectrons: 9.000000
	SubspaceRotationAdjust: set factor to 7.39
ElecMinimize: Iter:  34  F: -24.438923597435242  |grad|_K:  4.623e-07  alpha:  1.603e-01  linmin: -2.651e-05  t[s]:    411.30
	FillingsUpdate:  mu: -0.084085395  nElectrons: 9.000000
	SubspaceRotationAdjust: set factor to 8.27
	SubspaceRotationAdjust: resetting CG because factor has changed by 8.27016
ElecMinimize: 	State modified externally: resetting search direction.
ElecMinimize: Iter:  35  F: -24.438924991988127  |grad|_K:  4.799e-07  alpha:  1.634e-01
	FillingsUpdate:  mu: -0.084096010  nElectrons: 9.000000
	SubspaceRotationAdjust: set factor to 5.92
ElecMinimize: Iter:  36  F: -24.438926865465746  |grad|_K:  4.121e-07  alpha:  2.212e-01  linmin:  1.192e-04  t[s]:    438.18
	FillingsUpdate:  mu: -0.084095725  nElectrons: 9.000000
	SubspaceRotationAdjust: set factor to 8.16
ElecMinimize: Iter:  37  F: -24.438929777613687  |grad|_K:  2.322e-07  alpha:  5.189e-01  linmin:  1.204e-04  t[s]:    448.51
	FillingsUpdate:  mu: -0.084092501  nElectrons: 9.000000
	SubspaceRotationAdjust: set factor to 5.98
ElecMinimize: Iter:  38  F: -24.438930481600739  |grad|_K:  2.509e-07  alpha:  3.599e-01  linmin: -9.682e-06  t[s]:    458.86
	FillingsUpdate:  mu: -0.084106220  nElectrons: 9.000000
	SubspaceRotationAdjust: set factor to 3.22
ElecMinimize: Iter:  39  F: -24.438931922248063  |grad|_K:  1.683e-07  alpha:  5.962e-01  linmin:  6.757e-05  t[s]:    469.17
	FillingsUpdate:  mu: -0.084112258  nElectrons: 9.000000
	SubspaceRotationAdjust: set factor to 1.96
ElecMinimize: Iter:  40  F: -24.438932753802955  |grad|_K:  1.595e-07  alpha:  7.839e-01  linmin: -4.201e-05  t[s]:    479.59
	FillingsUpdate:  mu: -0.084129862  nElectrons: 9.000000
	SubspaceRotationAdjust: set factor to 1.61
ElecMinimize: Iter:  41  F: -24.438933540380617  |grad|_K:  1.126e-07  alpha:  7.914e-01  linmin:  1.032e-05  t[s]:    489.91
	FillingsUpdate:  mu: -0.084153897  nElectrons: 9.000000
	SubspaceRotationAdjust: set factor to 1.78
ElecMinimize: Iter:  42  F: -24.438934091185725  |grad|_K:  9.827e-08  alpha:  1.134e+00  linmin:  7.537e-06  t[s]:    500.17
	FillingsUpdate:  mu: -0.084165809  nElectrons: 9.000000
	SubspaceRotationAdjust: set factor to 1.43
ElecMinimize: Iter:  43  F: -24.438934540447345  |grad|_K:  7.041e-08  alpha:  1.211e+00  linmin:  1.820e-06  t[s]:    510.52
	FillingsUpdate:  mu: -0.084174447  nElectrons: 9.000000
	SubspaceRotationAdjust: set factor to 1.57
ElecMinimize: Iter:  44  F: -24.438934751405863  |grad|_K:  6.316e-08  alpha:  1.106e+00  linmin: -1.183e-07  t[s]:    520.79
	FillingsUpdate:  mu: -0.084191205  nElectrons: 9.000000
	SubspaceRotationAdjust: set factor to 1.39
ElecMinimize: Iter:  45  F: -24.438934943048874  |grad|_K:  4.518e-08  alpha:  1.248e+00  linmin:  3.288e-06  t[s]:    531.09
	FillingsUpdate:  mu: -0.084194532  nElectrons: 9.000000
	SubspaceRotationAdjust: set factor to 1.43
ElecMinimize: Iter:  46  F: -24.438935023906520  |grad|_K:  2.904e-08  alpha:  1.029e+00  linmin:  1.287e-06  t[s]:    541.34
	FillingsUpdate:  mu: -0.084194333  nElectrons: 9.000000
	SubspaceRotationAdjust: set factor to 1.43
ElecMinimize: Iter:  47  F: -24.438935055200982  |grad|_K:  2.046e-08  alpha:  9.641e-01  linmin:  9.286e-07  t[s]:    551.72
	FillingsUpdate:  mu: -0.084197061  nElectrons: 9.000000
	SubspaceRotationAdjust: set factor to 1.33
ElecMinimize: Iter:  48  F: -24.438935075374790  |grad|_K:  1.644e-08  alpha:  1.252e+00  linmin:  9.476e-07  t[s]:    562.00
	FillingsUpdate:  mu: -0.084198797  nElectrons: 9.000000
	SubspaceRotationAdjust: set factor to 1.39
ElecMinimize: Iter:  49  F: -24.438935088356459  |grad|_K:  1.346e-08  alpha:  1.249e+00  linmin:  1.796e-07  t[s]:    572.35
	FillingsUpdate:  mu: -0.084199037  nElectrons: 9.000000
	SubspaceRotationAdjust: set factor to 1.36
ElecMinimize: Iter:  50  F: -24.438935095872640  |grad|_K:  9.816e-09  alpha:  1.077e+00  linmin: -5.806e-08  t[s]:    582.65
	FillingsUpdate:  mu: -0.084199519  nElectrons: 9.000000
	SubspaceRotationAdjust: set factor to 1.33
ElecMinimize: Iter:  51  F: -24.438935100362549  |grad|_K:  7.302e-09  alpha:  1.210e+00  linmin:  1.074e-06  t[s]:    593.05
ElecMinimize: Converged (|Delta F|<1.000000e-08 for 2 iters).
Setting wave functions to eigenvectors of Hamiltonian

# Ionic positions in lattice coordinates:
ion Rb   0.000000000000000   0.000000000000000   0.000000000000000 0

# Forces in Lattice coordinates:
force Rb  -0.000000000000000  -0.000000000000000   0.000000000000000 0

# Energy components:
   Eewald =      -12.0722582610920863
       EH =        7.4453543957748707
     Eloc =      -22.3147619643332753
      Enl =       -0.7980196474453870
   Epulay =        0.0000000009170921
      Exc =       -3.6465497925874555
       KE =        6.9473002391529910
-------------------------------------
     Etot =      -24.4389350296132513
       TS =        0.0000000707492986
-------------------------------------
        F =      -24.4389351003625492

IonicMinimize: Iter:   0  F: -24.438935100362549  |grad|_K:  0.000e+00  t[s]:    594.21
IonicMinimize: Converged (|grad|_K<1.000000e-04).

#--- Lowdin population analysis ---
# oxidation-state Rb +0.030

End date and time: Sun Jan 16 16:08:10 2022  (Duration: 0-0:09:54.44)
Done!
