2.15
--------------------------------------------------------------------------
The library attempted to open the following supporting CUDA libraries,
but each of them failed.  CUDA-aware support is disabled.
libcuda.so.1: cannot open shared object file: No such file or directory
libcuda.dylib: cannot open shared object file: No such file or directory
/usr/lib64/libcuda.so.1: cannot open shared object file: No such file or directory
/usr/lib64/libcuda.dylib: cannot open shared object file: No such file or directory
If you are not interested in CUDA-aware support, then run with
--mca opal_warn_on_missing_libcuda 0 to suppress this message.  If you are interested
in CUDA-aware support, then try setting LD_LIBRARY_PATH to the location
of libcuda.so.1 to get passed this issue.
--------------------------------------------------------------------------
--------------------------------------------------------------------------
No OpenFabrics connection schemes reported that they were able to be
used on a specific port.  As such, the openib BTL (OpenFabrics
support) will be disabled for this port.

  Local host:           d-4-7-2
  Local device:         mlx5_1
  Local port:           1
  CPCs attempted:       rdmacm, udcm
--------------------------------------------------------------------------

*************** JDFTx 1.6.0 (git hash 42ebbcc2) ***************

Start date and time: Sun Jan 16 15:52:13 2022
Executable jdftx with command-line: -i Rubidium.in
Running on hosts (process indices):  d-4-7-2 (0-18)
Divided in process groups (process indices):  0 (0)  1 (1)  2 (2)  3 (3)  4 (4)  5 (5)  6 (6)  7 (7)  8 (8)  9 (9)  10 (10)  11 (11)  12 (12)  13 (13)  14 (14)  15 (15)  16 (16)  17 (17)  18 (18)
Resource initialization completed at t[s]:      0.00
Run totals: 19 processes, 48 threads, 0 GPUs


Input parsed successfully to the following command list (including defaults):

basis kpoint-dependent
coords-type Lattice
core-overlap-check vector
coulomb-interaction Slab 001
davidson-band-ratio 1.1
dump End None
dump-name $INPUT.$VAR
elec-cutoff 20 100
elec-eigen-algo Davidson
elec-ex-corr gga-PBE
elec-smearing Fermi 1e-05
electronic-minimize  \
	dirUpdateScheme      FletcherReeves \
	linminMethod         DirUpdateRecommended \
	nIterations          10000 \
	history              15 \
	knormThreshold       0 \
	energyDiffThreshold  1e-08 \
	nEnergyDiff          2 \
	alphaTstart          1 \
	alphaTmin            1e-10 \
	updateTestStepSize   yes \
	alphaTreduceFactor   0.1 \
	alphaTincreaseFactor 3 \
	nAlphaAdjustMax      3 \
	wolfeEnergy          0.0001 \
	wolfeGradient        0.9 \
	fdTest               no
exchange-regularization WignerSeitzTruncated
fluid None
fluid-ex-corr (null) lda-PZ
fluid-gummel-loop 10 1.000000e-05
fluid-minimize  \
	dirUpdateScheme      PolakRibiere \
	linminMethod         DirUpdateRecommended \
	nIterations          100 \
	history              15 \
	knormThreshold       0 \
	energyDiffThreshold  0 \
	nEnergyDiff          2 \
	alphaTstart          1 \
	alphaTmin            1e-10 \
	updateTestStepSize   yes \
	alphaTreduceFactor   0.1 \
	alphaTincreaseFactor 3 \
	nAlphaAdjustMax      3 \
	wolfeEnergy          0.0001 \
	wolfeGradient        0.9 \
	fdTest               no
fluid-solvent H2O 55.338 ScalarEOS \
	epsBulk 78.4 \
	pMol 0.92466 \
	epsInf 1.77 \
	Pvap 1.06736e-10 \
	sigmaBulk 4.62e-05 \
	Rvdw 2.61727 \
	Res 1.42 \
	tauNuc 343133 \
	poleEl 15 7 1
forces-output-coords Positions
ion Rb   0.000000000000000   0.000000000000000   0.000000000000000 0
ion-species SG15/$ID_ONCV_PBE.upf
ion-width 0
ionic-minimize  \
	dirUpdateScheme      L-BFGS \
	linminMethod         DirUpdateRecommended \
	nIterations          0 \
	history              15 \
	knormThreshold       0.0001 \
	energyDiffThreshold  1e-06 \
	nEnergyDiff          2 \
	alphaTstart          1 \
	alphaTmin            1e-10 \
	updateTestStepSize   yes \
	alphaTreduceFactor   0.1 \
	alphaTincreaseFactor 3 \
	nAlphaAdjustMax      3 \
	wolfeEnergy          0.0001 \
	wolfeGradient        0.9 \
	fdTest               no
kpoint   0.000000000000   0.000000000000   0.000000000000  1.00000000000000
kpoint-folding 48 48 1 
latt-move-scale 1 1 1
latt-scale 2.15 2.15 1 
lattice  \
	   4.727486978767153   -2.363743489383575    0.000000000000000  \
	  -0.000000000000000    4.094123819672497    0.000000000000000  \
	   0.000000000000000    0.000000000000000   40.000000000000000 
lattice-minimize  \
	dirUpdateScheme      L-BFGS \
	linminMethod         DirUpdateRecommended \
	nIterations          0 \
	history              15 \
	knormThreshold       0 \
	energyDiffThreshold  1e-06 \
	nEnergyDiff          2 \
	alphaTstart          1 \
	alphaTmin            1e-10 \
	updateTestStepSize   yes \
	alphaTreduceFactor   0.1 \
	alphaTincreaseFactor 3 \
	nAlphaAdjustMax      3 \
	wolfeEnergy          0.0001 \
	wolfeGradient        0.9 \
	fdTest               no
lcao-params -1 1e-06 1e-05
pcm-variant GLSSA13
spintype no-spin
subspace-rotation-factor 1 yes
symmetries automatic
symmetry-threshold 0.0001



---------- Setting up symmetries ----------

Found 24 point-group symmetries of the bravais lattice
Found 24 space-group symmetries with basis
Applied RMS atom displacement 0 bohrs to make symmetries exact.

---------- Initializing the Grid ----------
R = 
[      10.1641     -5.08205            0  ]
[            0      8.80237            0  ]
[            0            0           40  ]
unit cell volume = 3578.72
G =
[   0.618174   0.356903         -0  ]
[          0   0.713806         -0  ]
[         -0         -0    0.15708  ]
Minimum fftbox size, Smin = [  48  48  184  ]
Chosen fftbox size, S = [  48  48  192  ]

---------- Initializing tighter grid for wavefunction operations ----------
R = 
[      10.1641     -5.08205            0  ]
[            0      8.80237            0  ]
[            0            0           40  ]
unit cell volume = 3578.72
G =
[   0.618174   0.356903         -0  ]
[          0   0.713806         -0  ]
[         -0         -0    0.15708  ]
Minimum fftbox size, Smin = [  44  44  164  ]
Chosen fftbox size, S = [  48  48  168  ]

---------- Exchange Correlation functional ----------
Initalized PBE GGA exchange.
Initalized PBE GGA correlation.

---------- Setting up pseudopotentials ----------
Width of ionic core gaussian charges (only for fluid interactions / plotting) set to 0

Reading pseudopotential file '/home/gridsan/aligho/DFT/build-Nov24/pseudopotentials/SG15/Rb_ONCV_PBE.upf':
  'Rb' pseudopotential, 'PBE' functional
  Generated using ONCVPSP code by D. R. Hamann
  Author: Martin Schlipf and Francois Gygi  Date: 150915.
  9 valence electrons, 3 orbitals, 6 projectors, 2308 radial grid points, with lMax = 2
  Transforming local potential to a uniform radial grid of dG=0.02 with 1670 points.
  Transforming nonlocal projectors to a uniform radial grid of dG=0.02 with 432 points.
    4S    l: 0   occupation:  2.0   eigenvalue: -1.172069
    4P    l: 1   occupation:  6.0   eigenvalue: -0.586674
    5S    l: 0   occupation:  1.0   eigenvalue: -0.082006
  Transforming atomic orbitals to a uniform radial grid of dG=0.02 with 432 points.
  Core radius for overlap checks: 2.60 bohrs.
  Reading pulay file /home/gridsan/aligho/DFT/build-Nov24/pseudopotentials/SG15/Rb_ONCV_PBE.pulay ... using dE_dnG = -1.360715e-05 computed for Ecut = 20.

Initialized 1 species with 1 total atoms.

Folded 1 k-points by 48x48x1 to 2304 k-points.

---------- Setting up k-points, bands, fillings ----------
Reduced to 217 k-points under symmetry. 
Computing the number of bands and number of electrons
Calculating initial fillings.
nElectrons:   9.000000   nBands: 6   nStates: 217

----- Setting up reduced wavefunction bases (one per k-point) -----
average nbasis = 15288.993 , ideal nbasis = 15288.582

---------- Setting up coulomb interaction ----------
Initialized slab truncation along lattice direction 001

---------- Setting up 2D ewald sum ----------
Optimum gaussian width for ewald sums = 5.642696 bohr.
Real space sums over 289 unit cells with max indices [  8  8  0  ]
Reciprocal space sums over 81 terms with max indices [  4  4  0  ]

---------- Allocating electronic variables ----------
Initializing wave functions:  linear combination of atomic orbitals
Note: number of bands (6) exceeds available atomic orbitals (5)
Rb pseudo-atom occupations:   s ( 2 1 )  p ( 6 )
[d-4-7-2:10341] 18 more processes have sent help message help-mpi-common-cuda.txt / dlopen failed
[d-4-7-2:10341] Set MCA parameter "orte_base_help_aggregate" to 0 to see all help / error messages
[d-4-7-2:10341] 18 more processes have sent help message help-mpi-btl-openib-cpc-base.txt / no cpcs for port
	FillingsUpdate:  mu: -0.091626594  nElectrons: 9.000000
LCAOMinimize: Iter:   0  F: -24.4497378389508420  |grad|_K:  4.519e-06  alpha:  1.000e+00
	FillingsUpdate:  mu: -0.091622818  nElectrons: 9.000000
LCAOMinimize: Iter:   1  F: -24.4497379173830005  |grad|_K:  4.581e-08  alpha:  9.834e-01  linmin: -1.150e-02  cgtest:  1.833e-01  t[s]:     14.01
LCAOMinimize: Encountered beta<0, resetting CG.
	FillingsUpdate:  mu: -0.091622828  nElectrons: 9.000000
LCAOMinimize: Iter:   2  F: -24.4497379173911575  |grad|_K:  3.188e-09  alpha:  1.067e+00  linmin:  1.433e-01  cgtest: -9.928e-01  t[s]:     19.10
LCAOMinimize: Converged (|Delta F|<1.000000e-06 for 2 iters).


---- Citations for features of the code used in this run ----

   Software package:
      R. Sundararaman, K. Letchworth-Weaver, K.A. Schwarz, D. Gunceler, Y. Ozhabes and T.A. Arias, 'JDFTx: software for joint density-functional theory', SoftwareX 6, 278 (2017)

   gga-PBE exchange-correlation functional:
      J.P. Perdew, K. Burke and M. Ernzerhof, Phys. Rev. Lett. 77, 3865 (1996)

   Pseudopotentials:
      M Schlipf and F Gygi, Comput. Phys. Commun. 196, 36 (2015)

   Truncated Coulomb potentials:
      R. Sundararaman and T.A. Arias, Phys. Rev. B 87, 165122 (2013)

   Total energy minimization with Auxiliary Hamiltonian:
      C. Freysoldt, S. Boeck, and J. Neugebauer, Phys. Rev. B 79, 241103(R) (2009)

This list may not be complete. Please suggest additional citations or
report any other bugs at https://github.com/shankar1729/jdftx/issues

Initialization completed successfully at t[s]:     19.53


-------- Electronic minimization -----------
	FillingsUpdate:  mu: -0.091622828  nElectrons: 9.000000
ElecMinimize: Iter:   0  F: -24.449737917391143  |grad|_K:  5.270e-06  alpha:  1.000e+00
ElecMinimize: 	Predicted alpha/alphaT>3.000000, increasing alphaT to 3.000000e+00.
	FillingsUpdate:  mu: -0.090372469  nElectrons: 9.000000
	SubspaceRotationAdjust: set factor to 1
ElecMinimize: Iter:   1  F: -24.452450446284313  |grad|_K:  6.063e-06  alpha:  4.894e+00  linmin:  3.827e-04  t[s]:     31.90
	FillingsUpdate:  mu: -0.090363934  nElectrons: 9.000000
	SubspaceRotationAdjust: set factor to 1.05
ElecMinimize: Iter:   2  F: -24.452475385030798  |grad|_K:  5.885e-06  alpha:  1.746e-02  linmin: -1.973e-03  t[s]:     38.35
ElecMinimize: 	Predicted alpha/alphaT>3.000000, increasing alphaT to 5.237230e-02.
ElecMinimize: 	Predicted alpha/alphaT>3.000000, increasing alphaT to 1.571169e-01.
ElecMinimize: 	Predicted alpha/alphaT>3.000000, increasing alphaT to 4.713507e-01.
	FillingsUpdate:  mu: -0.089328701  nElectrons: 9.000000
	SubspaceRotationAdjust: set factor to 1.1
ElecMinimize: Iter:   3  F: -24.453293768901720  |grad|_K:  3.795e-06  alpha:  6.318e-01  linmin:  4.026e-04  t[s]:     48.93
	FillingsUpdate:  mu: -0.088525888  nElectrons: 9.000000
	SubspaceRotationAdjust: set factor to 1.04
ElecMinimize: Iter:   4  F: -24.453416148102569  |grad|_K:  3.757e-06  alpha:  4.992e-01  linmin:  4.540e-05  t[s]:     55.37
	FillingsUpdate:  mu: -0.088228848  nElectrons: 9.000000
	SubspaceRotationAdjust: set factor to 1.2
ElecMinimize: Iter:   5  F: -24.453479022626727  |grad|_K:  3.422e-06  alpha:  1.520e-01  linmin: -5.465e-04  t[s]:     61.88
	FillingsUpdate:  mu: -0.087497990  nElectrons: 9.000000
	SubspaceRotationAdjust: set factor to 1.13
ElecMinimize: Iter:   6  F: -24.453576405077559  |grad|_K:  3.307e-06  alpha:  3.182e-01  linmin:  6.635e-04  t[s]:     68.30
	FillingsUpdate:  mu: -0.087230345  nElectrons: 9.000000
	SubspaceRotationAdjust: set factor to 1.06
ElecMinimize: Iter:   7  F: -24.453591231585627  |grad|_K:  3.452e-06  alpha:  1.006e-01  linmin: -1.165e-04  t[s]:     74.70
	FillingsUpdate:  mu: -0.086699873  nElectrons: 9.000000
	SubspaceRotationAdjust: set factor to 1.33
ElecMinimize: Iter:   8  F: -24.453640904251429  |grad|_K:  3.451e-06  alpha:  1.945e-01  linmin: -7.019e-05  t[s]:     81.12
	FillingsUpdate:  mu: -0.086359019  nElectrons: 9.000000
	SubspaceRotationAdjust: set factor to 1.7
ElecMinimize: Iter:   9  F: -24.453686651097332  |grad|_K:  3.141e-06  alpha:  1.876e-01  linmin: -1.022e-04  t[s]:     87.45
	FillingsUpdate:  mu: -0.086329329  nElectrons: 9.000000
	SubspaceRotationAdjust: set factor to 1.85
ElecMinimize: Iter:  10  F: -24.453719462368916  |grad|_K:  2.592e-06  alpha:  1.648e-01  linmin: -2.191e-04  t[s]:     93.88
	FillingsUpdate:  mu: -0.086363256  nElectrons: 9.000000
	SubspaceRotationAdjust: set factor to 2.06
ElecMinimize: Iter:  11  F: -24.453752845861739  |grad|_K:  2.223e-06  alpha:  2.255e-01  linmin: -3.222e-04  t[s]:    100.32
	FillingsUpdate:  mu: -0.086146020  nElectrons: 9.000000
	SubspaceRotationAdjust: set factor to 2.67
ElecMinimize: Iter:  12  F: -24.453790987275550  |grad|_K:  1.787e-06  alpha:  3.334e-01  linmin: -6.994e-05  t[s]:    106.70
	FillingsUpdate:  mu: -0.085779899  nElectrons: 9.000000
	SubspaceRotationAdjust: set factor to 3.21
ElecMinimize: Iter:  13  F: -24.453812027413957  |grad|_K:  1.477e-06  alpha:  3.215e-01  linmin:  8.609e-05  t[s]:    113.14
	FillingsUpdate:  mu: -0.085427977  nElectrons: 9.000000
	SubspaceRotationAdjust: set factor to 3.03
ElecMinimize: Iter:  14  F: -24.453824060376661  |grad|_K:  1.285e-06  alpha:  2.745e-01  linmin:  5.645e-05  t[s]:    119.56
	FillingsUpdate:  mu: -0.085200479  nElectrons: 9.000000
	SubspaceRotationAdjust: set factor to 3.61
ElecMinimize: Iter:  15  F: -24.453831003285625  |grad|_K:  1.219e-06  alpha:  2.131e-01  linmin:  1.993e-05  t[s]:    125.96
	FillingsUpdate:  mu: -0.085097714  nElectrons: 9.000000
	SubspaceRotationAdjust: set factor to 3.32
ElecMinimize: Iter:  16  F: -24.453836473902921  |grad|_K:  1.210e-06  alpha:  1.881e-01  linmin:  1.748e-05  t[s]:    132.38
	FillingsUpdate:  mu: -0.085172134  nElectrons: 9.000000
	SubspaceRotationAdjust: set factor to 4.93
ElecMinimize: Iter:  17  F: -24.453840849912510  |grad|_K:  9.869e-07  alpha:  1.534e-01  linmin: -2.991e-05  t[s]:    138.70
	FillingsUpdate:  mu: -0.085319926  nElectrons: 9.000000
	SubspaceRotationAdjust: set factor to 5.31
ElecMinimize: Iter:  18  F: -24.453844066419801  |grad|_K:  8.601e-07  alpha:  1.634e-01  linmin: -1.010e-04  t[s]:    145.03
	FillingsUpdate:  mu: -0.085433307  nElectrons: 9.000000
	SubspaceRotationAdjust: set factor to 5.84
ElecMinimize: Iter:  19  F: -24.453847595291261  |grad|_K:  8.178e-07  alpha:  2.203e-01  linmin: -8.204e-05  t[s]:    151.49
	FillingsUpdate:  mu: -0.085364137  nElectrons: 9.000000
	SubspaceRotationAdjust: set factor to 7.52
	SubspaceRotationAdjust: resetting CG because factor has changed by 7.51757
ElecMinimize: 	State modified externally: resetting search direction.
ElecMinimize: Iter:  20  F: -24.453851155517714  |grad|_K:  7.260e-07  alpha:  2.459e-01
	FillingsUpdate:  mu: -0.085189422  nElectrons: 9.000000
	SubspaceRotationAdjust: set factor to 4.9
ElecMinimize: Iter:  21  F: -24.453853728323455  |grad|_K:  7.123e-07  alpha:  2.439e-01  linmin:  1.838e-04  t[s]:    168.12
	FillingsUpdate:  mu: -0.085183502  nElectrons: 9.000000
	SubspaceRotationAdjust: set factor to 2.71
ElecMinimize: Iter:  22  F: -24.453855865743563  |grad|_K:  7.547e-07  alpha:  3.098e-01  linmin:  1.067e-04  t[s]:    174.53
	FillingsUpdate:  mu: -0.085328329  nElectrons: 9.000000
	SubspaceRotationAdjust: set factor to 4.85
ElecMinimize: Iter:  23  F: -24.453857740145363  |grad|_K:  3.470e-07  alpha:  1.870e-01  linmin:  1.977e-05  t[s]:    180.97
	FillingsUpdate:  mu: -0.085451059  nElectrons: 9.000000
	SubspaceRotationAdjust: set factor to 4.23
ElecMinimize: Iter:  24  F: -24.453859134081608  |grad|_K:  3.413e-07  alpha:  5.221e-01  linmin: -2.156e-04  t[s]:    187.40
	FillingsUpdate:  mu: -0.085423616  nElectrons: 9.000000
	SubspaceRotationAdjust: set factor to 2.61
ElecMinimize: Iter:  25  F: -24.453860999945007  |grad|_K:  2.683e-07  alpha:  6.796e-01  linmin:  1.034e-04  t[s]:    193.81
	FillingsUpdate:  mu: -0.085579578  nElectrons: 9.000000
	SubspaceRotationAdjust: set factor to 2.13
ElecMinimize: Iter:  26  F: -24.453862276843715  |grad|_K:  2.291e-07  alpha:  9.712e-01  linmin:  4.095e-06  t[s]:    200.22
	FillingsUpdate:  mu: -0.085632874  nElectrons: 9.000000
	SubspaceRotationAdjust: set factor to 1.75
ElecMinimize: Iter:  27  F: -24.453863226726146  |grad|_K:  1.580e-07  alpha:  9.112e-01  linmin: -1.005e-05  t[s]:    206.74
	FillingsUpdate:  mu: -0.085654349  nElectrons: 9.000000
	SubspaceRotationAdjust: set factor to 1.92
ElecMinimize: Iter:  28  F: -24.453863604961899  |grad|_K:  9.058e-08  alpha:  7.557e-01  linmin:  7.315e-06  t[s]:    213.11
	FillingsUpdate:  mu: -0.085694081  nElectrons: 9.000000
	SubspaceRotationAdjust: set factor to 1.66
ElecMinimize: Iter:  29  F: -24.453863767500824  |grad|_K:  7.092e-08  alpha:  9.994e-01  linmin:  8.538e-06  t[s]:    219.52
	FillingsUpdate:  mu: -0.085717611  nElectrons: 9.000000
	SubspaceRotationAdjust: set factor to 1.66
ElecMinimize: Iter:  30  F: -24.453863869882518  |grad|_K:  5.435e-08  alpha:  1.027e+00  linmin: -5.349e-06  t[s]:    225.96
	FillingsUpdate:  mu: -0.085727032  nElectrons: 9.000000
	SubspaceRotationAdjust: set factor to 1.63
ElecMinimize: Iter:  31  F: -24.453863935276974  |grad|_K:  4.531e-08  alpha:  1.109e+00  linmin:  1.954e-06  t[s]:    232.44
	FillingsUpdate:  mu: -0.085744160  nElectrons: 9.000000
	SubspaceRotationAdjust: set factor to 1.51
ElecMinimize: Iter:  32  F: -24.453863978330528  |grad|_K:  3.264e-08  alpha:  1.054e+00  linmin:  3.345e-06  t[s]:    238.82
	FillingsUpdate:  mu: -0.085757198  nElectrons: 9.000000
	SubspaceRotationAdjust: set factor to 1.58
ElecMinimize: Iter:  33  F: -24.453863999417319  |grad|_K:  2.433e-08  alpha:  9.968e-01  linmin: -8.749e-07  t[s]:    245.31
	FillingsUpdate:  mu: -0.085760103  nElectrons: 9.000000
	SubspaceRotationAdjust: set factor to 1.44
ElecMinimize: Iter:  34  F: -24.453864012816975  |grad|_K:  2.056e-08  alpha:  1.136e+00  linmin: -1.883e-07  t[s]:    251.76
	FillingsUpdate:  mu: -0.085760069  nElectrons: 9.000000
	SubspaceRotationAdjust: set factor to 1.55
ElecMinimize: Iter:  35  F: -24.453864022702948  |grad|_K:  1.701e-08  alpha:  1.175e+00  linmin:  1.220e-06  t[s]:    258.16
	FillingsUpdate:  mu: -0.085761806  nElectrons: 9.000000
	SubspaceRotationAdjust: set factor to 1.42
ElecMinimize: Iter:  36  F: -24.453864029338387  |grad|_K:  1.371e-08  alpha:  1.154e+00  linmin:  6.767e-07  t[s]:    264.56
ElecMinimize: Converged (|Delta F|<1.000000e-08 for 2 iters).
Setting wave functions to eigenvectors of Hamiltonian

# Ionic positions in lattice coordinates:
ion Rb   0.000000000000000   0.000000000000000   0.000000000000000 0

# Forces in Lattice coordinates:
force Rb  -0.000000000000000  -0.000000000000000   0.000000000000000 0

# Energy components:
   Eewald =      -16.7888614886815439
       EH =        2.8725210463367237
     Eloc =      -13.0372666819351029
      Enl =       -0.7974894301740102
   Epulay =        0.0000000015632716
      Exc =       -3.6681755073506381
       KE =        6.9654081016522120
-------------------------------------
     Etot =      -24.4538639585890891
       TS =        0.0000000707492985
-------------------------------------
        F =      -24.4538640293383871

IonicMinimize: Iter:   0  F: -24.453864029338387  |grad|_K:  0.000e+00  t[s]:    265.19
IonicMinimize: Converged (|grad|_K<1.000000e-04).

#--- Lowdin population analysis ---
# oxidation-state Rb +0.034

End date and time: Sun Jan 16 15:56:38 2022  (Duration: 0-0:04:25.32)
Done!
