1.1
--------------------------------------------------------------------------
The library attempted to open the following supporting CUDA libraries,
but each of them failed.  CUDA-aware support is disabled.
libcuda.so.1: cannot open shared object file: No such file or directory
libcuda.dylib: cannot open shared object file: No such file or directory
/usr/lib64/libcuda.so.1: cannot open shared object file: No such file or directory
/usr/lib64/libcuda.dylib: cannot open shared object file: No such file or directory
If you are not interested in CUDA-aware support, then run with
--mca opal_warn_on_missing_libcuda 0 to suppress this message.  If you are interested
in CUDA-aware support, then try setting LD_LIBRARY_PATH to the location
of libcuda.so.1 to get passed this issue.
--------------------------------------------------------------------------
--------------------------------------------------------------------------
No OpenFabrics connection schemes reported that they were able to be
used on a specific port.  As such, the openib BTL (OpenFabrics
support) will be disabled for this port.

  Local host:           d-16-8-1
  Local device:         mlx5_1
  Local port:           1
  CPCs attempted:       rdmacm, udcm
--------------------------------------------------------------------------

*************** JDFTx 1.6.0 (git hash 42ebbcc2) ***************

Start date and time: Sun Jan 16 15:46:02 2022
Executable jdftx with command-line: -i Rubidium.in
Running on hosts (process indices):  d-16-8-1 (0-18)
Divided in process groups (process indices):  0 (0)  1 (1)  2 (2)  3 (3)  4 (4)  5 (5)  6 (6)  7 (7)  8 (8)  9 (9)  10 (10)  11 (11)  12 (12)  13 (13)  14 (14)  15 (15)  16 (16)  17 (17)  18 (18)
Resource initialization completed at t[s]:      0.00
Run totals: 19 processes, 48 threads, 0 GPUs


Input parsed successfully to the following command list (including defaults):

basis kpoint-dependent
coords-type Lattice
core-overlap-check vector
coulomb-interaction Slab 001
davidson-band-ratio 1.1
dump End None
dump-name $INPUT.$VAR
elec-cutoff 20 100
elec-eigen-algo Davidson
elec-ex-corr gga-PBE
elec-smearing Fermi 1e-05
electronic-minimize  \
	dirUpdateScheme      FletcherReeves \
	linminMethod         DirUpdateRecommended \
	nIterations          10000 \
	history              15 \
	knormThreshold       0 \
	energyDiffThreshold  1e-08 \
	nEnergyDiff          2 \
	alphaTstart          1 \
	alphaTmin            1e-10 \
	updateTestStepSize   yes \
	alphaTreduceFactor   0.1 \
	alphaTincreaseFactor 3 \
	nAlphaAdjustMax      3 \
	wolfeEnergy          0.0001 \
	wolfeGradient        0.9 \
	fdTest               no
exchange-regularization WignerSeitzTruncated
fluid None
fluid-ex-corr (null) lda-PZ
fluid-gummel-loop 10 1.000000e-05
fluid-minimize  \
	dirUpdateScheme      PolakRibiere \
	linminMethod         DirUpdateRecommended \
	nIterations          100 \
	history              15 \
	knormThreshold       0 \
	energyDiffThreshold  0 \
	nEnergyDiff          2 \
	alphaTstart          1 \
	alphaTmin            1e-10 \
	updateTestStepSize   yes \
	alphaTreduceFactor   0.1 \
	alphaTincreaseFactor 3 \
	nAlphaAdjustMax      3 \
	wolfeEnergy          0.0001 \
	wolfeGradient        0.9 \
	fdTest               no
fluid-solvent H2O 55.338 ScalarEOS \
	epsBulk 78.4 \
	pMol 0.92466 \
	epsInf 1.77 \
	Pvap 1.06736e-10 \
	sigmaBulk 4.62e-05 \
	Rvdw 2.61727 \
	Res 1.42 \
	tauNuc 343133 \
	poleEl 15 7 1
forces-output-coords Positions
ion Rb   0.000000000000000   0.000000000000000   0.000000000000000 0
ion-species SG15/$ID_ONCV_PBE.upf
ion-width 0
ionic-minimize  \
	dirUpdateScheme      L-BFGS \
	linminMethod         DirUpdateRecommended \
	nIterations          0 \
	history              15 \
	knormThreshold       0.0001 \
	energyDiffThreshold  1e-06 \
	nEnergyDiff          2 \
	alphaTstart          1 \
	alphaTmin            1e-10 \
	updateTestStepSize   yes \
	alphaTreduceFactor   0.1 \
	alphaTincreaseFactor 3 \
	nAlphaAdjustMax      3 \
	wolfeEnergy          0.0001 \
	wolfeGradient        0.9 \
	fdTest               no
kpoint   0.000000000000   0.000000000000   0.000000000000  1.00000000000000
kpoint-folding 48 48 1 
latt-move-scale 1 1 1
latt-scale 1.1 1.1 1 
lattice  \
	   4.727486978767153   -2.363743489383575    0.000000000000000  \
	  -0.000000000000000    4.094123819672498    0.000000000000000  \
	   0.000000000000000    0.000000000000000   40.000000000000000 
lattice-minimize  \
	dirUpdateScheme      L-BFGS \
	linminMethod         DirUpdateRecommended \
	nIterations          0 \
	history              15 \
	knormThreshold       0 \
	energyDiffThreshold  1e-06 \
	nEnergyDiff          2 \
	alphaTstart          1 \
	alphaTmin            1e-10 \
	updateTestStepSize   yes \
	alphaTreduceFactor   0.1 \
	alphaTincreaseFactor 3 \
	nAlphaAdjustMax      3 \
	wolfeEnergy          0.0001 \
	wolfeGradient        0.9 \
	fdTest               no
lcao-params -1 1e-06 1e-05
pcm-variant GLSSA13
spintype no-spin
subspace-rotation-factor 1 yes
symmetries automatic
symmetry-threshold 0.0001



---------- Setting up symmetries ----------

Found 24 point-group symmetries of the bravais lattice
Found 24 space-group symmetries with basis
Applied RMS atom displacement 0 bohrs to make symmetries exact.

---------- Initializing the Grid ----------
R = 
[      5.20024     -2.60012            0  ]
[            0      4.50354            0  ]
[            0            0           40  ]
unit cell volume = 936.778
G =
[    1.20825   0.697584         -0  ]
[          0    1.39517         -0  ]
[         -0         -0    0.15708  ]
Minimum fftbox size, Smin = [  24  24  184  ]
Chosen fftbox size, S = [  24  24  192  ]

---------- Initializing tighter grid for wavefunction operations ----------
R = 
[      5.20024     -2.60012            0  ]
[            0      4.50354            0  ]
[            0            0           40  ]
unit cell volume = 936.778
G =
[    1.20825   0.697584         -0  ]
[          0    1.39517         -0  ]
[         -0         -0    0.15708  ]
Minimum fftbox size, Smin = [  24  24  164  ]
Chosen fftbox size, S = [  24  24  168  ]

---------- Exchange Correlation functional ----------
Initalized PBE GGA exchange.
Initalized PBE GGA correlation.

---------- Setting up pseudopotentials ----------
Width of ionic core gaussian charges (only for fluid interactions / plotting) set to 0

Reading pseudopotential file '/home/gridsan/aligho/DFT/build-Nov24/pseudopotentials/SG15/Rb_ONCV_PBE.upf':
  'Rb' pseudopotential, 'PBE' functional
  Generated using ONCVPSP code by D. R. Hamann
  Author: Martin Schlipf and Francois Gygi  Date: 150915.
  9 valence electrons, 3 orbitals, 6 projectors, 2308 radial grid points, with lMax = 2
  Transforming local potential to a uniform radial grid of dG=0.02 with 1640 points.
  Transforming nonlocal projectors to a uniform radial grid of dG=0.02 with 432 points.
    4S    l: 0   occupation:  2.0   eigenvalue: -1.172069
    4P    l: 1   occupation:  6.0   eigenvalue: -0.586674
    5S    l: 0   occupation:  1.0   eigenvalue: -0.082006
  Transforming atomic orbitals to a uniform radial grid of dG=0.02 with 432 points.
  Core radius for overlap checks: 2.60 bohrs.
  Reading pulay file /home/gridsan/aligho/DFT/build-Nov24/pseudopotentials/SG15/Rb_ONCV_PBE.pulay ... using dE_dnG = -1.360715e-05 computed for Ecut = 20.

Initialized 1 species with 1 total atoms.

Folded 1 k-points by 48x48x1 to 2304 k-points.

---------- Setting up k-points, bands, fillings ----------
Reduced to 217 k-points under symmetry. 
Computing the number of bands and number of electrons
Calculating initial fillings.
nElectrons:   9.000000   nBands: 6   nStates: 217

----- Setting up reduced wavefunction bases (one per k-point) -----
average nbasis = 4002.191 , ideal nbasis = 4001.987

---------- Setting up coulomb interaction ----------
Initialized slab truncation along lattice direction 001

---------- Setting up 2D ewald sum ----------
Optimum gaussian width for ewald sums = 2.886961 bohr.
Real space sums over 289 unit cells with max indices [  8  8  0  ]
Reciprocal space sums over 81 terms with max indices [  4  4  0  ]

---------- Allocating electronic variables ----------
Initializing wave functions:  linear combination of atomic orbitals
Note: number of bands (6) exceeds available atomic orbitals (5)
Rb pseudo-atom occupations:   s ( 2 1 )  p ( 6 )
	FillingsUpdate:  mu: -0.137961972  nElectrons: 9.000000
LCAOMinimize: Iter:   0  F: -24.2387128088498756  |grad|_K:  1.391e-04  alpha:  1.000e+00
	FillingsUpdate:  mu: -0.136906416  nElectrons: 9.000000
LCAOMinimize: Iter:   1  F: -24.2387792844059646  |grad|_K:  1.038e-05  alpha:  8.965e-01  linmin: -5.437e-02  cgtest:  1.140e+00  t[s]:      4.36
LCAOMinimize: Encountered beta<0, resetting CG.
[d-16-8-1:68661] 18 more processes have sent help message help-mpi-common-cuda.txt / dlopen failed
[d-16-8-1:68661] Set MCA parameter "orte_base_help_aggregate" to 0 to see all help / error messages
[d-16-8-1:68661] 18 more processes have sent help message help-mpi-btl-openib-cpc-base.txt / no cpcs for port
	FillingsUpdate:  mu: -0.136832463  nElectrons: 9.000000
LCAOMinimize: Iter:   2  F: -24.2387796957208543  |grad|_K:  1.769e-07  alpha:  9.766e-01  linmin: -3.570e-02  cgtest:  6.014e-01  t[s]:      5.80
LCAOMinimize: Encountered beta<0, resetting CG.
	FillingsUpdate:  mu: -0.136832086  nElectrons: 9.000000
LCAOMinimize: Iter:   3  F: -24.2387796958425561  |grad|_K:  1.894e-09  alpha:  9.898e-01  linmin: -3.222e-02  cgtest:  2.477e-01  t[s]:      7.29
LCAOMinimize: Encountered beta<0, resetting CG.
LCAOMinimize: Converged (|Delta F|<1.000000e-06 for 2 iters).


---- Citations for features of the code used in this run ----

   Software package:
      R. Sundararaman, K. Letchworth-Weaver, K.A. Schwarz, D. Gunceler, Y. Ozhabes and T.A. Arias, 'JDFTx: software for joint density-functional theory', SoftwareX 6, 278 (2017)

   gga-PBE exchange-correlation functional:
      J.P. Perdew, K. Burke and M. Ernzerhof, Phys. Rev. Lett. 77, 3865 (1996)

   Pseudopotentials:
      M Schlipf and F Gygi, Comput. Phys. Commun. 196, 36 (2015)

   Truncated Coulomb potentials:
      R. Sundararaman and T.A. Arias, Phys. Rev. B 87, 165122 (2013)

   Total energy minimization with Auxiliary Hamiltonian:
      C. Freysoldt, S. Boeck, and J. Neugebauer, Phys. Rev. B 79, 241103(R) (2009)

This list may not be complete. Please suggest additional citations or
report any other bugs at https://github.com/shankar1729/jdftx/issues

Initialization completed successfully at t[s]:      7.43


-------- Electronic minimization -----------
	FillingsUpdate:  mu: -0.136832086  nElectrons: 9.000000
ElecMinimize: Iter:   0  F: -24.238779695842553  |grad|_K:  7.659e-05  alpha:  1.000e+00
	FillingsUpdate:  mu: -0.129512724  nElectrons: 9.000000
	SubspaceRotationAdjust: set factor to 1
ElecMinimize: Iter:   1  F: -24.268975936338236  |grad|_K:  4.301e-05  alpha:  9.872e-01  linmin:  3.480e-04  t[s]:     10.39
	FillingsUpdate:  mu: -0.129192572  nElectrons: 9.000000
	SubspaceRotationAdjust: set factor to 1
ElecMinimize: Iter:   2  F: -24.281135388314095  |grad|_K:  4.417e-05  alpha:  1.264e+00  linmin:  1.364e-03  t[s]:     12.20
	FillingsUpdate:  mu: -0.129016169  nElectrons: 9.000000
	SubspaceRotationAdjust: set factor to 1.33
ElecMinimize: Iter:   3  F: -24.283983969894035  |grad|_K:  4.574e-05  alpha:  1.506e-01  linmin: -5.487e-03  t[s]:     14.02
	FillingsUpdate:  mu: -0.125798646  nElectrons: 9.000000
	SubspaceRotationAdjust: set factor to 1.48
ElecMinimize: Iter:   4  F: -24.290293219711536  |grad|_K:  3.091e-05  alpha:  2.039e-01  linmin: -9.139e-03  t[s]:     15.84
ElecMinimize: 	Wrong curvature in test step, increasing alphaT to 6.116700e-01.
	FillingsUpdate:  mu: -0.120541035  nElectrons: 9.000000
	SubspaceRotationAdjust: set factor to 1.78
ElecMinimize: Iter:   5  F: -24.294061549242883  |grad|_K:  3.363e-05  alpha: -1.908e+00  linmin: -6.935e-03  t[s]:     17.54
	FillingsUpdate:  mu: -0.118773856  nElectrons: 9.000000
	SubspaceRotationAdjust: set factor to 2
ElecMinimize: Iter:   6  F: -24.295372316964709  |grad|_K:  3.443e-05  alpha:  4.713e-02  linmin: -8.322e-03  t[s]:     19.38
ElecMinimize: 	Wrong curvature in test step, increasing alphaT to 1.414015e-01.
	FillingsUpdate:  mu: -0.116586344  nElectrons: 9.000000
	SubspaceRotationAdjust: set factor to 2.6
ElecMinimize: Iter:   7  F: -24.297386948820257  |grad|_K:  3.706e-05  alpha: -3.955e-01  linmin: -1.163e-02  t[s]:     21.07
	FillingsUpdate:  mu: -0.115787276  nElectrons: 9.000000
	SubspaceRotationAdjust: set factor to 2.87
ElecMinimize: Iter:   8  F: -24.300090860458049  |grad|_K:  3.446e-05  alpha:  4.317e-02  linmin: -1.074e-02  t[s]:     22.92
ElecMinimize: 	Predicted alpha/alphaT>3.000000, increasing alphaT to 1.295221e-01.
	FillingsUpdate:  mu: -0.115813612  nElectrons: 9.000000
	SubspaceRotationAdjust: set factor to 2.86
ElecMinimize: Iter:   9  F: -24.303855013391836  |grad|_K:  3.539e-05  alpha:  7.267e-02  linmin: -9.882e-03  t[s]:     25.32
	FillingsUpdate:  mu: -0.117541477  nElectrons: 9.000000
	SubspaceRotationAdjust: set factor to 3.21
ElecMinimize: Iter:  10  F: -24.304743473198162  |grad|_K:  3.555e-05  alpha:  2.186e-02  linmin: -6.499e-03  t[s]:     27.14
ElecMinimize: 	Step increased F by 3.512023e-05, reducing alpha to 5.064475e-04.
ElecMinimize: 	Step increased F by 8.238802e-05, reducing alpha to 5.064475e-05.
	FillingsUpdate:  mu: -0.117504129  nElectrons: 9.000000
	SubspaceRotationAdjust: set factor to 4.3
ElecMinimize: Iter:  11  F: -24.304744637023397  |grad|_K:  3.829e-05  alpha:  5.064e-05  linmin:  2.307e-03  t[s]:     31.40
ElecMinimize: 	Bad step direction: g.d > 0.
ElecMinimize: 	Undoing step.
ElecMinimize: 	Step failed: resetting search direction.
	FillingsUpdate:  mu: -0.117504129  nElectrons: 9.000000
	SubspaceRotationAdjust: set factor to 5.2
ElecMinimize: Iter:  12  F: -24.304744637023440  |grad|_K:  4.048e-05  alpha:  0.000e+00
ElecMinimize: 	Predicted alpha/alphaT>3.000000, increasing alphaT to 1.519343e-04.
ElecMinimize: 	Predicted alpha/alphaT>3.000000, increasing alphaT to 4.558028e-04.
ElecMinimize: 	Predicted alpha/alphaT>3.000000, increasing alphaT to 1.367408e-03.
	FillingsUpdate:  mu: -0.117399564  nElectrons: 9.000000
	SubspaceRotationAdjust: set factor to 6.93
ElecMinimize: Iter:  13  F: -24.304941394339682  |grad|_K:  3.782e-05  alpha:  6.873e-03  linmin: -2.960e-02  t[s]:     35.68
ElecMinimize: 	Wrong curvature in test step, increasing alphaT to 2.061904e-02.
	FillingsUpdate:  mu: -0.116167399  nElectrons: 9.000000
	SubspaceRotationAdjust: set factor to 9.21
	SubspaceRotationAdjust: resetting CG because factor has changed by 9.20895
ElecMinimize: 	State modified externally: resetting search direction.
ElecMinimize: Iter:  14  F: -24.305141612880380  |grad|_K:  4.003e-05  alpha: -5.317e-02
	FillingsUpdate:  mu: -0.123062968  nElectrons: 9.000000
	SubspaceRotationAdjust: set factor to 5.6
ElecMinimize: Iter:  15  F: -24.306136801902028  |grad|_K:  4.954e-05  alpha:  2.157e-01  linmin:  2.139e-02  t[s]:     40.30
	FillingsUpdate:  mu: -0.126088005  nElectrons: 9.000000
	SubspaceRotationAdjust: set factor to 3.42
ElecMinimize: Iter:  16  F: -24.306382204963978  |grad|_K:  4.454e-05  alpha:  1.063e-01  linmin: -3.833e-03  t[s]:     42.13
ElecMinimize: 	Wrong curvature in test step, increasing alphaT to 3.189752e-01.
	FillingsUpdate:  mu: -0.114802641  nElectrons: 9.000000
	SubspaceRotationAdjust: set factor to 3.1
ElecMinimize: Iter:  17  F: -24.309677158148514  |grad|_K:  3.017e-05  alpha: -1.675e-01  linmin: -2.159e-02  t[s]:     43.83
	FillingsUpdate:  mu: -0.109276180  nElectrons: 9.000000
	SubspaceRotationAdjust: set factor to 2.97
ElecMinimize: Iter:  18  F: -24.312862302888060  |grad|_K:  2.204e-05  alpha:  1.977e-01  linmin: -1.678e-02  t[s]:     45.68
	FillingsUpdate:  mu: -0.104579700  nElectrons: 9.000000
	SubspaceRotationAdjust: set factor to 3.51
ElecMinimize: Iter:  19  F: -24.313377547543269  |grad|_K:  2.201e-05  alpha:  1.585e-01  linmin: -1.047e-02  t[s]:     47.52
ElecMinimize: 	Predicted alpha/alphaT>3.000000, increasing alphaT to 4.754010e-01.
	FillingsUpdate:  mu: -0.121814087  nElectrons: 9.000000
	SubspaceRotationAdjust: set factor to 3.11
ElecMinimize: Iter:  20  F: -24.316628159313272  |grad|_K:  2.546e-05  alpha:  3.306e-01  linmin: -4.328e-03  t[s]:     49.91
ElecMinimize: 	Step increased F by 6.597415e-03, reducing alpha to 5.838302e-02.
	FillingsUpdate:  mu: -0.123263802  nElectrons: 9.000000
	SubspaceRotationAdjust: set factor to 1.9
ElecMinimize: Iter:  21  F: -24.317692265508388  |grad|_K:  4.104e-05  alpha:  5.838e-02  linmin: -1.128e-02  t[s]:     52.96
	FillingsUpdate:  mu: -0.120506131  nElectrons: 9.000000
	SubspaceRotationAdjust: set factor to 2.66
ElecMinimize: Iter:  22  F: -24.320371726530553  |grad|_K:  2.656e-05  alpha:  6.835e-02  linmin: -1.415e-02  t[s]:     54.78
ElecMinimize: 	Wrong curvature in test step, increasing alphaT to 2.050488e-01.
	FillingsUpdate:  mu: -0.116601175  nElectrons: 9.000000
	SubspaceRotationAdjust: set factor to 3.36
ElecMinimize: Iter:  23  F: -24.321611216531938  |grad|_K:  2.665e-05  alpha: -1.673e-01  linmin: -9.049e-03  t[s]:     56.50
ElecMinimize: 	Step increased F by 5.441780e-05, reducing alpha to 1.066975e-02.
	FillingsUpdate:  mu: -0.116717938  nElectrons: 9.000000
	SubspaceRotationAdjust: set factor to 2.31
ElecMinimize: Iter:  24  F: -24.321661973175626  |grad|_K:  4.105e-05  alpha:  1.067e-02  linmin:  5.562e-04  t[s]:     59.55
ElecMinimize: 	Wrong curvature in test step, increasing alphaT to 3.200924e-02.
	FillingsUpdate:  mu: -0.111689282  nElectrons: 9.000000
	SubspaceRotationAdjust: set factor to 3.25
ElecMinimize: Iter:  25  F: -24.322013402720135  |grad|_K:  2.305e-05  alpha: -4.279e-03  linmin: -9.489e-03  t[s]:     61.24
	FillingsUpdate:  mu: -0.101208991  nElectrons: 9.000000
	SubspaceRotationAdjust: set factor to 3.2
ElecMinimize: Iter:  26  F: -24.322933170488696  |grad|_K:  2.078e-05  alpha:  1.362e-01  linmin: -3.107e-03  t[s]:     63.08
	FillingsUpdate:  mu: -0.097441062  nElectrons: 9.000000
	SubspaceRotationAdjust: set factor to 1.97
ElecMinimize: Iter:  27  F: -24.323327301564852  |grad|_K:  4.032e-05  alpha:  9.714e-02  linmin:  8.387e-03  t[s]:     64.91
ElecMinimize: 	Bad step direction: g.d > 0.
ElecMinimize: 	Undoing step.
ElecMinimize: 	Step failed: resetting search direction.
	FillingsUpdate:  mu: -0.097441062  nElectrons: 9.000000
	SubspaceRotationAdjust: set factor to 1.36
ElecMinimize: Iter:  28  F: -24.323327301564888  |grad|_K:  3.343e-05  alpha:  0.000e+00
	FillingsUpdate:  mu: -0.107934266  nElectrons: 9.000000
	SubspaceRotationAdjust: set factor to 1.68
ElecMinimize: Iter:  29  F: -24.324403960533992  |grad|_K:  1.541e-05  alpha:  1.459e-01  linmin: -6.135e-03  t[s]:     68.03
ElecMinimize: 	Wrong curvature in test step, increasing alphaT to 4.376017e-01.
	FillingsUpdate:  mu: -0.107801196  nElectrons: 9.000000
	SubspaceRotationAdjust: set factor to 1.79
ElecMinimize: Iter:  30  F: -24.325296753705572  |grad|_K:  1.338e-05  alpha: -7.596e-02  linmin: -1.213e-02  t[s]:     69.74
	FillingsUpdate:  mu: -0.111053174  nElectrons: 9.000000
	SubspaceRotationAdjust: set factor to 1.72
ElecMinimize: Iter:  31  F: -24.326261918637037  |grad|_K:  1.051e-05  alpha:  2.945e-01  linmin: -1.026e-02  t[s]:     71.55
	FillingsUpdate:  mu: -0.114600540  nElectrons: 9.000000
	SubspaceRotationAdjust: set factor to 1.35
ElecMinimize: Iter:  32  F: -24.326578892011582  |grad|_K:  1.498e-05  alpha:  2.418e-01  linmin: -3.872e-04  t[s]:     73.37
ElecMinimize: 	Wrong curvature in test step, increasing alphaT to 7.253593e-01.
	FillingsUpdate:  mu: -0.113772844  nElectrons: 9.000000
	SubspaceRotationAdjust: set factor to 0.779
	SubspaceRotationAdjust: resetting CG because factor has changed by 0.0846051
ElecMinimize: 	State modified externally: resetting search direction.
ElecMinimize: Iter:  33  F: -24.327409928535609  |grad|_K:  1.566e-05  alpha: -3.174e-01
	FillingsUpdate:  mu: -0.104133097  nElectrons: 9.000000
	SubspaceRotationAdjust: set factor to 0.892
ElecMinimize: Iter:  34  F: -24.328184774458528  |grad|_K:  6.783e-06  alpha:  7.502e-01  linmin: -9.864e-03  t[s]:     77.98
ElecMinimize: 	Predicted alpha/alphaT>3.000000, increasing alphaT to 2.250513e+00.
	FillingsUpdate:  mu: -0.113112852  nElectrons: 9.000000
	SubspaceRotationAdjust: set factor to 0.7
ElecMinimize: Iter:  35  F: -24.328654697243131  |grad|_K:  8.411e-06  alpha:  1.248e+00  linmin:  6.792e-03  t[s]:     80.36
ElecMinimize: 	Step increased F by 2.367642e-03, reducing alpha to 2.913500e-01.
	FillingsUpdate:  mu: -0.113716493  nElectrons: 9.000000
	SubspaceRotationAdjust: set factor to 0.731
ElecMinimize: Iter:  36  F: -24.328901689578835  |grad|_K:  6.192e-06  alpha:  2.914e-01  linmin: -5.160e-02  t[s]:     83.40
ElecMinimize: 	Wrong curvature in test step, increasing alphaT to 8.740501e-01.
	FillingsUpdate:  mu: -0.111211949  nElectrons: 9.000000
	SubspaceRotationAdjust: set factor to 0.827
ElecMinimize: Iter:  37  F: -24.329146049995863  |grad|_K:  4.735e-06  alpha: -5.443e+00  linmin: -5.250e-02  t[s]:     85.14
ElecMinimize: 	Wrong curvature in test step, increasing alphaT to 3.000000e+00.
	FillingsUpdate:  mu: -0.109285354  nElectrons: 9.000000
	SubspaceRotationAdjust: set factor to 0.836
ElecMinimize: Iter:  38  F: -24.329815945917733  |grad|_K:  8.332e-06  alpha: -3.604e+00  linmin: -1.266e-02  t[s]:     86.85
	FillingsUpdate:  mu: -0.103845472  nElectrons: 9.000000
	SubspaceRotationAdjust: set factor to 0.864
ElecMinimize: Iter:  39  F: -24.329996877130657  |grad|_K:  9.261e-06  alpha:  1.308e-01  linmin: -2.147e-02  t[s]:     88.66
	FillingsUpdate:  mu: -0.100164877  nElectrons: 9.000000
	SubspaceRotationAdjust: set factor to 0.885
ElecMinimize: Iter:  40  F: -24.330075130896024  |grad|_K:  8.214e-06  alpha:  1.008e-01  linmin: -1.950e-02  t[s]:     90.46
	FillingsUpdate:  mu: -0.100667218  nElectrons: 9.000000
	SubspaceRotationAdjust: set factor to 0.937
ElecMinimize: Iter:  41  F: -24.330151590795978  |grad|_K:  6.798e-06  alpha:  6.201e-02  linmin: -1.449e-02  t[s]:     92.28
	FillingsUpdate:  mu: -0.100976721  nElectrons: 9.000000
	SubspaceRotationAdjust: set factor to 1.01
ElecMinimize: Iter:  42  F: -24.330176462632153  |grad|_K:  6.182e-06  alpha:  2.441e-02  linmin: -1.283e-02  t[s]:     94.10
ElecMinimize: 	Wrong curvature in test step, increasing alphaT to 7.323126e-02.
	FillingsUpdate:  mu: -0.102437058  nElectrons: 9.000000
	SubspaceRotationAdjust: set factor to 1.17
ElecMinimize: Iter:  43  F: -24.330221651497322  |grad|_K:  6.494e-06  alpha: -2.070e-02  linmin: -1.177e-02  t[s]:     95.81
	FillingsUpdate:  mu: -0.107271789  nElectrons: 9.000000
	SubspaceRotationAdjust: set factor to 1.34
ElecMinimize: Iter:  44  F: -24.330223117686884  |grad|_K:  4.026e-06  alpha:  4.008e-02  linmin: -8.499e-03  t[s]:     97.64
ElecMinimize: 	Wrong curvature in test step, increasing alphaT to 1.202449e-01.
	FillingsUpdate:  mu: -0.110641395  nElectrons: 9.000000
	SubspaceRotationAdjust: set factor to 0.672
ElecMinimize: Iter:  45  F: -24.330253180263657  |grad|_K:  3.207e-05  alpha: -2.524e-02  linmin: -4.577e-03  t[s]:     99.41
ElecMinimize: 	Step increased F by 1.137576e-02, reducing alpha to 2.691171e-03.
	FillingsUpdate:  mu: -0.115260136  nElectrons: 9.000000
	SubspaceRotationAdjust: set factor to 0.768
ElecMinimize: Iter:  46  F: -24.330303800712535  |grad|_K:  4.240e-06  alpha:  2.691e-03  linmin:  7.790e-03  t[s]:    102.44
ElecMinimize: 	Bad step direction: g.d > 0.
ElecMinimize: 	Undoing step.
ElecMinimize: 	Step failed: resetting search direction.
	FillingsUpdate:  mu: -0.115260136  nElectrons: 9.000000
	SubspaceRotationAdjust: set factor to 0.828
ElecMinimize: Iter:  47  F: -24.330303800712532  |grad|_K:  4.263e-06  alpha:  0.000e+00
ElecMinimize: 	Predicted alpha/alphaT>3.000000, increasing alphaT to 8.073512e-03.
ElecMinimize: 	Predicted alpha/alphaT>3.000000, increasing alphaT to 2.422054e-02.
ElecMinimize: 	Predicted alpha/alphaT>3.000000, increasing alphaT to 7.266161e-02.
	FillingsUpdate:  mu: -0.111576702  nElectrons: 9.000000
	SubspaceRotationAdjust: set factor to 0.785
ElecMinimize: Iter:  48  F: -24.330374054419405  |grad|_K:  2.485e-06  alpha:  5.428e-01  linmin:  2.531e-03  t[s]:    106.70
ElecMinimize: 	Predicted alpha/alphaT>3.000000, increasing alphaT to 1.628293e+00.
	FillingsUpdate:  mu: -0.108870189  nElectrons: 9.000000
	SubspaceRotationAdjust: set factor to 0.659
ElecMinimize: Iter:  49  F: -24.330398510713433  |grad|_K:  2.936e-06  alpha:  9.385e-01  linmin:  1.984e-03  t[s]:    109.11
	FillingsUpdate:  mu: -0.112677574  nElectrons: 9.000000
	SubspaceRotationAdjust: set factor to 0.691
ElecMinimize: Iter:  50  F: -24.330432630596192  |grad|_K:  1.373e-06  alpha:  2.340e-01  linmin: -5.563e-02  t[s]:    110.93
ElecMinimize: 	Predicted alpha/alphaT>3.000000, increasing alphaT to 7.019389e-01.
	FillingsUpdate:  mu: -0.113410569  nElectrons: 9.000000
	SubspaceRotationAdjust: set factor to 0.733
ElecMinimize: Iter:  51  F: -24.330450400059974  |grad|_K:  1.673e-06  alpha:  1.086e+00  linmin: -9.948e-03  t[s]:    113.37
	FillingsUpdate:  mu: -0.111806419  nElectrons: 9.000000
	SubspaceRotationAdjust: set factor to 0.725
ElecMinimize: Iter:  52  F: -24.330456832073558  |grad|_K:  4.024e-06  alpha:  2.441e+00  linmin:  2.239e-02  t[s]:    115.19
ElecMinimize: 	Bad step direction: g.d > 0.
ElecMinimize: 	Undoing step.
ElecMinimize: 	Step failed: resetting search direction.
	FillingsUpdate:  mu: -0.111806419  nElectrons: 9.000000
	SubspaceRotationAdjust: set factor to 0.745
ElecMinimize: Iter:  53  F: -24.330456832073551  |grad|_K:  4.021e-06  alpha:  0.000e+00
	FillingsUpdate:  mu: -0.111555553  nElectrons: 9.000000
	SubspaceRotationAdjust: set factor to 0.843
ElecMinimize: Iter:  54  F: -24.330490643981442  |grad|_K:  1.583e-06  alpha:  3.342e-01  linmin: -1.283e-02  t[s]:    118.28
ElecMinimize: 	Predicted alpha/alphaT>3.000000, increasing alphaT to 1.002587e+00.
	FillingsUpdate:  mu: -0.111187631  nElectrons: 9.000000
	SubspaceRotationAdjust: set factor to 0.715
ElecMinimize: Iter:  55  F: -24.330504657277320  |grad|_K:  1.582e-06  alpha:  1.032e+00  linmin:  7.537e-03  t[s]:    120.69
ElecMinimize: 	Step increased F by 6.757799e-07, reducing alpha to 4.480785e-02.
	FillingsUpdate:  mu: -0.111179643  nElectrons: 9.000000
	SubspaceRotationAdjust: set factor to 0.912
ElecMinimize: Iter:  56  F: -24.330505512931840  |grad|_K:  1.572e-06  alpha:  4.481e-02  linmin: -1.472e-02  t[s]:    123.73
	FillingsUpdate:  mu: -0.111204732  nElectrons: 9.000000
	SubspaceRotationAdjust: set factor to 1.1
ElecMinimize: Iter:  57  F: -24.330506212088416  |grad|_K:  1.519e-06  alpha:  1.644e-02  linmin: -2.985e-02  t[s]:    125.54
	FillingsUpdate:  mu: -0.111205768  nElectrons: 9.000000
	SubspaceRotationAdjust: set factor to 1.37
ElecMinimize: Iter:  58  F: -24.330506453061872  |grad|_K:  1.539e-06  alpha:  4.029e-03  linmin: -2.919e-02  t[s]:    127.38
	FillingsUpdate:  mu: -0.111123981  nElectrons: 9.000000
	SubspaceRotationAdjust: set factor to 1.21
ElecMinimize: Iter:  59  F: -24.330506619749126  |grad|_K:  1.946e-06  alpha:  5.786e-03  linmin:  1.194e-02  t[s]:    129.20
ElecMinimize: 	Bad step direction: g.d > 0.
ElecMinimize: 	Undoing step.
ElecMinimize: 	Step failed: resetting search direction.
	FillingsUpdate:  mu: -0.111123981  nElectrons: 9.000000
	SubspaceRotationAdjust: set factor to 1.14
ElecMinimize: Iter:  60  F: -24.330506619749091  |grad|_K:  1.883e-06  alpha:  0.000e+00
ElecMinimize: 	Predicted alpha/alphaT>3.000000, increasing alphaT to 1.735751e-02.
ElecMinimize: 	Predicted alpha/alphaT>3.000000, increasing alphaT to 5.207253e-02.
	FillingsUpdate:  mu: -0.111293000  nElectrons: 9.000000
	SubspaceRotationAdjust: set factor to 1.18
ElecMinimize: Iter:  61  F: -24.330508271584051  |grad|_K:  1.133e-06  alpha:  7.592e-02  linmin: -3.446e-02  t[s]:    133.39
ElecMinimize: 	Predicted alpha/alphaT>3.000000, increasing alphaT to 2.277567e-01.
	FillingsUpdate:  mu: -0.111598991  nElectrons: 9.000000
	SubspaceRotationAdjust: set factor to 1.18
ElecMinimize: Iter:  62  F: -24.330513054863342  |grad|_K:  8.281e-07  alpha:  4.808e-01  linmin: -4.237e-03  t[s]:    135.80
	FillingsUpdate:  mu: -0.111985044  nElectrons: 9.000000
	SubspaceRotationAdjust: set factor to 1.19
ElecMinimize: Iter:  63  F: -24.330517312784718  |grad|_K:  1.025e-06  alpha:  1.092e+00  linmin:  6.491e-04  t[s]:    137.63
	FillingsUpdate:  mu: -0.112035737  nElectrons: 9.000000
	SubspaceRotationAdjust: set factor to 1.2
ElecMinimize: Iter:  64  F: -24.330520194390704  |grad|_K:  7.769e-07  alpha:  3.661e-01  linmin: -1.164e-02  t[s]:    139.46
	FillingsUpdate:  mu: -0.111770167  nElectrons: 9.000000
	SubspaceRotationAdjust: set factor to 0.935
ElecMinimize: Iter:  65  F: -24.330521965189103  |grad|_K:  4.497e-07  alpha:  2.721e-01  linmin: -8.318e-03  t[s]:    141.29
	FillingsUpdate:  mu: -0.111357628  nElectrons: 9.000000
	SubspaceRotationAdjust: set factor to 0.57
ElecMinimize: Iter:  66  F: -24.330522262720336  |grad|_K:  6.435e-07  alpha:  1.831e-01  linmin:  8.350e-05  t[s]:    143.11
	FillingsUpdate:  mu: -0.111315466  nElectrons: 9.000000
	SubspaceRotationAdjust: set factor to 0.325
ElecMinimize: Iter:  67  F: -24.330522483607872  |grad|_K:  5.693e-07  alpha:  8.700e-02  linmin: -9.161e-04  t[s]:    144.93
	FillingsUpdate:  mu: -0.111601390  nElectrons: 9.000000
	SubspaceRotationAdjust: set factor to 0.355
ElecMinimize: Iter:  68  F: -24.330522686635813  |grad|_K:  3.440e-07  alpha:  1.015e-01  linmin: -2.458e-04  t[s]:    146.76
	FillingsUpdate:  mu: -0.111795344  nElectrons: 9.000000
	SubspaceRotationAdjust: set factor to 0.42
ElecMinimize: Iter:  69  F: -24.330522800061402  |grad|_K:  2.892e-07  alpha:  1.620e-01  linmin: -4.251e-03  t[s]:    148.59
	FillingsUpdate:  mu: -0.111904757  nElectrons: 9.000000
	SubspaceRotationAdjust: set factor to 0.423
ElecMinimize: Iter:  70  F: -24.330523091068340  |grad|_K:  2.111e-07  alpha:  4.198e-01  linmin: -1.117e-02  t[s]:    150.41
	FillingsUpdate:  mu: -0.111953284  nElectrons: 9.000000
	SubspaceRotationAdjust: set factor to 0.424
ElecMinimize: Iter:  71  F: -24.330523354231296  |grad|_K:  1.843e-07  alpha:  7.402e-01  linmin: -1.947e-04  t[s]:    152.22
	FillingsUpdate:  mu: -0.111951818  nElectrons: 9.000000
	SubspaceRotationAdjust: set factor to 0.426
ElecMinimize: Iter:  72  F: -24.330523523250189  |grad|_K:  2.031e-07  alpha:  9.442e-01  linmin:  5.233e-06  t[s]:    154.02
	FillingsUpdate:  mu: -0.111900319  nElectrons: 9.000000
	SubspaceRotationAdjust: set factor to 0.428
ElecMinimize: Iter:  73  F: -24.330523693124515  |grad|_K:  1.707e-07  alpha:  7.900e-01  linmin:  2.271e-06  t[s]:    155.88
	FillingsUpdate:  mu: -0.111867868  nElectrons: 9.000000
	SubspaceRotationAdjust: set factor to 0.432
ElecMinimize: Iter:  74  F: -24.330523786953538  |grad|_K:  1.214e-07  alpha:  6.173e-01  linmin:  8.791e-07  t[s]:    157.74
	FillingsUpdate:  mu: -0.111869904  nElectrons: 9.000000
	SubspaceRotationAdjust: set factor to 0.435
ElecMinimize: Iter:  75  F: -24.330523838850020  |grad|_K:  1.057e-07  alpha:  6.758e-01  linmin:  1.692e-06  t[s]:    159.58
	FillingsUpdate:  mu: -0.111886379  nElectrons: 9.000000
	SubspaceRotationAdjust: set factor to 0.436
ElecMinimize: Iter:  76  F: -24.330523881061914  |grad|_K:  9.189e-08  alpha:  7.249e-01  linmin:  3.643e-07  t[s]:    161.40
	FillingsUpdate:  mu: -0.111894825  nElectrons: 9.000000
	SubspaceRotationAdjust: set factor to 0.437
ElecMinimize: Iter:  77  F: -24.330523915507086  |grad|_K:  7.547e-08  alpha:  7.825e-01  linmin: -1.378e-07  t[s]:    163.23
	FillingsUpdate:  mu: -0.111888801  nElectrons: 9.000000
	SubspaceRotationAdjust: set factor to 0.44
ElecMinimize: Iter:  78  F: -24.330523932018426  |grad|_K:  5.118e-08  alpha:  5.559e-01  linmin:  2.622e-07  t[s]:    165.07
	FillingsUpdate:  mu: -0.111880002  nElectrons: 9.000000
	SubspaceRotationAdjust: set factor to 0.446
ElecMinimize: Iter:  79  F: -24.330523940459791  |grad|_K:  3.681e-08  alpha:  6.180e-01  linmin: -5.875e-07  t[s]:    166.92
	FillingsUpdate:  mu: -0.111875970  nElectrons: 9.000000
	SubspaceRotationAdjust: set factor to 0.453
ElecMinimize: Iter:  80  F: -24.330523945111132  |grad|_K:  3.001e-08  alpha:  6.579e-01  linmin: -1.011e-06  t[s]:    168.74
ElecMinimize: Converged (|Delta F|<1.000000e-08 for 2 iters).
Setting wave functions to eigenvectors of Hamiltonian

# Ionic positions in lattice coordinates:
ion Rb   0.000000000000000   0.000000000000000   0.000000000000000 0

# Forces in Lattice coordinates:
force Rb   0.000000000000000  -0.000000000000000   0.000000000000000 0

# Energy components:
   Eewald =      -32.8145929096957545
       EH =      -13.8312659542067564
     Eloc =       19.5780159457020417
      Enl =       -0.8164407690729878
   Epulay =        0.0000000029699513
      Exc =       -3.8386477302052513
       KE =        7.3924075487166823
-------------------------------------
     Etot =      -24.3305238657920739
       TS =        0.0000000793190572
-------------------------------------
        F =      -24.3305239451111319

IonicMinimize: Iter:   0  F: -24.330523945111132  |grad|_K:  0.000e+00  t[s]:    168.89
IonicMinimize: Converged (|grad|_K<1.000000e-04).

#--- Lowdin population analysis ---
# oxidation-state Rb +0.618

End date and time: Sun Jan 16 15:48:51 2022  (Duration: 0-0:02:48.93)
Done!
