1.94
--------------------------------------------------------------------------
The library attempted to open the following supporting CUDA libraries,
but each of them failed.  CUDA-aware support is disabled.
libcuda.so.1: cannot open shared object file: No such file or directory
libcuda.dylib: cannot open shared object file: No such file or directory
/usr/lib64/libcuda.so.1: cannot open shared object file: No such file or directory
/usr/lib64/libcuda.dylib: cannot open shared object file: No such file or directory
If you are not interested in CUDA-aware support, then run with
--mca opal_warn_on_missing_libcuda 0 to suppress this message.  If you are interested
in CUDA-aware support, then try setting LD_LIBRARY_PATH to the location
of libcuda.so.1 to get passed this issue.
--------------------------------------------------------------------------
--------------------------------------------------------------------------
No OpenFabrics connection schemes reported that they were able to be
used on a specific port.  As such, the openib BTL (OpenFabrics
support) will be disabled for this port.

  Local host:           d-4-3-2
  Local device:         mlx5_1
  Local port:           1
  CPCs attempted:       rdmacm, udcm
--------------------------------------------------------------------------

*************** JDFTx 1.6.0 (git hash 42ebbcc2) ***************

Start date and time: Sun Jan 16 15:51:07 2022
Executable jdftx with command-line: -i Rubidium.in
Running on hosts (process indices):  d-4-3-2 (0-18)
Divided in process groups (process indices):  0 (0)  1 (1)  2 (2)  3 (3)  4 (4)  5 (5)  6 (6)  7 (7)  8 (8)  9 (9)  10 (10)  11 (11)  12 (12)  13 (13)  14 (14)  15 (15)  16 (16)  17 (17)  18 (18)
Resource initialization completed at t[s]:      0.00
Run totals: 19 processes, 48 threads, 0 GPUs


Input parsed successfully to the following command list (including defaults):

basis kpoint-dependent
coords-type Lattice
core-overlap-check vector
coulomb-interaction Slab 001
davidson-band-ratio 1.1
dump End None
dump-name $INPUT.$VAR
elec-cutoff 20 100
elec-eigen-algo Davidson
elec-ex-corr gga-PBE
elec-smearing Fermi 1e-05
electronic-minimize  \
	dirUpdateScheme      FletcherReeves \
	linminMethod         DirUpdateRecommended \
	nIterations          10000 \
	history              15 \
	knormThreshold       0 \
	energyDiffThreshold  1e-08 \
	nEnergyDiff          2 \
	alphaTstart          1 \
	alphaTmin            1e-10 \
	updateTestStepSize   yes \
	alphaTreduceFactor   0.1 \
	alphaTincreaseFactor 3 \
	nAlphaAdjustMax      3 \
	wolfeEnergy          0.0001 \
	wolfeGradient        0.9 \
	fdTest               no
exchange-regularization WignerSeitzTruncated
fluid None
fluid-ex-corr (null) lda-PZ
fluid-gummel-loop 10 1.000000e-05
fluid-minimize  \
	dirUpdateScheme      PolakRibiere \
	linminMethod         DirUpdateRecommended \
	nIterations          100 \
	history              15 \
	knormThreshold       0 \
	energyDiffThreshold  0 \
	nEnergyDiff          2 \
	alphaTstart          1 \
	alphaTmin            1e-10 \
	updateTestStepSize   yes \
	alphaTreduceFactor   0.1 \
	alphaTincreaseFactor 3 \
	nAlphaAdjustMax      3 \
	wolfeEnergy          0.0001 \
	wolfeGradient        0.9 \
	fdTest               no
fluid-solvent H2O 55.338 ScalarEOS \
	epsBulk 78.4 \
	pMol 0.92466 \
	epsInf 1.77 \
	Pvap 1.06736e-10 \
	sigmaBulk 4.62e-05 \
	Rvdw 2.61727 \
	Res 1.42 \
	tauNuc 343133 \
	poleEl 15 7 1
forces-output-coords Positions
ion Rb   0.000000000000000   0.000000000000000   0.000000000000000 0
ion-species SG15/$ID_ONCV_PBE.upf
ion-width 0
ionic-minimize  \
	dirUpdateScheme      L-BFGS \
	linminMethod         DirUpdateRecommended \
	nIterations          0 \
	history              15 \
	knormThreshold       0.0001 \
	energyDiffThreshold  1e-06 \
	nEnergyDiff          2 \
	alphaTstart          1 \
	alphaTmin            1e-10 \
	updateTestStepSize   yes \
	alphaTreduceFactor   0.1 \
	alphaTincreaseFactor 3 \
	nAlphaAdjustMax      3 \
	wolfeEnergy          0.0001 \
	wolfeGradient        0.9 \
	fdTest               no
kpoint   0.000000000000   0.000000000000   0.000000000000  1.00000000000000
kpoint-folding 48 48 1 
latt-move-scale 1 1 1
latt-scale 1.94 1.94 1 
lattice  \
	   4.727486978767153   -2.363743489383575    0.000000000000000  \
	  -0.000000000000000    4.094123819672498    0.000000000000000  \
	   0.000000000000000    0.000000000000000   40.000000000000000 
lattice-minimize  \
	dirUpdateScheme      L-BFGS \
	linminMethod         DirUpdateRecommended \
	nIterations          0 \
	history              15 \
	knormThreshold       0 \
	energyDiffThreshold  1e-06 \
	nEnergyDiff          2 \
	alphaTstart          1 \
	alphaTmin            1e-10 \
	updateTestStepSize   yes \
	alphaTreduceFactor   0.1 \
	alphaTincreaseFactor 3 \
	nAlphaAdjustMax      3 \
	wolfeEnergy          0.0001 \
	wolfeGradient        0.9 \
	fdTest               no
lcao-params -1 1e-06 1e-05
pcm-variant GLSSA13
spintype no-spin
subspace-rotation-factor 1 yes
symmetries automatic
symmetry-threshold 0.0001



---------- Setting up symmetries ----------

Found 24 point-group symmetries of the bravais lattice
Found 24 space-group symmetries with basis
Applied RMS atom displacement 0 bohrs to make symmetries exact.

---------- Initializing the Grid ----------
R = 
[      9.17132     -4.58566            0  ]
[            0       7.9426            0  ]
[            0            0           40  ]
unit cell volume = 2913.77
G =
[    0.68509   0.395537         -0  ]
[          0   0.791074         -0  ]
[         -0         -0    0.15708  ]
Minimum fftbox size, Smin = [  44  44  184  ]
Chosen fftbox size, S = [  48  48  192  ]

---------- Initializing tighter grid for wavefunction operations ----------
R = 
[      9.17132     -4.58566            0  ]
[            0       7.9426            0  ]
[            0            0           40  ]
unit cell volume = 2913.77
G =
[    0.68509   0.395537         -0  ]
[          0   0.791074         -0  ]
[         -0         -0    0.15708  ]
Minimum fftbox size, Smin = [  40  40  164  ]
Chosen fftbox size, S = [  40  40  168  ]

---------- Exchange Correlation functional ----------
Initalized PBE GGA exchange.
Initalized PBE GGA correlation.

---------- Setting up pseudopotentials ----------
Width of ionic core gaussian charges (only for fluid interactions / plotting) set to 0

Reading pseudopotential file '/home/gridsan/aligho/DFT/build-Nov24/pseudopotentials/SG15/Rb_ONCV_PBE.upf':
  'Rb' pseudopotential, 'PBE' functional
  Generated using ONCVPSP code by D. R. Hamann
  Author: Martin Schlipf and Francois Gygi  Date: 150915.
  9 valence electrons, 3 orbitals, 6 projectors, 2308 radial grid points, with lMax = 2
  Transforming local potential to a uniform radial grid of dG=0.02 with 1814 points.
  Transforming nonlocal projectors to a uniform radial grid of dG=0.02 with 432 points.
    4S    l: 0   occupation:  2.0   eigenvalue: -1.172069
    4P    l: 1   occupation:  6.0   eigenvalue: -0.586674
    5S    l: 0   occupation:  1.0   eigenvalue: -0.082006
  Transforming atomic orbitals to a uniform radial grid of dG=0.02 with 432 points.
  Core radius for overlap checks: 2.60 bohrs.
  Reading pulay file /home/gridsan/aligho/DFT/build-Nov24/pseudopotentials/SG15/Rb_ONCV_PBE.pulay ... using dE_dnG = -1.360715e-05 computed for Ecut = 20.

Initialized 1 species with 1 total atoms.

Folded 1 k-points by 48x48x1 to 2304 k-points.

---------- Setting up k-points, bands, fillings ----------
Reduced to 217 k-points under symmetry. 
Computing the number of bands and number of electrons
Calculating initial fillings.
nElectrons:   9.000000   nBands: 6   nStates: 217

----- Setting up reduced wavefunction bases (one per k-point) -----
average nbasis = 12448.176 , ideal nbasis = 12447.833

---------- Setting up coulomb interaction ----------
Initialized slab truncation along lattice direction 001

---------- Setting up 2D ewald sum ----------
Optimum gaussian width for ewald sums = 5.091549 bohr.
Real space sums over 289 unit cells with max indices [  8  8  0  ]
Reciprocal space sums over 81 terms with max indices [  4  4  0  ]

---------- Allocating electronic variables ----------
Initializing wave functions:  linear combination of atomic orbitals
Note: number of bands (6) exceeds available atomic orbitals (5)
Rb pseudo-atom occupations:   s ( 2 1 )  p ( 6 )
[d-4-3-2:71570] 18 more processes have sent help message help-mpi-common-cuda.txt / dlopen failed
[d-4-3-2:71570] Set MCA parameter "orte_base_help_aggregate" to 0 to see all help / error messages
[d-4-3-2:71570] 18 more processes have sent help message help-mpi-btl-openib-cpc-base.txt / no cpcs for port
	FillingsUpdate:  mu: -0.096418902  nElectrons: 9.000000
LCAOMinimize: Iter:   0  F: -24.4506530537684128  |grad|_K:  2.414e-06  alpha:  1.000e+00
	FillingsUpdate:  mu: -0.096415174  nElectrons: 9.000000
LCAOMinimize: Iter:   1  F: -24.4506530763682477  |grad|_K:  2.495e-08  alpha:  9.926e-01  linmin: -1.421e-02  cgtest:  2.511e-01  t[s]:     11.16
LCAOMinimize: Encountered beta<0, resetting CG.
	FillingsUpdate:  mu: -0.096415178  nElectrons: 9.000000
LCAOMinimize: Iter:   2  F: -24.4506530763706529  |grad|_K:  4.469e-10  alpha:  9.990e-01  linmin:  1.817e-01  cgtest: -7.137e-01  t[s]:     15.11
LCAOMinimize: Converged (|Delta F|<1.000000e-06 for 2 iters).


---- Citations for features of the code used in this run ----

   Software package:
      R. Sundararaman, K. Letchworth-Weaver, K.A. Schwarz, D. Gunceler, Y. Ozhabes and T.A. Arias, 'JDFTx: software for joint density-functional theory', SoftwareX 6, 278 (2017)

   gga-PBE exchange-correlation functional:
      J.P. Perdew, K. Burke and M. Ernzerhof, Phys. Rev. Lett. 77, 3865 (1996)

   Pseudopotentials:
      M Schlipf and F Gygi, Comput. Phys. Commun. 196, 36 (2015)

   Truncated Coulomb potentials:
      R. Sundararaman and T.A. Arias, Phys. Rev. B 87, 165122 (2013)

   Total energy minimization with Auxiliary Hamiltonian:
      C. Freysoldt, S. Boeck, and J. Neugebauer, Phys. Rev. B 79, 241103(R) (2009)

This list may not be complete. Please suggest additional citations or
report any other bugs at https://github.com/shankar1729/jdftx/issues

Initialization completed successfully at t[s]:     15.45


-------- Electronic minimization -----------
	FillingsUpdate:  mu: -0.096415178  nElectrons: 9.000000
ElecMinimize: Iter:   0  F: -24.450653076370678  |grad|_K:  6.872e-06  alpha:  1.000e+00
ElecMinimize: 	Predicted alpha/alphaT>3.000000, increasing alphaT to 3.000000e+00.
	FillingsUpdate:  mu: -0.094541792  nElectrons: 9.000000
	SubspaceRotationAdjust: set factor to 1
ElecMinimize: Iter:   1  F: -24.453261448134061  |grad|_K:  7.729e-06  alpha:  3.404e+00  linmin:  3.077e-04  t[s]:     25.17
	FillingsUpdate:  mu: -0.094501039  nElectrons: 9.000000
	SubspaceRotationAdjust: set factor to 1.04
ElecMinimize: Iter:   2  F: -24.453294612586401  |grad|_K:  7.570e-06  alpha:  1.739e-02  linmin: -2.354e-03  t[s]:     30.18
ElecMinimize: 	Predicted alpha/alphaT>3.000000, increasing alphaT to 5.217428e-02.
ElecMinimize: 	Predicted alpha/alphaT>3.000000, increasing alphaT to 1.565228e-01.
ElecMinimize: 	Predicted alpha/alphaT>3.000000, increasing alphaT to 4.695685e-01.
	FillingsUpdate:  mu: -0.091811290  nElectrons: 9.000000
	SubspaceRotationAdjust: set factor to 1.09
ElecMinimize: Iter:   3  F: -24.454368083186093  |grad|_K:  5.128e-06  alpha:  6.003e-01  linmin:  2.741e-04  t[s]:     38.29
	FillingsUpdate:  mu: -0.089950157  nElectrons: 9.000000
	SubspaceRotationAdjust: set factor to 1.03
ElecMinimize: Iter:   4  F: -24.454564700228456  |grad|_K:  5.043e-06  alpha:  4.700e-01  linmin:  4.489e-05  t[s]:     43.33
	FillingsUpdate:  mu: -0.089705080  nElectrons: 9.000000
	SubspaceRotationAdjust: set factor to 1.17
ElecMinimize: Iter:   5  F: -24.454603140440547  |grad|_K:  4.800e-06  alpha:  5.319e-02  linmin: -1.150e-03  t[s]:     48.34
ElecMinimize: 	Predicted alpha/alphaT>3.000000, increasing alphaT to 1.595669e-01.
	FillingsUpdate:  mu: -0.088211977  nElectrons: 9.000000
	SubspaceRotationAdjust: set factor to 1.1
ElecMinimize: Iter:   6  F: -24.454787297323012  |grad|_K:  3.963e-06  alpha:  2.996e-01  linmin:  8.735e-04  t[s]:     54.91
	FillingsUpdate:  mu: -0.087633997  nElectrons: 9.000000
	SubspaceRotationAdjust: set factor to 1.11
ElecMinimize: Iter:   7  F: -24.454812664603605  |grad|_K:  4.190e-06  alpha:  1.471e-01  linmin:  1.113e-05  t[s]:     59.92
	FillingsUpdate:  mu: -0.086579878  nElectrons: 9.000000
	SubspaceRotationAdjust: set factor to 1.55
ElecMinimize: Iter:   8  F: -24.454878042385527  |grad|_K:  4.406e-06  alpha:  2.571e-01  linmin:  4.853e-04  t[s]:     64.96
	FillingsUpdate:  mu: -0.085938471  nElectrons: 9.000000
	SubspaceRotationAdjust: set factor to 1.9
ElecMinimize: Iter:   9  F: -24.454927576457344  |grad|_K:  4.144e-06  alpha:  1.884e-01  linmin: -3.787e-05  t[s]:     69.95
	FillingsUpdate:  mu: -0.085683784  nElectrons: 9.000000
	SubspaceRotationAdjust: set factor to 2.12
ElecMinimize: Iter:  10  F: -24.454974365152150  |grad|_K:  3.289e-06  alpha:  1.691e-01  linmin: -2.333e-04  t[s]:     74.99
	FillingsUpdate:  mu: -0.085475787  nElectrons: 9.000000
	SubspaceRotationAdjust: set factor to 2.46
ElecMinimize: Iter:  11  F: -24.455015928068320  |grad|_K:  2.708e-06  alpha:  2.191e-01  linmin: -3.234e-04  t[s]:     79.99
	FillingsUpdate:  mu: -0.084972164  nElectrons: 9.000000
	SubspaceRotationAdjust: set factor to 3.16
ElecMinimize: Iter:  12  F: -24.455054093831993  |grad|_K:  2.223e-06  alpha:  2.896e-01  linmin: -6.147e-05  t[s]:     85.00
	FillingsUpdate:  mu: -0.084389135  nElectrons: 9.000000
	SubspaceRotationAdjust: set factor to 3.56
ElecMinimize: Iter:  13  F: -24.455075918621414  |grad|_K:  1.806e-06  alpha:  2.668e-01  linmin:  8.530e-05  t[s]:     90.04
	FillingsUpdate:  mu: -0.083938526  nElectrons: 9.000000
	SubspaceRotationAdjust: set factor to 3.51
ElecMinimize: Iter:  14  F: -24.455087768231444  |grad|_K:  1.613e-06  alpha:  2.249e-01  linmin:  4.840e-05  t[s]:     95.07
	FillingsUpdate:  mu: -0.083653517  nElectrons: 9.000000
	SubspaceRotationAdjust: set factor to 3.97
ElecMinimize: Iter:  15  F: -24.455096203004036  |grad|_K:  1.518e-06  alpha:  2.050e-01  linmin:  3.965e-05  t[s]:    100.08
	FillingsUpdate:  mu: -0.083612916  nElectrons: 9.000000
	SubspaceRotationAdjust: set factor to 4.7
ElecMinimize: Iter:  16  F: -24.455102647688218  |grad|_K:  1.363e-06  alpha:  1.773e-01  linmin:  7.341e-06  t[s]:    105.06
	FillingsUpdate:  mu: -0.083785970  nElectrons: 9.000000
	SubspaceRotationAdjust: set factor to 5.62
ElecMinimize: Iter:  17  F: -24.455107426117404  |grad|_K:  1.152e-06  alpha:  1.601e-01  linmin: -8.627e-05  t[s]:    110.06
	FillingsUpdate:  mu: -0.083985690  nElectrons: 9.000000
	SubspaceRotationAdjust: set factor to 5.96
ElecMinimize: Iter:  18  F: -24.455111640037249  |grad|_K:  1.081e-06  alpha:  1.891e-01  linmin: -1.038e-04  t[s]:    115.07
	FillingsUpdate:  mu: -0.083991167  nElectrons: 9.000000
	SubspaceRotationAdjust: set factor to 7.4
	SubspaceRotationAdjust: resetting CG because factor has changed by 7.39886
ElecMinimize: 	State modified externally: resetting search direction.
ElecMinimize: Iter:  19  F: -24.455116377532274  |grad|_K:  1.003e-06  alpha:  2.337e-01
	FillingsUpdate:  mu: -0.083694949  nElectrons: 9.000000
	SubspaceRotationAdjust: set factor to 5.58
ElecMinimize: Iter:  20  F: -24.455120238672684  |grad|_K:  8.760e-07  alpha:  2.393e-01  linmin:  2.501e-04  t[s]:    128.18
	FillingsUpdate:  mu: -0.083752648  nElectrons: 9.000000
	SubspaceRotationAdjust: set factor to 3.83
ElecMinimize: Iter:  21  F: -24.455124381974304  |grad|_K:  7.167e-07  alpha:  4.258e-01  linmin:  4.664e-05  t[s]:    133.14
	FillingsUpdate:  mu: -0.083994391  nElectrons: 9.000000
	SubspaceRotationAdjust: set factor to 2.69
ElecMinimize: Iter:  22  F: -24.455126031733261  |grad|_K:  4.524e-07  alpha:  2.350e-01  linmin:  5.640e-05  t[s]:    138.12
ElecMinimize: 	Predicted alpha/alphaT>3.000000, increasing alphaT to 7.050689e-01.
	FillingsUpdate:  mu: -0.084249533  nElectrons: 9.000000
	SubspaceRotationAdjust: set factor to 1.91
ElecMinimize: Iter:  23  F: -24.455129081987597  |grad|_K:  4.650e-07  alpha:  9.491e-01  linmin: -1.219e-04  t[s]:    144.73
	FillingsUpdate:  mu: -0.084198207  nElectrons: 9.000000
	SubspaceRotationAdjust: set factor to 1.65
ElecMinimize: Iter:  24  F: -24.455131386613903  |grad|_K:  3.093e-07  alpha:  5.610e-01  linmin: -8.689e-05  t[s]:    149.77
	FillingsUpdate:  mu: -0.084199120  nElectrons: 9.000000
	SubspaceRotationAdjust: set factor to 1.21
ElecMinimize: Iter:  25  F: -24.455132502282762  |grad|_K:  2.821e-07  alpha:  6.866e-01  linmin:  1.588e-04  t[s]:    154.78
	FillingsUpdate:  mu: -0.084341963  nElectrons: 9.000000
	SubspaceRotationAdjust: set factor to 2.01
ElecMinimize: Iter:  26  F: -24.455133294712390  |grad|_K:  2.296e-07  alpha:  6.536e-01  linmin: -1.853e-05  t[s]:    159.80
	FillingsUpdate:  mu: -0.084487617  nElectrons: 9.000000
	SubspaceRotationAdjust: set factor to 1.82
ElecMinimize: Iter:  27  F: -24.455133831180294  |grad|_K:  1.428e-07  alpha:  6.272e-01  linmin: -6.138e-05  t[s]:    164.83
	FillingsUpdate:  mu: -0.084522352  nElectrons: 9.000000
	SubspaceRotationAdjust: set factor to 2.18
ElecMinimize: Iter:  28  F: -24.455134032478295  |grad|_K:  8.877e-08  alpha:  5.947e-01  linmin: -4.690e-06  t[s]:    169.86
	FillingsUpdate:  mu: -0.084516650  nElectrons: 9.000000
	SubspaceRotationAdjust: set factor to 2.15
ElecMinimize: Iter:  29  F: -24.455134119565084  |grad|_K:  6.603e-08  alpha:  6.823e-01  linmin:  2.099e-05  t[s]:    174.88
	FillingsUpdate:  mu: -0.084529214  nElectrons: 9.000000
	SubspaceRotationAdjust: set factor to 2.16
ElecMinimize: Iter:  30  F: -24.455134173225144  |grad|_K:  5.707e-08  alpha:  7.696e-01  linmin:  1.300e-05  t[s]:    179.89
	FillingsUpdate:  mu: -0.084562760  nElectrons: 9.000000
	SubspaceRotationAdjust: set factor to 2.39
ElecMinimize: Iter:  31  F: -24.455134209197219  |grad|_K:  4.387e-08  alpha:  6.878e-01  linmin: -4.826e-06  t[s]:    184.88
	FillingsUpdate:  mu: -0.084583918  nElectrons: 9.000000
	SubspaceRotationAdjust: set factor to 2.2
ElecMinimize: Iter:  32  F: -24.455134232207374  |grad|_K:  3.638e-08  alpha:  7.354e-01  linmin: -6.345e-06  t[s]:    189.93
	FillingsUpdate:  mu: -0.084585590  nElectrons: 9.000000
	SubspaceRotationAdjust: set factor to 2.71
ElecMinimize: Iter:  33  F: -24.455134245619281  |grad|_K:  2.372e-08  alpha:  6.217e-01  linmin:  3.178e-06  t[s]:    194.97
	FillingsUpdate:  mu: -0.084588057  nElectrons: 9.000000
	SubspaceRotationAdjust: set factor to 2.34
ElecMinimize: Iter:  34  F: -24.455134251902948  |grad|_K:  2.006e-08  alpha:  6.912e-01  linmin:  5.545e-06  t[s]:    199.95
	FillingsUpdate:  mu: -0.084596584  nElectrons: 9.000000
	SubspaceRotationAdjust: set factor to 2.64
ElecMinimize: Iter:  35  F: -24.455134256282140  |grad|_K:  1.444e-08  alpha:  6.754e-01  linmin: -4.246e-07  t[s]:    204.94
ElecMinimize: Converged (|Delta F|<1.000000e-08 for 2 iters).
Setting wave functions to eigenvectors of Hamiltonian

# Ionic positions in lattice coordinates:
ion Rb   0.000000000000000   0.000000000000000   0.000000000000000 0

# Forces in Lattice coordinates:
force Rb   0.000000000000000  -0.000000000000000   0.000000000000000 0

# Energy components:
   Eewald =      -18.6062124745697588
       EH =        1.0951493851514509
     Eloc =       -9.4513381223341941
      Enl =       -0.7945220469762151
   Epulay =        0.0000000016002993
      Exc =       -3.6790202534997949
       KE =        6.9808093250953700
-------------------------------------
     Etot =      -24.4551341855328417
       TS =        0.0000000707492985
-------------------------------------
        F =      -24.4551342562821397

IonicMinimize: Iter:   0  F: -24.455134256282140  |grad|_K:  0.000e+00  t[s]:    205.45
IonicMinimize: Converged (|grad|_K<1.000000e-04).

#--- Lowdin population analysis ---
# oxidation-state Rb +0.030

End date and time: Sun Jan 16 15:54:32 2022  (Duration: 0-0:03:25.56)
Done!
