3.05
--------------------------------------------------------------------------
The library attempted to open the following supporting CUDA libraries,
but each of them failed.  CUDA-aware support is disabled.
libcuda.so.1: cannot open shared object file: No such file or directory
libcuda.dylib: cannot open shared object file: No such file or directory
/usr/lib64/libcuda.so.1: cannot open shared object file: No such file or directory
/usr/lib64/libcuda.dylib: cannot open shared object file: No such file or directory
If you are not interested in CUDA-aware support, then run with
--mca opal_warn_on_missing_libcuda 0 to suppress this message.  If you are interested
in CUDA-aware support, then try setting LD_LIBRARY_PATH to the location
of libcuda.so.1 to get passed this issue.
--------------------------------------------------------------------------
--------------------------------------------------------------------------
No OpenFabrics connection schemes reported that they were able to be
used on a specific port.  As such, the openib BTL (OpenFabrics
support) will be disabled for this port.

  Local host:           d-5-8-4
  Local device:         mlx5_1
  Local port:           1
  CPCs attempted:       rdmacm, udcm
--------------------------------------------------------------------------

*************** JDFTx 1.6.0 (git hash 42ebbcc2) ***************

Start date and time: Sun Jan 16 15:58:48 2022
Executable jdftx with command-line: -i Rubidium.in
Running on hosts (process indices):  d-5-8-4 (0-18)
Divided in process groups (process indices):  0 (0)  1 (1)  2 (2)  3 (3)  4 (4)  5 (5)  6 (6)  7 (7)  8 (8)  9 (9)  10 (10)  11 (11)  12 (12)  13 (13)  14 (14)  15 (15)  16 (16)  17 (17)  18 (18)
Resource initialization completed at t[s]:      0.00
Run totals: 19 processes, 48 threads, 0 GPUs


Input parsed successfully to the following command list (including defaults):

basis kpoint-dependent
coords-type Lattice
core-overlap-check vector
coulomb-interaction Slab 001
davidson-band-ratio 1.1
dump End None
dump-name $INPUT.$VAR
elec-cutoff 20 100
elec-eigen-algo Davidson
elec-ex-corr gga-PBE
elec-smearing Fermi 1e-05
electronic-minimize  \
	dirUpdateScheme      FletcherReeves \
	linminMethod         DirUpdateRecommended \
	nIterations          10000 \
	history              15 \
	knormThreshold       0 \
	energyDiffThreshold  1e-08 \
	nEnergyDiff          2 \
	alphaTstart          1 \
	alphaTmin            1e-10 \
	updateTestStepSize   yes \
	alphaTreduceFactor   0.1 \
	alphaTincreaseFactor 3 \
	nAlphaAdjustMax      3 \
	wolfeEnergy          0.0001 \
	wolfeGradient        0.9 \
	fdTest               no
exchange-regularization WignerSeitzTruncated
fluid None
fluid-ex-corr (null) lda-PZ
fluid-gummel-loop 10 1.000000e-05
fluid-minimize  \
	dirUpdateScheme      PolakRibiere \
	linminMethod         DirUpdateRecommended \
	nIterations          100 \
	history              15 \
	knormThreshold       0 \
	energyDiffThreshold  0 \
	nEnergyDiff          2 \
	alphaTstart          1 \
	alphaTmin            1e-10 \
	updateTestStepSize   yes \
	alphaTreduceFactor   0.1 \
	alphaTincreaseFactor 3 \
	nAlphaAdjustMax      3 \
	wolfeEnergy          0.0001 \
	wolfeGradient        0.9 \
	fdTest               no
fluid-solvent H2O 55.338 ScalarEOS \
	epsBulk 78.4 \
	pMol 0.92466 \
	epsInf 1.77 \
	Pvap 1.06736e-10 \
	sigmaBulk 4.62e-05 \
	Rvdw 2.61727 \
	Res 1.42 \
	tauNuc 343133 \
	poleEl 15 7 1
forces-output-coords Positions
ion Rb   0.000000000000000   0.000000000000000   0.000000000000000 0
ion-species SG15/$ID_ONCV_PBE.upf
ion-width 0
ionic-minimize  \
	dirUpdateScheme      L-BFGS \
	linminMethod         DirUpdateRecommended \
	nIterations          0 \
	history              15 \
	knormThreshold       0.0001 \
	energyDiffThreshold  1e-06 \
	nEnergyDiff          2 \
	alphaTstart          1 \
	alphaTmin            1e-10 \
	updateTestStepSize   yes \
	alphaTreduceFactor   0.1 \
	alphaTincreaseFactor 3 \
	nAlphaAdjustMax      3 \
	wolfeEnergy          0.0001 \
	wolfeGradient        0.9 \
	fdTest               no
kpoint   0.000000000000   0.000000000000   0.000000000000  1.00000000000000
kpoint-folding 48 48 1 
latt-move-scale 1 1 1
latt-scale 3.05 3.05 1 
lattice  \
	   4.727486978767153   -2.363743489383575    0.000000000000000  \
	  -0.000000000000000    4.094123819672498    0.000000000000000  \
	   0.000000000000000    0.000000000000000   40.000000000000000 
lattice-minimize  \
	dirUpdateScheme      L-BFGS \
	linminMethod         DirUpdateRecommended \
	nIterations          0 \
	history              15 \
	knormThreshold       0 \
	energyDiffThreshold  1e-06 \
	nEnergyDiff          2 \
	alphaTstart          1 \
	alphaTmin            1e-10 \
	updateTestStepSize   yes \
	alphaTreduceFactor   0.1 \
	alphaTincreaseFactor 3 \
	nAlphaAdjustMax      3 \
	wolfeEnergy          0.0001 \
	wolfeGradient        0.9 \
	fdTest               no
lcao-params -1 1e-06 1e-05
pcm-variant GLSSA13
spintype no-spin
subspace-rotation-factor 1 yes
symmetries automatic
symmetry-threshold 0.0001



---------- Setting up symmetries ----------

Found 24 point-group symmetries of the bravais lattice
Found 24 space-group symmetries with basis
Applied RMS atom displacement 0 bohrs to make symmetries exact.

---------- Initializing the Grid ----------
R = 
[      14.4188     -7.20942            0  ]
[            0      12.4871            0  ]
[            0            0           40  ]
unit cell volume = 7201.96
G =
[   0.435762   0.251588         -0  ]
[          0   0.503175         -0  ]
[         -0         -0    0.15708  ]
Minimum fftbox size, Smin = [  68  68  184  ]
Chosen fftbox size, S = [  70  70  192  ]

---------- Initializing tighter grid for wavefunction operations ----------
R = 
[      14.4188     -7.20942            0  ]
[            0      12.4871            0  ]
[            0            0           40  ]
unit cell volume = 7201.96
G =
[   0.435762   0.251588         -0  ]
[          0   0.503175         -0  ]
[         -0         -0    0.15708  ]
Minimum fftbox size, Smin = [  60  60  164  ]
Chosen fftbox size, S = [  60  60  168  ]

---------- Exchange Correlation functional ----------
Initalized PBE GGA exchange.
Initalized PBE GGA correlation.

---------- Setting up pseudopotentials ----------
Width of ionic core gaussian charges (only for fluid interactions / plotting) set to 0

Reading pseudopotential file '/home/gridsan/aligho/DFT/build-Nov24/pseudopotentials/SG15/Rb_ONCV_PBE.upf':
  'Rb' pseudopotential, 'PBE' functional
  Generated using ONCVPSP code by D. R. Hamann
  Author: Martin Schlipf and Francois Gygi  Date: 150915.
  9 valence electrons, 3 orbitals, 6 projectors, 2308 radial grid points, with lMax = 2
  Transforming local potential to a uniform radial grid of dG=0.02 with 1707 points.
  Transforming nonlocal projectors to a uniform radial grid of dG=0.02 with 432 points.
    4S    l: 0   occupation:  2.0   eigenvalue: -1.172069
    4P    l: 1   occupation:  6.0   eigenvalue: -0.586674
    5S    l: 0   occupation:  1.0   eigenvalue: -0.082006
  Transforming atomic orbitals to a uniform radial grid of dG=0.02 with 432 points.
  Core radius for overlap checks: 2.60 bohrs.
  Reading pulay file /home/gridsan/aligho/DFT/build-Nov24/pseudopotentials/SG15/Rb_ONCV_PBE.pulay ... using dE_dnG = -1.360715e-05 computed for Ecut = 20.

Initialized 1 species with 1 total atoms.

Folded 1 k-points by 48x48x1 to 2304 k-points.

---------- Setting up k-points, bands, fillings ----------
Reduced to 217 k-points under symmetry. 
Computing the number of bands and number of electrons
Calculating initial fillings.
nElectrons:   9.000000   nBands: 6   nStates: 217

----- Setting up reduced wavefunction bases (one per k-point) -----
average nbasis = 30768.439 , ideal nbasis = 30767.342

---------- Setting up coulomb interaction ----------
Initialized slab truncation along lattice direction 001

---------- Setting up 2D ewald sum ----------
Optimum gaussian width for ewald sums = 8.004755 bohr.
Real space sums over 289 unit cells with max indices [  8  8  0  ]
Reciprocal space sums over 81 terms with max indices [  4  4  0  ]

---------- Allocating electronic variables ----------
Initializing wave functions:  linear combination of atomic orbitals
Note: number of bands (6) exceeds available atomic orbitals (5)
Rb pseudo-atom occupations:   s ( 2 1 )  p ( 6 )
[d-5-8-4:60238] 18 more processes have sent help message help-mpi-common-cuda.txt / dlopen failed
[d-5-8-4:60238] Set MCA parameter "orte_base_help_aggregate" to 0 to see all help / error messages
[d-5-8-4:60238] 18 more processes have sent help message help-mpi-btl-openib-cpc-base.txt / no cpcs for port
	FillingsUpdate:  mu: -0.083383695  nElectrons: 9.000000
LCAOMinimize: Iter:   0  F: -24.4363509784348025  |grad|_K:  6.824e-06  alpha:  1.000e+00
	FillingsUpdate:  mu: -0.083380443  nElectrons: 9.000000
LCAOMinimize: Iter:   1  F: -24.4363511579647010  |grad|_K:  5.409e-08  alpha:  9.872e-01  linmin: -1.523e-02  cgtest:  3.530e-01  t[s]:     23.34
LCAOMinimize: Encountered beta<0, resetting CG.
	FillingsUpdate:  mu: -0.083380450  nElectrons: 9.000000
LCAOMinimize: Iter:   2  F: -24.4363511579761195  |grad|_K:  4.056e-10  alpha:  9.933e-01  linmin: -5.418e-02  cgtest:  8.622e-01  t[s]:     31.52
LCAOMinimize: Encountered beta<0, resetting CG.
LCAOMinimize: Converged (|Delta F|<1.000000e-06 for 2 iters).


---- Citations for features of the code used in this run ----

   Software package:
      R. Sundararaman, K. Letchworth-Weaver, K.A. Schwarz, D. Gunceler, Y. Ozhabes and T.A. Arias, 'JDFTx: software for joint density-functional theory', SoftwareX 6, 278 (2017)

   gga-PBE exchange-correlation functional:
      J.P. Perdew, K. Burke and M. Ernzerhof, Phys. Rev. Lett. 77, 3865 (1996)

   Pseudopotentials:
      M Schlipf and F Gygi, Comput. Phys. Commun. 196, 36 (2015)

   Truncated Coulomb potentials:
      R. Sundararaman and T.A. Arias, Phys. Rev. B 87, 165122 (2013)

   Total energy minimization with Auxiliary Hamiltonian:
      C. Freysoldt, S. Boeck, and J. Neugebauer, Phys. Rev. B 79, 241103(R) (2009)

This list may not be complete. Please suggest additional citations or
report any other bugs at https://github.com/shankar1729/jdftx/issues

Initialization completed successfully at t[s]:     32.33


-------- Electronic minimization -----------
	FillingsUpdate:  mu: -0.083380450  nElectrons: 9.000000
ElecMinimize: Iter:   0  F: -24.436351157976119  |grad|_K:  1.722e-06  alpha:  1.000e+00
ElecMinimize: 	Predicted alpha/alphaT>3.000000, increasing alphaT to 3.000000e+00.
	FillingsUpdate:  mu: -0.082801902  nElectrons: 9.000000
	SubspaceRotationAdjust: set factor to 1
ElecMinimize: Iter:   1  F: -24.437085826547538  |grad|_K:  3.118e-06  alpha:  6.188e+00  linmin:  1.357e-04  t[s]:     52.98
	FillingsUpdate:  mu: -0.082813325  nElectrons: 9.000000
	SubspaceRotationAdjust: set factor to 1.03
ElecMinimize: Iter:   2  F: -24.437099393242789  |grad|_K:  3.061e-06  alpha:  1.771e-02  linmin: -1.056e-03  t[s]:     63.70
ElecMinimize: 	Predicted alpha/alphaT>3.000000, increasing alphaT to 5.312914e-02.
ElecMinimize: 	Predicted alpha/alphaT>3.000000, increasing alphaT to 1.593874e-01.
ElecMinimize: 	Predicted alpha/alphaT>3.000000, increasing alphaT to 4.781622e-01.
	FillingsUpdate:  mu: -0.083678719  nElectrons: 9.000000
	SubspaceRotationAdjust: set factor to 1.07
ElecMinimize: Iter:   3  F: -24.437542913442275  |grad|_K:  2.091e-06  alpha:  6.044e-01  linmin:  5.698e-05  t[s]:     81.11
	FillingsUpdate:  mu: -0.083978473  nElectrons: 9.000000
	SubspaceRotationAdjust: set factor to 0.91
ElecMinimize: Iter:   4  F: -24.437641275967469  |grad|_K:  2.380e-06  alpha:  6.432e-01  linmin:  3.275e-04  t[s]:     91.84
	FillingsUpdate:  mu: -0.083978580  nElectrons: 9.000000
	SubspaceRotationAdjust: set factor to 1.15
ElecMinimize: Iter:   5  F: -24.437641309811692  |grad|_K:  2.328e-06  alpha:  2.079e-04  linmin: -2.095e-04  t[s]:    102.60
ElecMinimize: 	Predicted alpha/alphaT>3.000000, increasing alphaT to 6.236216e-04.
ElecMinimize: 	Predicted alpha/alphaT>3.000000, increasing alphaT to 1.870865e-03.
ElecMinimize: 	Predicted alpha/alphaT>3.000000, increasing alphaT to 5.612594e-03.
	FillingsUpdate:  mu: -0.084055789  nElectrons: 9.000000
	SubspaceRotationAdjust: set factor to 0.82
ElecMinimize: Iter:   6  F: -24.437684786834211  |grad|_K:  2.828e-06  alpha:  2.292e-01  linmin:  9.283e-04  t[s]:    119.94
	FillingsUpdate:  mu: -0.084055902  nElectrons: 9.000000
	SubspaceRotationAdjust: set factor to 0.652
ElecMinimize: Iter:   7  F: -24.437684800289308  |grad|_K:  2.524e-06  alpha:  3.539e-04  linmin: -6.909e-05  t[s]:    130.73
ElecMinimize: 	Predicted alpha/alphaT>3.000000, increasing alphaT to 1.061793e-03.
ElecMinimize: 	Predicted alpha/alphaT>3.000000, increasing alphaT to 3.185380e-03.
ElecMinimize: 	Predicted alpha/alphaT>3.000000, increasing alphaT to 9.556140e-03.
	FillingsUpdate:  mu: -0.084042648  nElectrons: 9.000000
	SubspaceRotationAdjust: set factor to 0.473
ElecMinimize: Iter:   8  F: -24.437711411705603  |grad|_K:  2.619e-06  alpha:  1.130e-01  linmin:  7.058e-04  t[s]:    148.14
	FillingsUpdate:  mu: -0.084024676  nElectrons: 9.000000
	SubspaceRotationAdjust: set factor to 0.377
ElecMinimize: Iter:   9  F: -24.437712619721694  |grad|_K:  2.460e-06  alpha:  2.930e-02  linmin: -1.568e-04  t[s]:    158.88
ElecMinimize: 	Predicted alpha/alphaT>3.000000, increasing alphaT to 8.789406e-02.
	FillingsUpdate:  mu: -0.083943893  nElectrons: 9.000000
	SubspaceRotationAdjust: set factor to 0.359
ElecMinimize: Iter:  10  F: -24.437728766950702  |grad|_K:  2.538e-06  alpha:  1.251e-01  linmin:  7.358e-04  t[s]:    172.90
	FillingsUpdate:  mu: -0.083907444  nElectrons: 9.000000
	SubspaceRotationAdjust: set factor to 0.418
ElecMinimize: Iter:  11  F: -24.437739185990992  |grad|_K:  2.480e-06  alpha:  5.968e-02  linmin: -4.921e-05  t[s]:    183.57
	FillingsUpdate:  mu: -0.083857779  nElectrons: 9.000000
	SubspaceRotationAdjust: set factor to 0.468
ElecMinimize: Iter:  12  F: -24.437766675495165  |grad|_K:  2.643e-06  alpha:  1.078e-01  linmin: -3.221e-05  t[s]:    194.30
ElecMinimize: 	Predicted alpha/alphaT>3.000000, increasing alphaT to 3.233054e-01.
	FillingsUpdate:  mu: -0.083851341  nElectrons: 9.000000
	SubspaceRotationAdjust: set factor to 0.484
ElecMinimize: Iter:  13  F: -24.437776483961002  |grad|_K:  2.711e-06  alpha:  1.891e-02  linmin: -2.191e-03  t[s]:    208.36
ElecMinimize: 	Wrong curvature in test step, increasing alphaT to 5.674044e-02.
	FillingsUpdate:  mu: -0.083853284  nElectrons: 9.000000
	SubspaceRotationAdjust: set factor to 0.315
ElecMinimize: Iter:  14  F: -24.437807337244152  |grad|_K:  3.848e-06  alpha: -1.901e-02  linmin: -3.709e-03  t[s]:    218.23
	FillingsUpdate:  mu: -0.083862012  nElectrons: 9.000000
	SubspaceRotationAdjust: set factor to 0.438
ElecMinimize: Iter:  15  F: -24.437887509451922  |grad|_K:  1.752e-06  alpha:  4.280e-02  linmin: -1.912e-03  t[s]:    228.94
ElecMinimize: 	Predicted alpha/alphaT>3.000000, increasing alphaT to 1.284148e-01.
	FillingsUpdate:  mu: -0.083896592  nElectrons: 9.000000
	SubspaceRotationAdjust: set factor to 0.482
ElecMinimize: Iter:  16  F: -24.437931849865553  |grad|_K:  1.404e-06  alpha:  2.158e-01  linmin: -7.774e-04  t[s]:    242.93
	FillingsUpdate:  mu: -0.083929021  nElectrons: 9.000000
	SubspaceRotationAdjust: set factor to 0.518
ElecMinimize: Iter:  17  F: -24.437959247971289  |grad|_K:  1.179e-06  alpha:  2.764e-01  linmin: -3.236e-04  t[s]:    253.66
	FillingsUpdate:  mu: -0.083936973  nElectrons: 9.000000
	SubspaceRotationAdjust: set factor to 0.572
ElecMinimize: Iter:  18  F: -24.437979839007468  |grad|_K:  9.713e-07  alpha:  3.300e-01  linmin: -8.080e-05  t[s]:    264.35
	FillingsUpdate:  mu: -0.083927094  nElectrons: 9.000000
	SubspaceRotationAdjust: set factor to 0.647
ElecMinimize: Iter:  19  F: -24.437993703044306  |grad|_K:  8.712e-07  alpha:  3.537e-01  linmin: -1.222e-05  t[s]:    275.10
	FillingsUpdate:  mu: -0.083906563  nElectrons: 9.000000
	SubspaceRotationAdjust: set factor to 0.725
ElecMinimize: Iter:  20  F: -24.438005502722937  |grad|_K:  8.446e-07  alpha:  3.854e-01  linmin:  2.334e-06  t[s]:    285.81
	FillingsUpdate:  mu: -0.083885010  nElectrons: 9.000000
	SubspaceRotationAdjust: set factor to 0.794
ElecMinimize: Iter:  21  F: -24.438015849029480  |grad|_K:  7.639e-07  alpha:  3.619e-01  linmin:  2.523e-05  t[s]:    296.56
	FillingsUpdate:  mu: -0.083886231  nElectrons: 9.000000
	SubspaceRotationAdjust: set factor to 0.844
ElecMinimize: Iter:  22  F: -24.438023111611901  |grad|_K:  6.547e-07  alpha:  3.120e-01  linmin:  2.661e-05  t[s]:    307.23
	FillingsUpdate:  mu: -0.083904383  nElectrons: 9.000000
	SubspaceRotationAdjust: set factor to 0.891
ElecMinimize: Iter:  23  F: -24.438028093212989  |grad|_K:  5.899e-07  alpha:  2.936e-01  linmin:  2.938e-05  t[s]:    317.95
	FillingsUpdate:  mu: -0.083920518  nElectrons: 9.000000
	SubspaceRotationAdjust: set factor to 0.984
ElecMinimize: Iter:  24  F: -24.438031712230387  |grad|_K:  5.559e-07  alpha:  2.644e-01  linmin:  2.585e-05  t[s]:    328.72
	FillingsUpdate:  mu: -0.083927256  nElectrons: 9.000000
	SubspaceRotationAdjust: set factor to 1.18
ElecMinimize: Iter:  25  F: -24.438034359927300  |grad|_K:  5.310e-07  alpha:  2.168e-01  linmin:  1.680e-05  t[s]:    339.43
	FillingsUpdate:  mu: -0.083928212  nElectrons: 9.000000
	SubspaceRotationAdjust: set factor to 1.54
ElecMinimize: Iter:  26  F: -24.438036440077216  |grad|_K:  5.248e-07  alpha:  1.863e-01  linmin:  1.605e-05  t[s]:    350.13
	FillingsUpdate:  mu: -0.083927366  nElectrons: 9.000000
	SubspaceRotationAdjust: set factor to 1.66
ElecMinimize: Iter:  27  F: -24.438038244520257  |grad|_K:  5.395e-07  alpha:  1.660e-01  linmin:  8.452e-06  t[s]:    360.80
	FillingsUpdate:  mu: -0.083927188  nElectrons: 9.000000
	SubspaceRotationAdjust: set factor to 2.17
ElecMinimize: Iter:  28  F: -24.438039899843698  |grad|_K:  5.189e-07  alpha:  1.433e-01  linmin: -3.363e-06  t[s]:    371.53
	FillingsUpdate:  mu: -0.083930221  nElectrons: 9.000000
	SubspaceRotationAdjust: set factor to 2.77
ElecMinimize: Iter:  29  F: -24.438041380510260  |grad|_K:  4.951e-07  alpha:  1.371e-01  linmin: -3.914e-05  t[s]:    382.26
	FillingsUpdate:  mu: -0.083938203  nElectrons: 9.000000
	SubspaceRotationAdjust: set factor to 3.31
ElecMinimize: Iter:  30  F: -24.438042764474293  |grad|_K:  4.598e-07  alpha:  1.380e-01  linmin: -6.391e-05  t[s]:    392.97
	FillingsUpdate:  mu: -0.083953399  nElectrons: 9.000000
	SubspaceRotationAdjust: set factor to 4.03
ElecMinimize: Iter:  31  F: -24.438044263529708  |grad|_K:  4.241e-07  alpha:  1.661e-01  linmin: -5.147e-05  t[s]:    403.72
	FillingsUpdate:  mu: -0.083973165  nElectrons: 9.000000
	SubspaceRotationAdjust: set factor to 5.1
ElecMinimize: Iter:  32  F: -24.438045709703751  |grad|_K:  3.863e-07  alpha:  1.877e-01  linmin: -1.486e-05  t[s]:    414.38
	FillingsUpdate:  mu: -0.083988920  nElectrons: 9.000000
	SubspaceRotationAdjust: set factor to 6.44
ElecMinimize: Iter:  33  F: -24.438046772873445  |grad|_K:  3.566e-07  alpha:  1.745e-01  linmin:  2.225e-05  t[s]:    425.07
	FillingsUpdate:  mu: -0.083997673  nElectrons: 9.000000
	SubspaceRotationAdjust: set factor to 7.2
ElecMinimize: Iter:  34  F: -24.438047508576130  |grad|_K:  3.469e-07  alpha:  1.430e-01  linmin:  1.539e-05  t[s]:    435.87
	FillingsUpdate:  mu: -0.084002249  nElectrons: 9.000000
	SubspaceRotationAdjust: set factor to 7.19
ElecMinimize: Iter:  35  F: -24.438048069662283  |grad|_K:  3.744e-07  alpha:  1.171e-01  linmin:  9.369e-06  t[s]:    446.56
	FillingsUpdate:  mu: -0.084005812  nElectrons: 9.000000
	SubspaceRotationAdjust: set factor to 5.81
ElecMinimize: Iter:  36  F: -24.438048639852465  |grad|_K:  3.915e-07  alpha:  1.037e-01  linmin:  4.966e-06  t[s]:    457.32
	FillingsUpdate:  mu: -0.084009128  nElectrons: 9.000000
	SubspaceRotationAdjust: set factor to 5.76
ElecMinimize: Iter:  37  F: -24.438049191959802  |grad|_K:  3.313e-07  alpha:  9.113e-02  linmin: -3.352e-05  t[s]:    467.99
	FillingsUpdate:  mu: -0.084012308  nElectrons: 9.000000
	SubspaceRotationAdjust: set factor to 7.8
	SubspaceRotationAdjust: resetting CG because factor has changed by 7.79904
ElecMinimize: 	State modified externally: resetting search direction.
ElecMinimize: Iter:  38  F: -24.438049674524702  |grad|_K:  3.021e-07  alpha:  1.071e-01
	FillingsUpdate:  mu: -0.084013914  nElectrons: 9.000000
	SubspaceRotationAdjust: set factor to 5.51
ElecMinimize: Iter:  39  F: -24.438050600116949  |grad|_K:  2.572e-07  alpha:  2.573e-01  linmin:  4.505e-05  t[s]:    495.88
	FillingsUpdate:  mu: -0.084008706  nElectrons: 9.000000
	SubspaceRotationAdjust: set factor to 6.09
ElecMinimize: Iter:  40  F: -24.438051780388406  |grad|_K:  1.128e-07  alpha:  4.587e-01  linmin: -1.888e-05  t[s]:    506.61
	FillingsUpdate:  mu: -0.084019392  nElectrons: 9.000000
	SubspaceRotationAdjust: set factor to 4.11
ElecMinimize: Iter:  41  F: -24.438052343910254  |grad|_K:  1.561e-07  alpha:  1.096e+00  linmin: -5.986e-05  t[s]:    517.30
	FillingsUpdate:  mu: -0.084015684  nElectrons: 9.000000
	SubspaceRotationAdjust: set factor to 2.59
ElecMinimize: Iter:  42  F: -24.438052669076452  |grad|_K:  9.662e-08  alpha:  3.072e-01  linmin: -1.458e-04  t[s]:    527.98
ElecMinimize: 	Predicted alpha/alphaT>3.000000, increasing alphaT to 9.217220e-01.
	FillingsUpdate:  mu: -0.084021885  nElectrons: 9.000000
	SubspaceRotationAdjust: set factor to 2.42
ElecMinimize: Iter:  43  F: -24.438053068686347  |grad|_K:  9.815e-08  alpha:  1.005e+00  linmin:  5.406e-06  t[s]:    542.01
	FillingsUpdate:  mu: -0.084037390  nElectrons: 9.000000
	SubspaceRotationAdjust: set factor to 1.84
ElecMinimize: Iter:  44  F: -24.438053348762921  |grad|_K:  7.795e-08  alpha:  7.288e-01  linmin: -4.561e-06  t[s]:    552.73
	FillingsUpdate:  mu: -0.084047711  nElectrons: 9.000000
	SubspaceRotationAdjust: set factor to 2.28
ElecMinimize: Iter:  45  F: -24.438053553048388  |grad|_K:  6.701e-08  alpha:  8.383e-01  linmin:  3.692e-06  t[s]:    563.49
	FillingsUpdate:  mu: -0.084055242  nElectrons: 9.000000
	SubspaceRotationAdjust: set factor to 1.92
ElecMinimize: Iter:  46  F: -24.438053726555374  |grad|_K:  5.351e-08  alpha:  9.662e-01  linmin:  1.225e-05  t[s]:    574.21
	FillingsUpdate:  mu: -0.084061721  nElectrons: 9.000000
	SubspaceRotationAdjust: set factor to 2.22
ElecMinimize: Iter:  47  F: -24.438053819685535  |grad|_K:  4.188e-08  alpha:  8.159e-01  linmin: -2.183e-08  t[s]:    584.90
	FillingsUpdate:  mu: -0.084066842  nElectrons: 9.000000
	SubspaceRotationAdjust: set factor to 1.92
ElecMinimize: Iter:  48  F: -24.438053882934632  |grad|_K:  3.155e-08  alpha:  9.000e-01  linmin: -2.933e-06  t[s]:    595.64
	FillingsUpdate:  mu: -0.084069826  nElectrons: 9.000000
	SubspaceRotationAdjust: set factor to 2.02
ElecMinimize: Iter:  49  F: -24.438053921404311  |grad|_K:  2.857e-08  alpha:  9.641e-01  linmin:  8.047e-07  t[s]:    606.44
	FillingsUpdate:  mu: -0.084073373  nElectrons: 9.000000
	SubspaceRotationAdjust: set factor to 1.9
ElecMinimize: Iter:  50  F: -24.438053952243123  |grad|_K:  2.019e-08  alpha:  9.435e-01  linmin:  2.138e-06  t[s]:    617.16
	FillingsUpdate:  mu: -0.084074741  nElectrons: 9.000000
	SubspaceRotationAdjust: set factor to 1.89
ElecMinimize: Iter:  51  F: -24.438053965133530  |grad|_K:  1.461e-08  alpha:  7.902e-01  linmin: -3.899e-07  t[s]:    627.87
	FillingsUpdate:  mu: -0.084074592  nElectrons: 9.000000
	SubspaceRotationAdjust: set factor to 1.9
ElecMinimize: Iter:  52  F: -24.438053973181262  |grad|_K:  1.132e-08  alpha:  9.405e-01  linmin: -7.067e-07  t[s]:    638.56
	FillingsUpdate:  mu: -0.084074314  nElectrons: 9.000000
	SubspaceRotationAdjust: set factor to 1.84
ElecMinimize: Iter:  53  F: -24.438053977630037  |grad|_K:  8.609e-09  alpha:  8.666e-01  linmin:  9.077e-07  t[s]:    649.28
ElecMinimize: Converged (|Delta F|<1.000000e-08 for 2 iters).
Setting wave functions to eigenvectors of Hamiltonian

# Ionic positions in lattice coordinates:
ion Rb   0.000000000000000   0.000000000000000   0.000000000000000 0

# Forces in Lattice coordinates:
force Rb   0.000000000000000   0.000000000000000   0.000000000000000 0

# Energy components:
   Eewald =      -11.8347712133328926
       EH =        7.6796382384841255
     Eloc =      -22.7866928506713293
      Enl =       -0.7977150243094218
   Epulay =        0.0000000020727267
      Exc =       -3.6460307763239852
       KE =        6.9475177172000375
-------------------------------------
     Etot =      -24.4380539068807394
       TS =        0.0000000707492989
-------------------------------------
        F =      -24.4380539776300374

IonicMinimize: Iter:   0  F: -24.438053977630037  |grad|_K:  0.000e+00  t[s]:    650.39
IonicMinimize: Converged (|grad|_K<1.000000e-04).

#--- Lowdin population analysis ---
# oxidation-state Rb +0.028

End date and time: Sun Jan 16 16:09:38 2022  (Duration: 0-0:10:50.64)
Done!
