2.48
--------------------------------------------------------------------------
The library attempted to open the following supporting CUDA libraries,
but each of them failed.  CUDA-aware support is disabled.
libcuda.so.1: cannot open shared object file: No such file or directory
libcuda.dylib: cannot open shared object file: No such file or directory
/usr/lib64/libcuda.so.1: cannot open shared object file: No such file or directory
/usr/lib64/libcuda.dylib: cannot open shared object file: No such file or directory
If you are not interested in CUDA-aware support, then run with
--mca opal_warn_on_missing_libcuda 0 to suppress this message.  If you are interested
in CUDA-aware support, then try setting LD_LIBRARY_PATH to the location
of libcuda.so.1 to get passed this issue.
--------------------------------------------------------------------------
--------------------------------------------------------------------------
No OpenFabrics connection schemes reported that they were able to be
used on a specific port.  As such, the openib BTL (OpenFabrics
support) will be disabled for this port.

  Local host:           d-16-12-2
  Local device:         mlx5_1
  Local port:           1
  CPCs attempted:       rdmacm, udcm
--------------------------------------------------------------------------

*************** JDFTx 1.6.0 (git hash 42ebbcc2) ***************

Start date and time: Sun Jan 16 15:53:55 2022
Executable jdftx with command-line: -i Rubidium.in
Running on hosts (process indices):  d-16-12-2 (0-18)
Divided in process groups (process indices):  0 (0)  1 (1)  2 (2)  3 (3)  4 (4)  5 (5)  6 (6)  7 (7)  8 (8)  9 (9)  10 (10)  11 (11)  12 (12)  13 (13)  14 (14)  15 (15)  16 (16)  17 (17)  18 (18)
Resource initialization completed at t[s]:      0.00
Run totals: 19 processes, 48 threads, 0 GPUs


Input parsed successfully to the following command list (including defaults):

basis kpoint-dependent
coords-type Lattice
core-overlap-check vector
coulomb-interaction Slab 001
davidson-band-ratio 1.1
dump End None
dump-name $INPUT.$VAR
elec-cutoff 20 100
elec-eigen-algo Davidson
elec-ex-corr gga-PBE
elec-smearing Fermi 1e-05
electronic-minimize  \
	dirUpdateScheme      FletcherReeves \
	linminMethod         DirUpdateRecommended \
	nIterations          10000 \
	history              15 \
	knormThreshold       0 \
	energyDiffThreshold  1e-08 \
	nEnergyDiff          2 \
	alphaTstart          1 \
	alphaTmin            1e-10 \
	updateTestStepSize   yes \
	alphaTreduceFactor   0.1 \
	alphaTincreaseFactor 3 \
	nAlphaAdjustMax      3 \
	wolfeEnergy          0.0001 \
	wolfeGradient        0.9 \
	fdTest               no
exchange-regularization WignerSeitzTruncated
fluid None
fluid-ex-corr (null) lda-PZ
fluid-gummel-loop 10 1.000000e-05
fluid-minimize  \
	dirUpdateScheme      PolakRibiere \
	linminMethod         DirUpdateRecommended \
	nIterations          100 \
	history              15 \
	knormThreshold       0 \
	energyDiffThreshold  0 \
	nEnergyDiff          2 \
	alphaTstart          1 \
	alphaTmin            1e-10 \
	updateTestStepSize   yes \
	alphaTreduceFactor   0.1 \
	alphaTincreaseFactor 3 \
	nAlphaAdjustMax      3 \
	wolfeEnergy          0.0001 \
	wolfeGradient        0.9 \
	fdTest               no
fluid-solvent H2O 55.338 ScalarEOS \
	epsBulk 78.4 \
	pMol 0.92466 \
	epsInf 1.77 \
	Pvap 1.06736e-10 \
	sigmaBulk 4.62e-05 \
	Rvdw 2.61727 \
	Res 1.42 \
	tauNuc 343133 \
	poleEl 15 7 1
forces-output-coords Positions
ion Rb   0.000000000000000   0.000000000000000   0.000000000000000 0
ion-species SG15/$ID_ONCV_PBE.upf
ion-width 0
ionic-minimize  \
	dirUpdateScheme      L-BFGS \
	linminMethod         DirUpdateRecommended \
	nIterations          0 \
	history              15 \
	knormThreshold       0.0001 \
	energyDiffThreshold  1e-06 \
	nEnergyDiff          2 \
	alphaTstart          1 \
	alphaTmin            1e-10 \
	updateTestStepSize   yes \
	alphaTreduceFactor   0.1 \
	alphaTincreaseFactor 3 \
	nAlphaAdjustMax      3 \
	wolfeEnergy          0.0001 \
	wolfeGradient        0.9 \
	fdTest               no
kpoint   0.000000000000   0.000000000000   0.000000000000  1.00000000000000
kpoint-folding 48 48 1 
latt-move-scale 1 1 1
latt-scale 2.48 2.48 1 
lattice  \
	   4.727486978767153   -2.363743489383575    0.000000000000000  \
	  -0.000000000000000    4.094123819672498    0.000000000000000  \
	   0.000000000000000    0.000000000000000   40.000000000000000 
lattice-minimize  \
	dirUpdateScheme      L-BFGS \
	linminMethod         DirUpdateRecommended \
	nIterations          0 \
	history              15 \
	knormThreshold       0 \
	energyDiffThreshold  1e-06 \
	nEnergyDiff          2 \
	alphaTstart          1 \
	alphaTmin            1e-10 \
	updateTestStepSize   yes \
	alphaTreduceFactor   0.1 \
	alphaTincreaseFactor 3 \
	nAlphaAdjustMax      3 \
	wolfeEnergy          0.0001 \
	wolfeGradient        0.9 \
	fdTest               no
lcao-params -1 1e-06 1e-05
pcm-variant GLSSA13
spintype no-spin
subspace-rotation-factor 1 yes
symmetries automatic
symmetry-threshold 0.0001



---------- Setting up symmetries ----------

Found 24 point-group symmetries of the bravais lattice
Found 24 space-group symmetries with basis
Applied RMS atom displacement 0 bohrs to make symmetries exact.

---------- Initializing the Grid ----------
R = 
[      11.7242     -5.86208            0  ]
[            0      10.1534            0  ]
[            0            0           40  ]
unit cell volume = 4761.62
G =
[   0.535917   0.309412         -0  ]
[          0   0.618824         -0  ]
[         -0         -0    0.15708  ]
Minimum fftbox size, Smin = [  56  56  184  ]
Chosen fftbox size, S = [  56  56  192  ]

---------- Initializing tighter grid for wavefunction operations ----------
R = 
[      11.7242     -5.86208            0  ]
[            0      10.1534            0  ]
[            0            0           40  ]
unit cell volume = 4761.62
G =
[   0.535917   0.309412         -0  ]
[          0   0.618824         -0  ]
[         -0         -0    0.15708  ]
Minimum fftbox size, Smin = [  48  48  164  ]
Chosen fftbox size, S = [  48  48  168  ]

---------- Exchange Correlation functional ----------
Initalized PBE GGA exchange.
Initalized PBE GGA correlation.

---------- Setting up pseudopotentials ----------
Width of ionic core gaussian charges (only for fluid interactions / plotting) set to 0

Reading pseudopotential file '/home/gridsan/aligho/DFT/build-Nov24/pseudopotentials/SG15/Rb_ONCV_PBE.upf':
  'Rb' pseudopotential, 'PBE' functional
  Generated using ONCVPSP code by D. R. Hamann
  Author: Martin Schlipf and Francois Gygi  Date: 150915.
  9 valence electrons, 3 orbitals, 6 projectors, 2308 radial grid points, with lMax = 2
  Transforming local potential to a uniform radial grid of dG=0.02 with 1685 points.
  Transforming nonlocal projectors to a uniform radial grid of dG=0.02 with 432 points.
    4S    l: 0   occupation:  2.0   eigenvalue: -1.172069
    4P    l: 1   occupation:  6.0   eigenvalue: -0.586674
    5S    l: 0   occupation:  1.0   eigenvalue: -0.082006
  Transforming atomic orbitals to a uniform radial grid of dG=0.02 with 432 points.
  Core radius for overlap checks: 2.60 bohrs.
  Reading pulay file /home/gridsan/aligho/DFT/build-Nov24/pseudopotentials/SG15/Rb_ONCV_PBE.pulay ... using dE_dnG = -1.360715e-05 computed for Ecut = 20.

Initialized 1 species with 1 total atoms.

Folded 1 k-points by 48x48x1 to 2304 k-points.

---------- Setting up k-points, bands, fillings ----------
Reduced to 217 k-points under symmetry. 
Computing the number of bands and number of electrons
Calculating initial fillings.
nElectrons:   9.000000   nBands: 6   nStates: 217

----- Setting up reduced wavefunction bases (one per k-point) -----
average nbasis = 20342.340 , ideal nbasis = 20342.000

---------- Setting up coulomb interaction ----------
Initialized slab truncation along lattice direction 001

---------- Setting up 2D ewald sum ----------
Optimum gaussian width for ewald sums = 6.508785 bohr.
Real space sums over 289 unit cells with max indices [  8  8  0  ]
Reciprocal space sums over 81 terms with max indices [  4  4  0  ]

---------- Allocating electronic variables ----------
Initializing wave functions:  linear combination of atomic orbitals
Note: number of bands (6) exceeds available atomic orbitals (5)
Rb pseudo-atom occupations:   s ( 2 1 )  p ( 6 )
[d-16-12-2:46314] 18 more processes have sent help message help-mpi-common-cuda.txt / dlopen failed
[d-16-12-2:46314] Set MCA parameter "orte_base_help_aggregate" to 0 to see all help / error messages
[d-16-12-2:46314] 18 more processes have sent help message help-mpi-btl-openib-cpc-base.txt / no cpcs for port
	FillingsUpdate:  mu: -0.086562478  nElectrons: 9.000000
LCAOMinimize: Iter:   0  F: -24.4446916068615607  |grad|_K:  6.910e-06  alpha:  1.000e+00
	FillingsUpdate:  mu: -0.086558176  nElectrons: 9.000000
LCAOMinimize: Iter:   1  F: -24.4446917902416310  |grad|_K:  5.538e-08  alpha:  9.832e-01  linmin: -1.814e-02  cgtest:  3.446e-01  t[s]:     15.30
LCAOMinimize: Encountered beta<0, resetting CG.
	FillingsUpdate:  mu: -0.086558180  nElectrons: 9.000000
LCAOMinimize: Iter:   2  F: -24.4446917902535041  |grad|_K:  8.951e-10  alpha:  9.844e-01  linmin: -6.705e-02  cgtest:  9.898e-01  t[s]:     20.73
LCAOMinimize: Encountered beta<0, resetting CG.
LCAOMinimize: Converged (|Delta F|<1.000000e-06 for 2 iters).


---- Citations for features of the code used in this run ----

   Software package:
      R. Sundararaman, K. Letchworth-Weaver, K.A. Schwarz, D. Gunceler, Y. Ozhabes and T.A. Arias, 'JDFTx: software for joint density-functional theory', SoftwareX 6, 278 (2017)

   gga-PBE exchange-correlation functional:
      J.P. Perdew, K. Burke and M. Ernzerhof, Phys. Rev. Lett. 77, 3865 (1996)

   Pseudopotentials:
      M Schlipf and F Gygi, Comput. Phys. Commun. 196, 36 (2015)

   Truncated Coulomb potentials:
      R. Sundararaman and T.A. Arias, Phys. Rev. B 87, 165122 (2013)

   Total energy minimization with Auxiliary Hamiltonian:
      C. Freysoldt, S. Boeck, and J. Neugebauer, Phys. Rev. B 79, 241103(R) (2009)

This list may not be complete. Please suggest additional citations or
report any other bugs at https://github.com/shankar1729/jdftx/issues

Initialization completed successfully at t[s]:     21.27


-------- Electronic minimization -----------
	FillingsUpdate:  mu: -0.086558180  nElectrons: 9.000000
ElecMinimize: Iter:   0  F: -24.444691790253504  |grad|_K:  3.606e-06  alpha:  1.000e+00
ElecMinimize: 	Predicted alpha/alphaT>3.000000, increasing alphaT to 3.000000e+00.
	FillingsUpdate:  mu: -0.086171788  nElectrons: 9.000000
	SubspaceRotationAdjust: set factor to 1
ElecMinimize: Iter:   1  F: -24.446810928372610  |grad|_K:  4.853e-06  alpha:  6.129e+00  linmin:  3.822e-04  t[s]:     35.18
	FillingsUpdate:  mu: -0.086188525  nElectrons: 9.000000
	SubspaceRotationAdjust: set factor to 1.06
ElecMinimize: Iter:   2  F: -24.446842701086698  |grad|_K:  4.678e-06  alpha:  2.621e-02  linmin: -1.817e-03  t[s]:     42.33
ElecMinimize: 	Predicted alpha/alphaT>3.000000, increasing alphaT to 7.861516e-02.
ElecMinimize: 	Predicted alpha/alphaT>3.000000, increasing alphaT to 2.358455e-01.
	FillingsUpdate:  mu: -0.086748136  nElectrons: 9.000000
	SubspaceRotationAdjust: set factor to 1.09
ElecMinimize: Iter:   3  F: -24.447548380190227  |grad|_K:  3.170e-06  alpha:  6.516e-01  linmin:  3.823e-04  t[s]:     54.08
	FillingsUpdate:  mu: -0.086625244  nElectrons: 9.000000
	SubspaceRotationAdjust: set factor to 1.07
ElecMinimize: Iter:   4  F: -24.447640335528956  |grad|_K:  3.125e-06  alpha:  3.617e-01  linmin: -1.235e-04  t[s]:     61.24
	FillingsUpdate:  mu: -0.086390390  nElectrons: 9.000000
	SubspaceRotationAdjust: set factor to 1.22
ElecMinimize: Iter:   5  F: -24.447737111451030  |grad|_K:  2.859e-06  alpha:  2.997e-01  linmin:  1.125e-04  t[s]:     68.39
	FillingsUpdate:  mu: -0.086265779  nElectrons: 9.000000
	SubspaceRotationAdjust: set factor to 1.19
ElecMinimize: Iter:   6  F: -24.447767233555727  |grad|_K:  2.975e-06  alpha:  1.274e-01  linmin: -1.960e-04  t[s]:     75.54
	FillingsUpdate:  mu: -0.086037709  nElectrons: 9.000000
	SubspaceRotationAdjust: set factor to 0.968
ElecMinimize: Iter:   7  F: -24.447813657190874  |grad|_K:  3.139e-06  alpha:  1.766e-01  linmin:  1.630e-04  t[s]:     82.79
	FillingsUpdate:  mu: -0.085847935  nElectrons: 9.000000
	SubspaceRotationAdjust: set factor to 0.972
ElecMinimize: Iter:   8  F: -24.447843669750537  |grad|_K:  3.154e-06  alpha:  1.280e-01  linmin:  3.596e-06  t[s]:     89.97
	FillingsUpdate:  mu: -0.085672499  nElectrons: 9.000000
	SubspaceRotationAdjust: set factor to 1.38
ElecMinimize: Iter:   9  F: -24.447884474120318  |grad|_K:  3.106e-06  alpha:  1.537e-01  linmin: -7.069e-05  t[s]:     97.12
	FillingsUpdate:  mu: -0.085669054  nElectrons: 9.000000
	SubspaceRotationAdjust: set factor to 1.71
ElecMinimize: Iter:  10  F: -24.447888221865256  |grad|_K:  3.269e-06  alpha:  7.290e-03  linmin: -4.076e-03  t[s]:    104.28
ElecMinimize: 	Predicted alpha/alphaT>3.000000, increasing alphaT to 2.187050e-02.
ElecMinimize: 	Predicted alpha/alphaT>3.000000, increasing alphaT to 6.561151e-02.
	FillingsUpdate:  mu: -0.085706600  nElectrons: 9.000000
	SubspaceRotationAdjust: set factor to 1.99
ElecMinimize: Iter:  11  F: -24.447962981641435  |grad|_K:  2.238e-06  alpha:  1.216e-01  linmin: -1.431e-03  t[s]:    116.09
	FillingsUpdate:  mu: -0.085791906  nElectrons: 9.000000
	SubspaceRotationAdjust: set factor to 2.17
ElecMinimize: Iter:  12  F: -24.448003549301792  |grad|_K:  1.845e-06  alpha:  2.023e-01  linmin: -4.037e-04  t[s]:    123.25
	FillingsUpdate:  mu: -0.085776089  nElectrons: 9.000000
	SubspaceRotationAdjust: set factor to 2.74
ElecMinimize: Iter:  13  F: -24.448042224251541  |grad|_K:  1.612e-06  alpha:  3.314e-01  linmin: -8.296e-05  t[s]:    130.44
	FillingsUpdate:  mu: -0.085607900  nElectrons: 9.000000
	SubspaceRotationAdjust: set factor to 3.38
ElecMinimize: Iter:  14  F: -24.448065513668421  |grad|_K:  1.470e-06  alpha:  3.199e-01  linmin:  7.213e-05  t[s]:    137.57
	FillingsUpdate:  mu: -0.085407371  nElectrons: 9.000000
	SubspaceRotationAdjust: set factor to 3.29
ElecMinimize: Iter:  15  F: -24.448080069742463  |grad|_K:  1.347e-06  alpha:  2.461e-01  linmin:  2.617e-05  t[s]:    144.74
	FillingsUpdate:  mu: -0.085265868  nElectrons: 9.000000
	SubspaceRotationAdjust: set factor to 3.62
ElecMinimize: Iter:  16  F: -24.448089060385769  |grad|_K:  1.358e-06  alpha:  1.774e-01  linmin:  4.879e-06  t[s]:    151.99
	FillingsUpdate:  mu: -0.085179332  nElectrons: 9.000000
	SubspaceRotationAdjust: set factor to 3.12
ElecMinimize: Iter:  17  F: -24.448096070674847  |grad|_K:  1.446e-06  alpha:  1.396e-01  linmin:  1.794e-05  t[s]:    159.17
	FillingsUpdate:  mu: -0.085161921  nElectrons: 9.000000
	SubspaceRotationAdjust: set factor to 2.73
ElecMinimize: Iter:  18  F: -24.448102120506636  |grad|_K:  1.323e-06  alpha:  1.113e-01  linmin:  6.727e-06  t[s]:    166.34
	FillingsUpdate:  mu: -0.085206962  nElectrons: 9.000000
	SubspaceRotationAdjust: set factor to 3.93
ElecMinimize: Iter:  19  F: -24.448107129243322  |grad|_K:  1.091e-06  alpha:  1.088e-01  linmin: -1.261e-04  t[s]:    173.52
	FillingsUpdate:  mu: -0.085272195  nElectrons: 9.000000
	SubspaceRotationAdjust: set factor to 4.61
ElecMinimize: Iter:  20  F: -24.448111326106400  |grad|_K:  9.536e-07  alpha:  1.273e-01  linmin: -1.010e-04  t[s]:    180.67
	FillingsUpdate:  mu: -0.085324467  nElectrons: 9.000000
	SubspaceRotationAdjust: set factor to 5.03
ElecMinimize: Iter:  21  F: -24.448115807634867  |grad|_K:  8.552e-07  alpha:  1.662e-01  linmin: -7.385e-05  t[s]:    187.86
	FillingsUpdate:  mu: -0.085311376  nElectrons: 9.000000
	SubspaceRotationAdjust: set factor to 6.2
ElecMinimize: Iter:  22  F: -24.448120830198032  |grad|_K:  7.777e-07  alpha:  2.306e-01  linmin: -2.778e-05  t[s]:    195.00
	FillingsUpdate:  mu: -0.085245212  nElectrons: 9.000000
	SubspaceRotationAdjust: set factor to 7.35
ElecMinimize: Iter:  23  F: -24.448124196454973  |grad|_K:  6.716e-07  alpha:  2.022e-01  linmin:  2.310e-05  t[s]:    202.19
	FillingsUpdate:  mu: -0.085208392  nElectrons: 9.000000
	SubspaceRotationAdjust: set factor to 7.4
	SubspaceRotationAdjust: resetting CG because factor has changed by 7.39766
ElecMinimize: 	State modified externally: resetting search direction.
ElecMinimize: Iter:  24  F: -24.448125968490043  |grad|_K:  6.656e-07  alpha:  1.400e-01
	FillingsUpdate:  mu: -0.085308221  nElectrons: 9.000000
	SubspaceRotationAdjust: set factor to 6.67
ElecMinimize: Iter:  25  F: -24.448129685594775  |grad|_K:  5.305e-07  alpha:  2.966e-01  linmin: -2.607e-04  t[s]:    220.70
	FillingsUpdate:  mu: -0.085244529  nElectrons: 9.000000
	SubspaceRotationAdjust: set factor to 3.25
ElecMinimize: Iter:  26  F: -24.448133019300965  |grad|_K:  2.920e-07  alpha:  4.051e-01  linmin:  1.933e-04  t[s]:    227.85
	FillingsUpdate:  mu: -0.085330477  nElectrons: 9.000000
	SubspaceRotationAdjust: set factor to 1.96
ElecMinimize: Iter:  27  F: -24.448134251127296  |grad|_K:  2.603e-07  alpha:  5.734e-01  linmin: -8.019e-05  t[s]:    235.01
	FillingsUpdate:  mu: -0.085357291  nElectrons: 9.000000
	SubspaceRotationAdjust: set factor to 1.99
ElecMinimize: Iter:  28  F: -24.448136366865139  |grad|_K:  2.330e-07  alpha:  1.123e+00  linmin:  1.023e-05  t[s]:    242.15
	FillingsUpdate:  mu: -0.085384398  nElectrons: 9.000000
	SubspaceRotationAdjust: set factor to 1.97
ElecMinimize: Iter:  29  F: -24.448138031997839  |grad|_K:  1.929e-07  alpha:  1.165e+00  linmin:  2.465e-05  t[s]:    249.36
	FillingsUpdate:  mu: -0.085472218  nElectrons: 9.000000
	SubspaceRotationAdjust: set factor to 1.53
ElecMinimize: Iter:  30  F: -24.448138965035323  |grad|_K:  1.426e-07  alpha:  9.567e-01  linmin: -1.246e-05  t[s]:    256.51
	FillingsUpdate:  mu: -0.085511281  nElectrons: 9.000000
	SubspaceRotationAdjust: set factor to 1.94
ElecMinimize: Iter:  31  F: -24.448139537674496  |grad|_K:  9.910e-08  alpha:  1.057e+00  linmin: -7.484e-07  t[s]:    263.70
	FillingsUpdate:  mu: -0.085510005  nElectrons: 9.000000
	SubspaceRotationAdjust: set factor to 1.51
ElecMinimize: Iter:  32  F: -24.448139797804629  |grad|_K:  6.754e-08  alpha:  9.990e-01  linmin:  1.457e-05  t[s]:    270.89
	FillingsUpdate:  mu: -0.085530005  nElectrons: 9.000000
	SubspaceRotationAdjust: set factor to 1.55
ElecMinimize: Iter:  33  F: -24.448139952937531  |grad|_K:  5.403e-08  alpha:  1.293e+00  linmin:  1.639e-06  t[s]:    278.12
	FillingsUpdate:  mu: -0.085547773  nElectrons: 9.000000
	SubspaceRotationAdjust: set factor to 1.49
ElecMinimize: Iter:  34  F: -24.448140048753878  |grad|_K:  4.478e-08  alpha:  1.240e+00  linmin: -5.699e-06  t[s]:    285.33
	FillingsUpdate:  mu: -0.085552876  nElectrons: 9.000000
	SubspaceRotationAdjust: set factor to 1.41
ElecMinimize: Iter:  35  F: -24.448140117186497  |grad|_K:  3.302e-08  alpha:  1.287e+00  linmin:  2.152e-06  t[s]:    292.44
	FillingsUpdate:  mu: -0.085558271  nElectrons: 9.000000
	SubspaceRotationAdjust: set factor to 1.37
ElecMinimize: Iter:  36  F: -24.448140149428845  |grad|_K:  2.344e-08  alpha:  1.117e+00  linmin:  3.689e-06  t[s]:    299.58
	FillingsUpdate:  mu: -0.085562758  nElectrons: 9.000000
	SubspaceRotationAdjust: set factor to 1.35
ElecMinimize: Iter:  37  F: -24.448140168609715  |grad|_K:  2.027e-08  alpha:  1.320e+00  linmin: -5.303e-07  t[s]:    306.71
	FillingsUpdate:  mu: -0.085561095  nElectrons: 9.000000
	SubspaceRotationAdjust: set factor to 1.31
ElecMinimize: Iter:  38  F: -24.448140183211795  |grad|_K:  1.601e-08  alpha:  1.341e+00  linmin: -1.669e-07  t[s]:    313.90
	FillingsUpdate:  mu: -0.085557975  nElectrons: 9.000000
	SubspaceRotationAdjust: set factor to 1.33
ElecMinimize: Iter:  39  F: -24.448140191271612  |grad|_K:  1.284e-08  alpha:  1.186e+00  linmin:  3.729e-07  t[s]:    321.08
	FillingsUpdate:  mu: -0.085555726  nElectrons: 9.000000
	SubspaceRotationAdjust: set factor to 1.3
ElecMinimize: Iter:  40  F: -24.448140196912671  |grad|_K:  1.045e-08  alpha:  1.293e+00  linmin:  9.097e-07  t[s]:    328.25
ElecMinimize: Converged (|Delta F|<1.000000e-08 for 2 iters).
Setting wave functions to eigenvectors of Hamiltonian

# Ionic positions in lattice coordinates:
ion Rb   0.000000000000000   0.000000000000000   0.000000000000000 0

# Forces in Lattice coordinates:
force Rb   0.000000000000000  -0.000000000000000   0.000000000000000 0

# Energy components:
   Eewald =      -14.5548597583327908
       EH =        5.0323140223955374
     Eloc =      -17.4226132375675462
      Enl =       -0.7992045617392962
   Epulay =        0.0000000009700188
      Exc =       -3.6561481986088507
       KE =        6.9523716067195513
-------------------------------------
     Etot =      -24.4481401261633735
       TS =        0.0000000707492985
-------------------------------------
        F =      -24.4481401969126715

IonicMinimize: Iter:   0  F: -24.448140196912671  |grad|_K:  0.000e+00  t[s]:    329.05
IonicMinimize: Converged (|grad|_K<1.000000e-04).

#--- Lowdin population analysis ---
# oxidation-state Rb +0.038

End date and time: Sun Jan 16 15:59:24 2022  (Duration: 0-0:05:29.21)
Done!
