0.62
--------------------------------------------------------------------------
The library attempted to open the following supporting CUDA libraries,
but each of them failed.  CUDA-aware support is disabled.
libcuda.so.1: cannot open shared object file: No such file or directory
libcuda.dylib: cannot open shared object file: No such file or directory
/usr/lib64/libcuda.so.1: cannot open shared object file: No such file or directory
/usr/lib64/libcuda.dylib: cannot open shared object file: No such file or directory
If you are not interested in CUDA-aware support, then run with
--mca opal_warn_on_missing_libcuda 0 to suppress this message.  If you are interested
in CUDA-aware support, then try setting LD_LIBRARY_PATH to the location
of libcuda.so.1 to get passed this issue.
--------------------------------------------------------------------------
--------------------------------------------------------------------------
No OpenFabrics connection schemes reported that they were able to be
used on a specific port.  As such, the openib BTL (OpenFabrics
support) will be disabled for this port.

  Local host:           d-3-11-2
  Local device:         mlx5_1
  Local port:           1
  CPCs attempted:       rdmacm, udcm
--------------------------------------------------------------------------

*************** JDFTx 1.6.0 (git hash 42ebbcc2) ***************

Start date and time: Sun Jan 16 15:46:02 2022
Executable jdftx with command-line: -i Rubidium.in
Running on hosts (process indices):  d-3-11-2 (0-18)
Divided in process groups (process indices):  0 (0)  1 (1)  2 (2)  3 (3)  4 (4)  5 (5)  6 (6)  7 (7)  8 (8)  9 (9)  10 (10)  11 (11)  12 (12)  13 (13)  14 (14)  15 (15)  16 (16)  17 (17)  18 (18)
Resource initialization completed at t[s]:      0.00
Run totals: 19 processes, 48 threads, 0 GPUs


Input parsed successfully to the following command list (including defaults):

basis kpoint-dependent
coords-type Lattice
core-overlap-check vector
coulomb-interaction Slab 001
davidson-band-ratio 1.1
dump End None
dump-name $INPUT.$VAR
elec-cutoff 20 100
elec-eigen-algo Davidson
elec-ex-corr gga-PBE
elec-smearing Fermi 1e-05
electronic-minimize  \
	dirUpdateScheme      FletcherReeves \
	linminMethod         DirUpdateRecommended \
	nIterations          10000 \
	history              15 \
	knormThreshold       0 \
	energyDiffThreshold  1e-08 \
	nEnergyDiff          2 \
	alphaTstart          1 \
	alphaTmin            1e-10 \
	updateTestStepSize   yes \
	alphaTreduceFactor   0.1 \
	alphaTincreaseFactor 3 \
	nAlphaAdjustMax      3 \
	wolfeEnergy          0.0001 \
	wolfeGradient        0.9 \
	fdTest               no
exchange-regularization WignerSeitzTruncated
fluid None
fluid-ex-corr (null) lda-PZ
fluid-gummel-loop 10 1.000000e-05
fluid-minimize  \
	dirUpdateScheme      PolakRibiere \
	linminMethod         DirUpdateRecommended \
	nIterations          100 \
	history              15 \
	knormThreshold       0 \
	energyDiffThreshold  0 \
	nEnergyDiff          2 \
	alphaTstart          1 \
	alphaTmin            1e-10 \
	updateTestStepSize   yes \
	alphaTreduceFactor   0.1 \
	alphaTincreaseFactor 3 \
	nAlphaAdjustMax      3 \
	wolfeEnergy          0.0001 \
	wolfeGradient        0.9 \
	fdTest               no
fluid-solvent H2O 55.338 ScalarEOS \
	epsBulk 78.4 \
	pMol 0.92466 \
	epsInf 1.77 \
	Pvap 1.06736e-10 \
	sigmaBulk 4.62e-05 \
	Rvdw 2.61727 \
	Res 1.42 \
	tauNuc 343133 \
	poleEl 15 7 1
forces-output-coords Positions
ion Rb   0.000000000000000   0.000000000000000   0.000000000000000 0
ion-species SG15/$ID_ONCV_PBE.upf
ion-width 0
ionic-minimize  \
	dirUpdateScheme      L-BFGS \
	linminMethod         DirUpdateRecommended \
	nIterations          0 \
	history              15 \
	knormThreshold       0.0001 \
	energyDiffThreshold  1e-06 \
	nEnergyDiff          2 \
	alphaTstart          1 \
	alphaTmin            1e-10 \
	updateTestStepSize   yes \
	alphaTreduceFactor   0.1 \
	alphaTincreaseFactor 3 \
	nAlphaAdjustMax      3 \
	wolfeEnergy          0.0001 \
	wolfeGradient        0.9 \
	fdTest               no
kpoint   0.000000000000   0.000000000000   0.000000000000  1.00000000000000
kpoint-folding 48 48 1 
latt-move-scale 1 1 1
latt-scale 0.62 0.62 1 
lattice  \
	   4.727486978767153   -2.363743489383575    0.000000000000000  \
	  -0.000000000000000    4.094123819672498    0.000000000000000  \
	   0.000000000000000    0.000000000000000   40.000000000000000 
lattice-minimize  \
	dirUpdateScheme      L-BFGS \
	linminMethod         DirUpdateRecommended \
	nIterations          0 \
	history              15 \
	knormThreshold       0 \
	energyDiffThreshold  1e-06 \
	nEnergyDiff          2 \
	alphaTstart          1 \
	alphaTmin            1e-10 \
	updateTestStepSize   yes \
	alphaTreduceFactor   0.1 \
	alphaTincreaseFactor 3 \
	nAlphaAdjustMax      3 \
	wolfeEnergy          0.0001 \
	wolfeGradient        0.9 \
	fdTest               no
lcao-params -1 1e-06 1e-05
pcm-variant GLSSA13
spintype no-spin
subspace-rotation-factor 1 yes
symmetries automatic
symmetry-threshold 0.0001



---------- Setting up symmetries ----------

Found 24 point-group symmetries of the bravais lattice
Found 24 space-group symmetries with basis
Applied RMS atom displacement 0 bohrs to make symmetries exact.

---------- Initializing the Grid ----------
R = 
[      2.93104     -1.46552            0  ]
[            0      2.53836            0  ]
[            0            0           40  ]
unit cell volume = 297.601
G =
[    2.14367    1.23765         -0  ]
[          0     2.4753         -0  ]
[         -0         -0    0.15708  ]
Minimum fftbox size, Smin = [  16  16  184  ]
Chosen fftbox size, S = [  16  16  192  ]

---------- Initializing tighter grid for wavefunction operations ----------
R = 
[      2.93104     -1.46552            0  ]
[            0      2.53836            0  ]
[            0            0           40  ]
unit cell volume = 297.601
G =
[    2.14367    1.23765         -0  ]
[          0     2.4753         -0  ]
[         -0         -0    0.15708  ]
Minimum fftbox size, Smin = [  12  12  164  ]
Chosen fftbox size, S = [  12  12  168  ]

---------- Exchange Correlation functional ----------
Initalized PBE GGA exchange.
Initalized PBE GGA correlation.

---------- Setting up pseudopotentials ----------
Width of ionic core gaussian charges (only for fluid interactions / plotting) set to 0

Reading pseudopotential file '/home/gridsan/aligho/DFT/build-Nov24/pseudopotentials/SG15/Rb_ONCV_PBE.upf':
  'Rb' pseudopotential, 'PBE' functional
  Generated using ONCVPSP code by D. R. Hamann
  Author: Martin Schlipf and Francois Gygi  Date: 150915.
  9 valence electrons, 3 orbitals, 6 projectors, 2308 radial grid points, with lMax = 2
  Transforming local potential to a uniform radial grid of dG=0.02 with 1879 points.
  Transforming nonlocal projectors to a uniform radial grid of dG=0.02 with 432 points.
    4S    l: 0   occupation:  2.0   eigenvalue: -1.172069
    4P    l: 1   occupation:  6.0   eigenvalue: -0.586674
    5S    l: 0   occupation:  1.0   eigenvalue: -0.082006
  Transforming atomic orbitals to a uniform radial grid of dG=0.02 with 432 points.
  Core radius for overlap checks: 2.60 bohrs.
  Reading pulay file /home/gridsan/aligho/DFT/build-Nov24/pseudopotentials/SG15/Rb_ONCV_PBE.pulay ... using dE_dnG = -1.360715e-05 computed for Ecut = 20.

Initialized 1 species with 1 total atoms.

Folded 1 k-points by 48x48x1 to 2304 k-points.

---------- Setting up k-points, bands, fillings ----------
Reduced to 217 k-points under symmetry. 
Computing the number of bands and number of electrons
Calculating initial fillings.
nElectrons:   9.000000   nBands: 6   nStates: 217

----- Setting up reduced wavefunction bases (one per k-point) -----
average nbasis = 1271.337 , ideal nbasis = 1271.375

---------- Setting up coulomb interaction ----------
Initialized slab truncation along lattice direction 001

---------- Setting up 2D ewald sum ----------
Optimum gaussian width for ewald sums = 1.627196 bohr.
Real space sums over 289 unit cells with max indices [  8  8  0  ]
Reciprocal space sums over 81 terms with max indices [  4  4  0  ]

---------- Allocating electronic variables ----------
Initializing wave functions:  linear combination of atomic orbitals
Note: number of bands (6) exceeds available atomic orbitals (5)
Rb pseudo-atom occupations:   s ( 2 1 )  p ( 6 )
	FillingsUpdate:  mu: -0.177568644  nElectrons: 9.000000
LCAOMinimize: Iter:   0  F: -19.6643538587050486  |grad|_K:  1.566e-03  alpha:  1.000e+00
LCAOMinimize: 	Wrong curvature in test step, increasing alphaT to 3.000000e+00.
	FillingsUpdate:  mu: +0.311721291  nElectrons: 9.000000
LCAOMinimize: Iter:   1  F: -19.6857958015219978  |grad|_K:  8.447e-04  alpha: -4.184e+00  linmin:  2.221e-02  cgtest: -1.103e+00  t[s]:      1.77
LCAOMinimize: 	Bad step direction: g.d > 0.
LCAOMinimize: 	Undoing step.
LCAOMinimize: 	Step failed: resetting search direction.
	FillingsUpdate:  mu: +0.311721291  nElectrons: 9.000000
LCAOMinimize: Iter:   2  F: -19.6857958015219978  |grad|_K:  8.447e-04  alpha:  0.000e+00
LCAOMinimize: 	Predicted alpha/alphaT>3.000000, increasing alphaT to 3.000000e+00.
	FillingsUpdate:  mu: +0.311648443  nElectrons: 9.000000
LCAOMinimize: Iter:   3  F: -19.6858615008665261  |grad|_K:  8.383e-04  alpha:  1.180e-02  linmin: -5.459e-02  cgtest:  9.946e-01  t[s]:      2.66
LCAOMinimize: Encountered beta<0, resetting CG.
LCAOMinimize: 	Predicted alpha/alphaT>3.000000, increasing alphaT to 3.539973e-02.
LCAOMinimize: 	Wrong curvature in test step, increasing alphaT to 1.061992e-01.
	FillingsUpdate:  mu: +0.308671107  nElectrons: 9.000000
LCAOMinimize: Iter:   4  F: -19.6892065551476918  |grad|_K:  7.820e-04  alpha: -1.092e-03  linmin: -5.397e-02  cgtest:  9.658e-01  t[s]:      3.27
LCAOMinimize: Encountered beta<0, resetting CG.
	FillingsUpdate:  mu: +0.170786700  nElectrons: 9.000000
LCAOMinimize: Iter:   5  F: -19.6952663629590177  |grad|_K:  3.457e-04  alpha:  8.261e-01  linmin:  6.414e-02  cgtest: -6.582e-01  t[s]:      3.73
LCAOMinimize: 	Bad step direction: g.d > 0.
LCAOMinimize: 	Undoing step.
LCAOMinimize: 	Step failed: resetting search direction.
	FillingsUpdate:  mu: +0.170786700  nElectrons: 9.000000
LCAOMinimize: Iter:   6  F: -19.6952663629590177  |grad|_K:  3.457e-04  alpha:  0.000e+00
LCAOMinimize: 	Step increased F by 2.749969e-03, reducing alpha to 1.433604e-01.
	FillingsUpdate:  mu: +0.174925066  nElectrons: 9.000000
LCAOMinimize: Iter:   7  F: -19.6953886211207880  |grad|_K:  2.847e-04  alpha:  1.434e-01  linmin: -7.921e-02  cgtest:  9.964e-01  t[s]:      4.75
LCAOMinimize: Encountered beta<0, resetting CG.
[d-3-11-2:37364] 18 more processes have sent help message help-mpi-common-cuda.txt / dlopen failed
[d-3-11-2:37364] Set MCA parameter "orte_base_help_aggregate" to 0 to see all help / error messages
[d-3-11-2:37364] 18 more processes have sent help message help-mpi-btl-openib-cpc-base.txt / no cpcs for port
LCAOMinimize: 	Predicted alpha/alphaT>3.000000, increasing alphaT to 4.300813e-01.
LCAOMinimize: 	Wrong curvature in test step, increasing alphaT to 1.290244e+00.
	FillingsUpdate:  mu: +0.195020866  nElectrons: 9.000000
LCAOMinimize: Iter:   8  F: -19.6958496268618894  |grad|_K:  8.598e-05  alpha: -3.106e-01  linmin: -7.956e-02  cgtest:  9.880e-01  t[s]:      5.35
LCAOMinimize: Encountered beta<0, resetting CG.
	FillingsUpdate:  mu: +0.222484683  nElectrons: 9.000000
LCAOMinimize: Iter:   9  F: -19.6958783046298542  |grad|_K:  5.714e-05  alpha:  5.462e-01  linmin:  4.417e-02  cgtest: -9.231e-01  t[s]:      5.80
LCAOMinimize: 	Bad step direction: g.d > 0.
LCAOMinimize: 	Undoing step.
LCAOMinimize: 	Step failed: resetting search direction.
	FillingsUpdate:  mu: +0.222484683  nElectrons: 9.000000
LCAOMinimize: Iter:  10  F: -19.6958783046298542  |grad|_K:  5.714e-05  alpha:  0.000e+00
	FillingsUpdate:  mu: +0.222093729  nElectrons: 9.000000
LCAOMinimize: Iter:  11  F: -19.6958850106157897  |grad|_K:  1.181e-04  alpha:  1.170e-01  linmin: -2.043e-03  cgtest:  3.910e-01  t[s]:      6.55
	FillingsUpdate:  mu: +0.221573197  nElectrons: 9.000000
LCAOMinimize: Iter:  12  F: -19.6958921099731086  |grad|_K:  3.111e-05  alpha:  4.163e-02  linmin: -8.238e-02  cgtest:  2.482e+00  t[s]:      7.00
LCAOMinimize: Encountered beta<0, resetting CG.
LCAOMinimize: 	Predicted alpha/alphaT>3.000000, increasing alphaT to 1.248810e-01.
LCAOMinimize: 	Predicted alpha/alphaT>3.000000, increasing alphaT to 3.746431e-01.
	FillingsUpdate:  mu: +0.221561390  nElectrons: 9.000000
LCAOMinimize: Iter:  13  F: -19.6958922278873025  |grad|_K:  3.051e-05  alpha:  1.574e-02  linmin: -8.253e-02  cgtest:  9.999e-01  t[s]:      7.78
LCAOMinimize: Encountered beta<0, resetting CG.
LCAOMinimize: 	Predicted alpha/alphaT>3.000000, increasing alphaT to 4.723490e-02.
LCAOMinimize: 	Predicted alpha/alphaT>3.000000, increasing alphaT to 1.417047e-01.
	FillingsUpdate:  mu: +0.221557096  nElectrons: 9.000000
LCAOMinimize: Iter:  14  F: -19.6958922701935180  |grad|_K:  3.029e-05  alpha:  5.839e-03  linmin: -8.253e-02  cgtest:  1.000e+00  t[s]:      8.54
LCAOMinimize: Encountered beta<0, resetting CG.
LCAOMinimize: Converged (|Delta F|<1.000000e-06 for 2 iters).


---- Citations for features of the code used in this run ----

   Software package:
      R. Sundararaman, K. Letchworth-Weaver, K.A. Schwarz, D. Gunceler, Y. Ozhabes and T.A. Arias, 'JDFTx: software for joint density-functional theory', SoftwareX 6, 278 (2017)

   gga-PBE exchange-correlation functional:
      J.P. Perdew, K. Burke and M. Ernzerhof, Phys. Rev. Lett. 77, 3865 (1996)

   Pseudopotentials:
      M Schlipf and F Gygi, Comput. Phys. Commun. 196, 36 (2015)

   Truncated Coulomb potentials:
      R. Sundararaman and T.A. Arias, Phys. Rev. B 87, 165122 (2013)

   Total energy minimization with Auxiliary Hamiltonian:
      C. Freysoldt, S. Boeck, and J. Neugebauer, Phys. Rev. B 79, 241103(R) (2009)

This list may not be complete. Please suggest additional citations or
report any other bugs at https://github.com/shankar1729/jdftx/issues

Initialization completed successfully at t[s]:      8.62


-------- Electronic minimization -----------
	FillingsUpdate:  mu: +0.221557096  nElectrons: 9.000000
ElecMinimize: Iter:   0  F: -19.695892270193795  |grad|_K:  1.005e-03  alpha:  1.000e+00
	FillingsUpdate:  mu: -0.033136467  nElectrons: 9.000000
	SubspaceRotationAdjust: set factor to 1
ElecMinimize: Iter:   1  F: -20.699819009411087  |grad|_K:  7.062e-04  alpha:  6.475e-01  linmin:  7.195e-03  t[s]:      9.58
	FillingsUpdate:  mu: +0.114844545  nElectrons: 9.000000
	SubspaceRotationAdjust: set factor to 1.01
ElecMinimize: Iter:   2  F: -20.927964150595084  |grad|_K:  6.644e-04  alpha:  3.985e-01  linmin:  2.231e-03  t[s]:     10.19
	FillingsUpdate:  mu: +0.133106384  nElectrons: 9.000000
	SubspaceRotationAdjust: set factor to 1.03
ElecMinimize: Iter:   3  F: -21.064779219609122  |grad|_K:  3.598e-04  alpha:  2.486e-01  linmin:  1.302e-03  t[s]:     10.80
ElecMinimize: 	Predicted alpha/alphaT>3.000000, increasing alphaT to 7.456914e-01.
	FillingsUpdate:  mu: +0.063219175  nElectrons: 9.000000
	SubspaceRotationAdjust: set factor to 1.13
ElecMinimize: Iter:   4  F: -21.164997277665456  |grad|_K:  2.436e-04  alpha:  2.617e-01  linmin: -4.169e-03  t[s]:     11.61
ElecMinimize: 	Predicted alpha/alphaT>3.000000, increasing alphaT to 7.851692e-01.
	FillingsUpdate:  mu: +0.031294436  nElectrons: 9.000000
	SubspaceRotationAdjust: set factor to 1.24
ElecMinimize: Iter:   5  F: -21.184487638906631  |grad|_K:  2.198e-04  alpha:  6.378e-02  linmin: -9.877e-03  t[s]:     12.43
ElecMinimize: 	Wrong curvature in test step, increasing alphaT to 1.913435e-01.
	FillingsUpdate:  mu: -0.001325321  nElectrons: 9.000000
	SubspaceRotationAdjust: set factor to 1.46
ElecMinimize: Iter:   6  F: -21.207213481110067  |grad|_K:  1.798e-04  alpha: -7.777e-01  linmin: -1.193e-02  t[s]:     12.99
	FillingsUpdate:  mu: -0.003044389  nElectrons: 9.000000
	SubspaceRotationAdjust: set factor to 1.74
ElecMinimize: Iter:   7  F: -21.212586631234970  |grad|_K:  1.704e-04  alpha:  1.923e-02  linmin: -1.239e-02  t[s]:     13.59
ElecMinimize: 	Predicted alpha/alphaT>3.000000, increasing alphaT to 5.768361e-02.
ElecMinimize: 	Wrong curvature in test step, increasing alphaT to 1.730508e-01.
	FillingsUpdate:  mu: -0.031253152  nElectrons: 9.000000
	SubspaceRotationAdjust: set factor to 2.51
ElecMinimize: Iter:   8  F: -21.233137826769724  |grad|_K:  1.487e-04  alpha: -5.235e-01  linmin: -1.285e-02  t[s]:     14.35
	FillingsUpdate:  mu: -0.061244028  nElectrons: 9.000000
	SubspaceRotationAdjust: set factor to 3.18
ElecMinimize: Iter:   9  F: -21.247067098016320  |grad|_K:  1.455e-04  alpha:  3.167e-02  linmin: -1.175e-02  t[s]:     14.95
ElecMinimize: 	Wrong curvature in test step, increasing alphaT to 9.501205e-02.
	FillingsUpdate:  mu: -0.059147482  nElectrons: 9.000000
	SubspaceRotationAdjust: set factor to 4.07
ElecMinimize: Iter:  10  F: -21.279874093897099  |grad|_K:  1.475e-04  alpha: -6.633e-03  linmin: -1.076e-02  t[s]:     15.50
	FillingsUpdate:  mu: -0.167585185  nElectrons: 9.000000
	SubspaceRotationAdjust: set factor to 5.37
ElecMinimize: Iter:  11  F: -21.376095754313823  |grad|_K:  1.839e-04  alpha:  4.273e-02  linmin: -1.210e-02  t[s]:     16.11
	FillingsUpdate:  mu: -0.260933785  nElectrons: 9.000000
	SubspaceRotationAdjust: set factor to 6.37
ElecMinimize: Iter:  12  F: -21.399294059407072  |grad|_K:  2.086e-04  alpha:  6.326e-03  linmin: -1.222e-02  t[s]:     16.72
ElecMinimize: 	Wrong curvature in test step, increasing alphaT to 1.897661e-02.
	FillingsUpdate:  mu: -0.352788520  nElectrons: 9.000000
	SubspaceRotationAdjust: set factor to 8.01
	SubspaceRotationAdjust: resetting CG because factor has changed by 8.00759
ElecMinimize: 	State modified externally: resetting search direction.
ElecMinimize: Iter:  13  F: -21.414789071824657  |grad|_K:  2.541e-04  alpha: -5.165e-03
	FillingsUpdate:  mu: +0.065103118  nElectrons: 9.000000
	SubspaceRotationAdjust: set factor to 6.35
ElecMinimize: Iter:  14  F: -21.442458409134957  |grad|_K:  2.751e-04  alpha:  2.382e-01  linmin: -2.589e-04  t[s]:     18.21
	FillingsUpdate:  mu: +0.016138720  nElectrons: 9.000000
	SubspaceRotationAdjust: set factor to 8.37
ElecMinimize: Iter:  15  F: -21.469333175801445  |grad|_K:  2.068e-04  alpha:  5.457e-02  linmin: -3.658e-03  t[s]:     18.82
ElecMinimize: 	Wrong curvature in test step, increasing alphaT to 1.637101e-01.
	FillingsUpdate:  mu: -0.089579096  nElectrons: 9.000000
	SubspaceRotationAdjust: set factor to 8.19
ElecMinimize: Iter:  16  F: -21.490649875806071  |grad|_K:  1.696e-04  alpha: -6.765e-02  linmin: -1.848e-03  t[s]:     19.37
ElecMinimize: 	Step increased F by 2.461392e-03, reducing alpha to 3.481798e-03.
	FillingsUpdate:  mu: -0.101474554  nElectrons: 9.000000
	SubspaceRotationAdjust: set factor to 8.66
ElecMinimize: Iter:  17  F: -21.491619149319057  |grad|_K:  1.736e-04  alpha:  3.482e-03  linmin: -2.464e-03  t[s]:     20.33
ElecMinimize: 	Predicted alpha/alphaT>3.000000, increasing alphaT to 1.044539e-02.
ElecMinimize: 	Step increased F by 7.638066e-04, reducing alpha to 2.647137e-03.
	FillingsUpdate:  mu: -0.100852404  nElectrons: 9.000000
	SubspaceRotationAdjust: set factor to 9.23
ElecMinimize: Iter:  18  F: -21.492516741675271  |grad|_K:  1.722e-04  alpha:  2.647e-03  linmin: -3.003e-03  t[s]:     21.50
ElecMinimize: 	Predicted alpha/alphaT>3.000000, increasing alphaT to 7.941410e-03.
	FillingsUpdate:  mu: -0.303257193  nElectrons: 9.000000
	SubspaceRotationAdjust: set factor to 10
ElecMinimize: Iter:  19  F: -21.494981002276294  |grad|_K:  2.294e-04  alpha:  1.979e-02  linmin: -2.891e-03  t[s]:     22.30
ElecMinimize: 	Step increased F by 7.274745e-05, reducing alpha to 3.595608e-04.
ElecMinimize: 	Step increased F by 1.110384e-03, reducing alpha to 3.595608e-05.
	FillingsUpdate:  mu: -0.303253512  nElectrons: 9.000000
	SubspaceRotationAdjust: set factor to 7.09
ElecMinimize: Iter:  20  F: -21.495008034128375  |grad|_K:  3.315e-04  alpha:  3.596e-05  linmin:  2.852e-05  t[s]:     23.64
ElecMinimize: 	Step increased F by 3.423941e-05, reducing alpha to 8.362642e-07.
	FillingsUpdate:  mu: -0.303275796  nElectrons: 9.000000
	SubspaceRotationAdjust: set factor to 5.17
ElecMinimize: Iter:  21  F: -21.495008076382483  |grad|_K:  3.199e-04  alpha:  8.363e-07  linmin:  5.281e-04  t[s]:     24.59
	FillingsUpdate:  mu: -0.303279063  nElectrons: 9.000000
	SubspaceRotationAdjust: set factor to 4.16
ElecMinimize: Iter:  22  F: -21.495008081630829  |grad|_K:  2.915e-04  alpha:  1.221e-07  linmin: -9.966e-06  t[s]:     25.19
ElecMinimize: 	Predicted alpha/alphaT>3.000000, increasing alphaT to 3.662790e-07.
	FillingsUpdate:  mu: -0.303295830  nElectrons: 9.000000
	SubspaceRotationAdjust: set factor to 3.45
ElecMinimize: Iter:  23  F: -21.495008186284711  |grad|_K:  2.851e-04  alpha:  7.525e-07  linmin:  3.880e-05  t[s]:     26.00
	FillingsUpdate:  mu: -0.303312958  nElectrons: 9.000000
	SubspaceRotationAdjust: set factor to 2.93
ElecMinimize: Iter:  24  F: -21.495008281289969  |grad|_K:  2.797e-04  alpha:  7.420e-07  linmin:  1.324e-05  t[s]:     26.60
	FillingsUpdate:  mu: -0.303332890  nElectrons: 9.000000
	SubspaceRotationAdjust: set factor to 2.53
ElecMinimize: Iter:  25  F: -21.495008387635117  |grad|_K:  2.764e-04  alpha:  8.376e-07  linmin:  1.515e-05  t[s]:     27.20
	FillingsUpdate:  mu: -0.303355214  nElectrons: 9.000000
	SubspaceRotationAdjust: set factor to 2.22
ElecMinimize: Iter:  26  F: -21.495008498973785  |grad|_K:  2.741e-04  alpha:  8.980e-07  linmin:  1.105e-05  t[s]:     27.80
	FillingsUpdate:  mu: -0.303380609  nElectrons: 9.000000
	SubspaceRotationAdjust: set factor to 1.96
ElecMinimize: Iter:  27  F: -21.495008618616119  |grad|_K:  2.723e-04  alpha:  9.766e-07  linmin:  8.391e-06  t[s]:     28.41
	FillingsUpdate:  mu: -0.303409700  nElectrons: 9.000000
	SubspaceRotationAdjust: set factor to 1.75
ElecMinimize: Iter:  28  F: -21.495008748344009  |grad|_K:  2.709e-04  alpha:  1.068e-06  linmin:  5.107e-06  t[s]:     29.02
	FillingsUpdate:  mu: -0.303443496  nElectrons: 9.000000
	SubspaceRotationAdjust: set factor to 1.57
ElecMinimize: Iter:  29  F: -21.495008891625805  |grad|_K:  2.698e-04  alpha:  1.186e-06  linmin:  1.014e-06  t[s]:     29.63
	FillingsUpdate:  mu: -0.303483605  nElectrons: 9.000000
	SubspaceRotationAdjust: set factor to 1.41
ElecMinimize: Iter:  30  F: -21.495009054067815  |grad|_K:  2.689e-04  alpha:  1.347e-06  linmin: -4.779e-06  t[s]:     30.23
	FillingsUpdate:  mu: -0.303532918  nElectrons: 9.000000
	SubspaceRotationAdjust: set factor to 1.28
ElecMinimize: Iter:  31  F: -21.495009246184679  |grad|_K:  2.680e-04  alpha:  1.588e-06  linmin: -1.464e-05  t[s]:     30.85
	FillingsUpdate:  mu: -0.303597741  nElectrons: 9.000000
	SubspaceRotationAdjust: set factor to 1.17
ElecMinimize: Iter:  32  F: -21.495009492624693  |grad|_K:  2.672e-04  alpha:  2.005e-06  linmin: -3.644e-05  t[s]:     31.46
	FillingsUpdate:  mu: -0.303697827  nElectrons: 9.000000
	SubspaceRotationAdjust: set factor to 1.07
	SubspaceRotationAdjust: resetting CG because factor has changed by 0.133636
ElecMinimize: 	State modified externally: resetting search direction.
ElecMinimize: Iter:  33  F: -21.495009884662480  |grad|_K:  2.600e-04  alpha:  2.990e-06
ElecMinimize: 	Predicted alpha/alphaT>3.000000, increasing alphaT to 8.969262e-06.
ElecMinimize: 	Predicted alpha/alphaT>3.000000, increasing alphaT to 2.690778e-05.
ElecMinimize: 	Predicted alpha/alphaT>3.000000, increasing alphaT to 8.072335e-05.
	FillingsUpdate:  mu: -0.302170177  nElectrons: 9.000000
	SubspaceRotationAdjust: set factor to 1.16
ElecMinimize: Iter:  34  F: -21.495329002377371  |grad|_K:  1.852e-04  alpha:  2.464e-03  linmin: -1.937e-02  t[s]:     33.38
ElecMinimize: 	Predicted alpha/alphaT>3.000000, increasing alphaT to 7.391330e-03.
ElecMinimize: 	Wrong curvature in test step, increasing alphaT to 2.217399e-02.
	FillingsUpdate:  mu: -0.293182566  nElectrons: 9.000000
	SubspaceRotationAdjust: set factor to 1.24
ElecMinimize: Iter:  35  F: -21.497069077244596  |grad|_K:  1.830e-04  alpha: -9.901e-03  linmin: -1.965e-02  t[s]:     34.13
	FillingsUpdate:  mu: +0.116016563  nElectrons: 9.000000
	SubspaceRotationAdjust: set factor to 1.16
ElecMinimize: Iter:  36  F: -21.518616108645517  |grad|_K:  2.060e-04  alpha:  3.067e-01  linmin:  3.220e-03  t[s]:     34.74
	FillingsUpdate:  mu: +0.138366837  nElectrons: 9.000000
	SubspaceRotationAdjust: set factor to 1.38
ElecMinimize: Iter:  37  F: -21.519554212888988  |grad|_K:  2.073e-04  alpha:  1.003e-01  linmin:  1.178e-04  t[s]:     35.34
ElecMinimize: 	Wrong curvature in test step, increasing alphaT to 3.009647e-01.
	FillingsUpdate:  mu: +0.084044829  nElectrons: 9.000000
	SubspaceRotationAdjust: set factor to 1.83
ElecMinimize: Iter:  38  F: -21.536710394193324  |grad|_K:  1.510e-04  alpha: -2.412e-01  linmin: -3.755e-03  t[s]:     35.91
	FillingsUpdate:  mu: +0.069109476  nElectrons: 9.000000
	SubspaceRotationAdjust: set factor to 2.47
ElecMinimize: Iter:  39  F: -21.545366645199202  |grad|_K:  1.406e-04  alpha:  3.558e-02  linmin: -5.632e-03  t[s]:     36.52
ElecMinimize: 	Wrong curvature in test step, increasing alphaT to 1.067376e-01.
	FillingsUpdate:  mu: +0.044520087  nElectrons: 9.000000
	SubspaceRotationAdjust: set factor to 2.96
ElecMinimize: Iter:  40  F: -21.555496999863561  |grad|_K:  1.231e-04  alpha: -1.239e-02  linmin: -4.803e-03  t[s]:     37.07
	FillingsUpdate:  mu: +0.031344792  nElectrons: 9.000000
	SubspaceRotationAdjust: set factor to 1.5
ElecMinimize: Iter:  41  F: -21.559820550517205  |grad|_K:  8.596e-04  alpha:  1.830e-02  linmin: -1.095e-02  t[s]:     37.67
ElecMinimize: 	Step increased F by 3.495309e-01, reducing alpha to 6.220444e-04.
	FillingsUpdate:  mu: -0.122602364  nElectrons: 9.000000
	SubspaceRotationAdjust: set factor to 1.73
ElecMinimize: Iter:  42  F: -21.574005813359406  |grad|_K:  9.342e-05  alpha:  6.220e-04  linmin:  2.531e-04  t[s]:     38.66
ElecMinimize: 	Predicted alpha/alphaT>3.000000, increasing alphaT to 1.866133e-03.
ElecMinimize: 	Predicted alpha/alphaT>3.000000, increasing alphaT to 5.598399e-03.
ElecMinimize: 	Wrong curvature in test step, increasing alphaT to 1.679520e-02.
	FillingsUpdate:  mu: -0.131272284  nElectrons: 9.000000
	SubspaceRotationAdjust: set factor to 1.87
ElecMinimize: Iter:  43  F: -21.574871789792706  |grad|_K:  9.589e-05  alpha: -5.678e-04  linmin: -1.819e-03  t[s]:     39.63
	FillingsUpdate:  mu: -0.135809716  nElectrons: 9.000000
	SubspaceRotationAdjust: set factor to 2.08
ElecMinimize: Iter:  44  F: -21.576771353206162  |grad|_K:  9.704e-05  alpha:  1.811e-02  linmin: -3.821e-03  t[s]:     40.24
ElecMinimize: 	Wrong curvature in test step, increasing alphaT to 5.432172e-02.
	FillingsUpdate:  mu: -0.159983225  nElectrons: 9.000000
	SubspaceRotationAdjust: set factor to 2.4
ElecMinimize: Iter:  45  F: -21.579467712308951  |grad|_K:  1.012e-04  alpha: -1.028e-02  linmin: -5.767e-03  t[s]:     40.80
	FillingsUpdate:  mu: -0.239483352  nElectrons: 9.000000
	SubspaceRotationAdjust: set factor to 1.46
ElecMinimize: Iter:  46  F: -21.582882460133380  |grad|_K:  2.303e-04  alpha:  3.510e-02  linmin:  6.611e-04  t[s]:     41.40
ElecMinimize: 	Bad step direction: g.d > 0.
ElecMinimize: 	Undoing step.
ElecMinimize: 	Step failed: resetting search direction.
	FillingsUpdate:  mu: -0.239483352  nElectrons: 9.000000
	SubspaceRotationAdjust: set factor to 0.99
ElecMinimize: Iter:  47  F: -21.582882460133394  |grad|_K:  1.896e-04  alpha:  0.000e+00
	FillingsUpdate:  mu: -0.189122463  nElectrons: 9.000000
	SubspaceRotationAdjust: set factor to 1.3
ElecMinimize: Iter:  48  F: -21.586172254265914  |grad|_K:  8.768e-05  alpha:  4.912e-02  linmin: -1.159e-02  t[s]:     42.41
ElecMinimize: 	Wrong curvature in test step, increasing alphaT to 1.473697e-01.
	FillingsUpdate:  mu: -0.163275811  nElectrons: 9.000000
	SubspaceRotationAdjust: set factor to 1.49
ElecMinimize: Iter:  49  F: -21.588427600562010  |grad|_K:  7.641e-05  alpha: -5.980e-02  linmin: -1.678e-02  t[s]:     42.95
	FillingsUpdate:  mu: -0.023326577  nElectrons: 9.000000
	SubspaceRotationAdjust: set factor to 1.36
ElecMinimize: Iter:  50  F: -21.594646308155351  |grad|_K:  6.828e-05  alpha:  1.919e-01  linmin: -2.332e-03  t[s]:     43.56
ElecMinimize: 	Predicted alpha/alphaT>3.000000, increasing alphaT to 5.758076e-01.
	FillingsUpdate:  mu: -0.004892151  nElectrons: 9.000000
	SubspaceRotationAdjust: set factor to 1.68
ElecMinimize: Iter:  51  F: -21.598379746244039  |grad|_K:  8.890e-05  alpha:  3.454e-01  linmin:  4.538e-03  t[s]:     44.39
	FillingsUpdate:  mu: -0.064531592  nElectrons: 9.000000
	SubspaceRotationAdjust: set factor to 2.22
ElecMinimize: Iter:  52  F: -21.601701476490440  |grad|_K:  6.915e-05  alpha:  1.368e-01  linmin:  3.146e-03  t[s]:     44.99
	FillingsUpdate:  mu: -0.146743064  nElectrons: 9.000000
	SubspaceRotationAdjust: set factor to 1.95
ElecMinimize: Iter:  53  F: -21.602177283663853  |grad|_K:  5.994e-05  alpha:  1.783e-01  linmin:  1.028e-02  t[s]:     45.60
	FillingsUpdate:  mu: -0.146880411  nElectrons: 9.000000
	SubspaceRotationAdjust: set factor to 2.2
ElecMinimize: Iter:  54  F: -21.602177517089530  |grad|_K:  5.950e-05  alpha:  1.963e-03  linmin: -1.713e-04  t[s]:     46.21
ElecMinimize: 	Predicted alpha/alphaT>3.000000, increasing alphaT to 5.887691e-03.
ElecMinimize: 	Predicted alpha/alphaT>3.000000, increasing alphaT to 1.766307e-02.
ElecMinimize: 	Predicted alpha/alphaT>3.000000, increasing alphaT to 5.298922e-02.
	FillingsUpdate:  mu: -0.095384722  nElectrons: 9.000000
	SubspaceRotationAdjust: set factor to 2.32
ElecMinimize: Iter:  55  F: -21.603797026298313  |grad|_K:  4.881e-05  alpha:  2.233e-01  linmin: -9.755e-04  t[s]:     47.21
	FillingsUpdate:  mu: -0.093871488  nElectrons: 9.000000
	SubspaceRotationAdjust: set factor to 2.46
ElecMinimize: Iter:  56  F: -21.604172267843598  |grad|_K:  4.484e-05  alpha:  1.001e-01  linmin: -1.687e-02  t[s]:     47.83
	FillingsUpdate:  mu: -0.085917360  nElectrons: 9.000000
	SubspaceRotationAdjust: set factor to 2.68
ElecMinimize: Iter:  57  F: -21.605420707208662  |grad|_K:  3.402e-05  alpha:  1.981e-01  linmin: -1.323e-02  t[s]:     48.43
	FillingsUpdate:  mu: -0.127466193  nElectrons: 9.000000
	SubspaceRotationAdjust: set factor to 2.88
ElecMinimize: Iter:  58  F: -21.605506560820075  |grad|_K:  3.232e-05  alpha:  8.768e-02  linmin: -1.084e-02  t[s]:     49.04
ElecMinimize: 	Wrong curvature in test step, increasing alphaT to 2.630407e-01.
	FillingsUpdate:  mu: -0.112873245  nElectrons: 9.000000
	SubspaceRotationAdjust: set factor to 3.23
ElecMinimize: Iter:  59  F: -21.606736753459206  |grad|_K:  2.499e-05  alpha: -3.551e-02  linmin: -3.133e-02  t[s]:     49.59
	FillingsUpdate:  mu: -0.103652089  nElectrons: 9.000000
	SubspaceRotationAdjust: set factor to 3.2
ElecMinimize: Iter:  60  F: -21.607564303130303  |grad|_K:  2.443e-05  alpha:  2.131e-01  linmin: -2.840e-03  t[s]:     50.20
	FillingsUpdate:  mu: -0.146264058  nElectrons: 9.000000
	SubspaceRotationAdjust: set factor to 2.85
ElecMinimize: Iter:  61  F: -21.607698653314657  |grad|_K:  2.918e-05  alpha:  3.222e-01  linmin: -2.715e-03  t[s]:     50.81
	FillingsUpdate:  mu: -0.129993148  nElectrons: 9.000000
	SubspaceRotationAdjust: set factor to 3.53
ElecMinimize: Iter:  62  F: -21.608270344997148  |grad|_K:  2.804e-05  alpha:  6.981e-02  linmin: -2.041e-03  t[s]:     51.41
ElecMinimize: 	Step increased F by 5.915275e-05, reducing alpha to 3.669250e-03.
	FillingsUpdate:  mu: -0.129793995  nElectrons: 9.000000
	SubspaceRotationAdjust: set factor to 4.16
ElecMinimize: Iter:  63  F: -21.608282356998128  |grad|_K:  2.850e-05  alpha:  3.669e-03  linmin: -6.678e-03  t[s]:     52.38
ElecMinimize: 	Predicted alpha/alphaT>3.000000, increasing alphaT to 1.100775e-02.
ElecMinimize: 	Step increased F by 8.589531e-06, reducing alpha to 2.808929e-03.
	FillingsUpdate:  mu: -0.129615483  nElectrons: 9.000000
	SubspaceRotationAdjust: set factor to 5.05
ElecMinimize: Iter:  64  F: -21.608299058817508  |grad|_K:  2.880e-05  alpha:  2.809e-03  linmin: -9.013e-03  t[s]:     53.56
ElecMinimize: 	Predicted alpha/alphaT>3.000000, increasing alphaT to 8.426788e-03.
ElecMinimize: 	Predicted alpha/alphaT>3.000000, increasing alphaT to 2.528036e-02.
	FillingsUpdate:  mu: -0.119971315  nElectrons: 9.000000
	SubspaceRotationAdjust: set factor to 6.08
ElecMinimize: Iter:  65  F: -21.608335389774442  |grad|_K:  2.829e-05  alpha:  1.603e-02  linmin: -1.040e-02  t[s]:     54.57
	FillingsUpdate:  mu: -0.117361963  nElectrons: 9.000000
	SubspaceRotationAdjust: set factor to 7.22
ElecMinimize: Iter:  66  F: -21.608486576456141  |grad|_K:  2.623e-05  alpha:  2.016e-02  linmin: -1.312e-02  t[s]:     55.18
ElecMinimize: 	Wrong curvature in test step, increasing alphaT to 6.049323e-02.
	FillingsUpdate:  mu: -0.120768045  nElectrons: 9.000000
	SubspaceRotationAdjust: set factor to 8.03
	SubspaceRotationAdjust: resetting CG because factor has changed by 7.50006
ElecMinimize: 	State modified externally: resetting search direction.
ElecMinimize: Iter:  67  F: -21.608959468603594  |grad|_K:  2.353e-05  alpha: -9.192e-03
	FillingsUpdate:  mu: -0.124578968  nElectrons: 9.000000
	SubspaceRotationAdjust: set factor to 8.61
ElecMinimize: Iter:  68  F: -21.609121352636272  |grad|_K:  2.037e-05  alpha:  5.421e-02  linmin: -6.669e-03  t[s]:     56.65
ElecMinimize: 	Predicted alpha/alphaT>3.000000, increasing alphaT to 1.626245e-01.
	FillingsUpdate:  mu: -0.129173308  nElectrons: 9.000000
	SubspaceRotationAdjust: set factor to 8.94
ElecMinimize: Iter:  69  F: -21.609229621629993  |grad|_K:  1.917e-05  alpha:  4.705e-02  linmin: -1.084e-02  t[s]:     57.46
	FillingsUpdate:  mu: -0.128720012  nElectrons: 9.000000
	SubspaceRotationAdjust: set factor to 9.65
ElecMinimize: Iter:  70  F: -21.609351487510082  |grad|_K:  1.557e-05  alpha:  6.046e-02  linmin: -2.766e-02  t[s]:     58.07
ElecMinimize: 	Predicted alpha/alphaT>3.000000, increasing alphaT to 1.813813e-01.
	FillingsUpdate:  mu: -0.125601395  nElectrons: 9.000000
	SubspaceRotationAdjust: set factor to 9.73
ElecMinimize: Iter:  71  F: -21.609474855524088  |grad|_K:  1.377e-05  alpha:  5.743e-02  linmin: -1.784e-02  t[s]:     58.88
ElecMinimize: 	Predicted alpha/alphaT>3.000000, increasing alphaT to 1.722982e-01.
ElecMinimize: 	Predicted alpha/alphaT>3.000000, increasing alphaT to 5.168945e-01.
	FillingsUpdate:  mu: -0.092887047  nElectrons: 9.000000
	SubspaceRotationAdjust: set factor to 5.79
ElecMinimize: Iter:  72  F: -21.609753641626238  |grad|_K:  3.117e-05  alpha:  2.487e-01  linmin: -1.645e-02  t[s]:     59.90
	FillingsUpdate:  mu: -0.099546804  nElectrons: 9.000000
	SubspaceRotationAdjust: set factor to 6.26
ElecMinimize: Iter:  73  F: -21.610044402137820  |grad|_K:  1.838e-05  alpha:  3.721e-02  linmin: -2.685e-03  t[s]:     60.50
ElecMinimize: 	Wrong curvature in test step, increasing alphaT to 1.116437e-01.
	FillingsUpdate:  mu: -0.129665664  nElectrons: 9.000000
	SubspaceRotationAdjust: set factor to 5.15
ElecMinimize: Iter:  74  F: -21.610214626811540  |grad|_K:  2.252e-05  alpha: -9.521e-03  linmin:  6.488e-04  t[s]:     61.06
ElecMinimize: 	Step increased F by 3.781930e-06, reducing alpha to 2.064536e-04.
	FillingsUpdate:  mu: -0.129679765  nElectrons: 9.000000
	SubspaceRotationAdjust: set factor to 7.26
ElecMinimize: Iter:  75  F: -21.610214845162140  |grad|_K:  2.154e-05  alpha:  2.065e-04  linmin: -1.332e-03  t[s]:     62.02
ElecMinimize: 	Predicted alpha/alphaT>3.000000, increasing alphaT to 6.193609e-04.
ElecMinimize: 	Predicted alpha/alphaT>3.000000, increasing alphaT to 1.858083e-03.
	FillingsUpdate:  mu: -0.131046321  nElectrons: 9.000000
	SubspaceRotationAdjust: set factor to 4.85
ElecMinimize: Iter:  76  F: -21.610215318702693  |grad|_K:  3.684e-05  alpha:  4.199e-03  linmin:  1.519e-04  t[s]:     63.04
	FillingsUpdate:  mu: -0.131216598  nElectrons: 9.000000
	SubspaceRotationAdjust: set factor to 5.6
ElecMinimize: Iter:  77  F: -21.610217991880042  |grad|_K:  2.461e-05  alpha:  4.757e-04  linmin: -3.201e-03  t[s]:     63.63
ElecMinimize: 	Predicted alpha/alphaT>3.000000, increasing alphaT to 1.427073e-03.
ElecMinimize: 	Predicted alpha/alphaT>3.000000, increasing alphaT to 4.281218e-03.
ElecMinimize: 	Wrong curvature in test step, increasing alphaT to 1.284365e-02.
	FillingsUpdate:  mu: -0.131090060  nElectrons: 9.000000
	SubspaceRotationAdjust: set factor to 3.2
ElecMinimize: Iter:  78  F: -21.610263546178906  |grad|_K:  5.154e-05  alpha: -2.026e-03  linmin: -1.193e-02  t[s]:     64.61
ElecMinimize: 	Step increased F by 1.318420e-02, reducing alpha to 6.114537e-03.
	FillingsUpdate:  mu: -0.144752839  nElectrons: 9.000000
	SubspaceRotationAdjust: set factor to 3.65
ElecMinimize: Iter:  79  F: -21.610665200517690  |grad|_K:  3.016e-05  alpha:  6.115e-03  linmin: -2.802e-02  t[s]:     65.59
ElecMinimize: 	Predicted alpha/alphaT>3.000000, increasing alphaT to 1.834361e-02.
ElecMinimize: 	Predicted alpha/alphaT>3.000000, increasing alphaT to 5.503083e-02.
	FillingsUpdate:  mu: -0.143348910  nElectrons: 9.000000
	SubspaceRotationAdjust: set factor to 4.02
ElecMinimize: Iter:  80  F: -21.611688432461598  |grad|_K:  2.941e-05  alpha:  2.315e-02  linmin: -4.373e-02  t[s]:     66.61
ElecMinimize: 	Step increased F by 2.113803e-04, reducing alpha to 1.272897e-03.
ElecMinimize: 	Step increased F by 1.608464e-04, reducing alpha to 1.272897e-04.
	FillingsUpdate:  mu: -0.143335364  nElectrons: 9.000000
	SubspaceRotationAdjust: set factor to 4.5
ElecMinimize: Iter:  81  F: -21.611695986794892  |grad|_K:  2.934e-05  alpha:  1.273e-04  linmin: -4.702e-02  t[s]:     67.94
ElecMinimize: 	Predicted alpha/alphaT>3.000000, increasing alphaT to 3.818691e-04.
ElecMinimize: 	Predicted alpha/alphaT>3.000000, increasing alphaT to 1.145607e-03.
	FillingsUpdate:  mu: -0.143282040  nElectrons: 9.000000
	SubspaceRotationAdjust: set factor to 5.25
ElecMinimize: Iter:  82  F: -21.611722633469316  |grad|_K:  2.998e-05  alpha:  4.343e-04  linmin: -4.550e-02  t[s]:     68.95
ElecMinimize: 	Predicted alpha/alphaT>3.000000, increasing alphaT to 1.302771e-03.
	FillingsUpdate:  mu: -0.143249422  nElectrons: 9.000000
	SubspaceRotationAdjust: set factor to 4.12
ElecMinimize: Iter:  83  F: -21.611747207706589  |grad|_K:  4.498e-05  alpha:  3.777e-04  linmin: -3.213e-02  t[s]:     69.76
	FillingsUpdate:  mu: -0.143272321  nElectrons: 9.000000
	SubspaceRotationAdjust: set factor to 2.51
ElecMinimize: Iter:  84  F: -21.611766171173421  |grad|_K:  6.359e-05  alpha:  1.342e-04  linmin: -1.320e-02  t[s]:     70.37
ElecMinimize: 	Step increased F by 2.301696e-06, reducing alpha to 3.516461e-06.
	FillingsUpdate:  mu: -0.143274038  nElectrons: 9.000000
	SubspaceRotationAdjust: set factor to 1.69
ElecMinimize: Iter:  85  F: -21.611767159613247  |grad|_K:  5.316e-05  alpha:  3.516e-06  linmin: -1.287e-02  t[s]:     71.32
ElecMinimize: 	Predicted alpha/alphaT>3.000000, increasing alphaT to 1.054938e-05.
ElecMinimize: 	Predicted alpha/alphaT>3.000000, increasing alphaT to 3.164815e-05.
ElecMinimize: 	Predicted alpha/alphaT>3.000000, increasing alphaT to 9.494444e-05.
	FillingsUpdate:  mu: -0.138387745  nElectrons: 9.000000
	SubspaceRotationAdjust: set factor to 1.8
ElecMinimize: Iter:  86  F: -21.611805335228532  |grad|_K:  2.905e-05  alpha:  6.875e-04  linmin: -4.194e-02  t[s]:     72.34
	FillingsUpdate:  mu: -0.138353611  nElectrons: 9.000000
	SubspaceRotationAdjust: set factor to 1.89
ElecMinimize: Iter:  87  F: -21.611811746272405  |grad|_K:  2.926e-05  alpha:  8.242e-05  linmin: -4.073e-02  t[s]:     72.95
	FillingsUpdate:  mu: -0.138338479  nElectrons: 9.000000
	SubspaceRotationAdjust: set factor to 2.41
ElecMinimize: Iter:  88  F: -21.611814429654096  |grad|_K:  3.329e-05  alpha:  3.459e-05  linmin: -3.297e-02  t[s]:     73.56
	FillingsUpdate:  mu: -0.138332098  nElectrons: 9.000000
	SubspaceRotationAdjust: set factor to 1.99
ElecMinimize: Iter:  89  F: -21.611815368010994  |grad|_K:  4.546e-05  alpha:  1.220e-05  linmin: -1.448e-02  t[s]:     74.17
	FillingsUpdate:  mu: -0.138330108  nElectrons: 9.000000
	SubspaceRotationAdjust: set factor to 1.5
ElecMinimize: Iter:  90  F: -21.611815559111946  |grad|_K:  4.908e-05  alpha:  2.420e-06  linmin: -5.456e-03  t[s]:     74.77
	FillingsUpdate:  mu: -0.138328893  nElectrons: 9.000000
	SubspaceRotationAdjust: set factor to 1.12
ElecMinimize: Iter:  91  F: -21.611815610029989  |grad|_K:  4.938e-05  alpha:  1.478e-06  linmin: -7.939e-05  t[s]:     75.38
	FillingsUpdate:  mu: -0.138328762  nElectrons: 9.000000
	SubspaceRotationAdjust: set factor to 0.92
	SubspaceRotationAdjust: resetting CG because factor has changed by 0.114595
ElecMinimize: 	State modified externally: resetting search direction.
ElecMinimize: Iter:  92  F: -21.611815610873929  |grad|_K:  4.296e-05  alpha:  1.699e-07
ElecMinimize: 	Wrong curvature in test step, increasing alphaT to 5.095901e-07.
	FillingsUpdate:  mu: -0.138328757  nElectrons: 9.000000
	SubspaceRotationAdjust: set factor to 0.82
ElecMinimize: Iter:  93  F: -21.611815611913659  |grad|_K:  4.296e-05  alpha: -1.022e-04  linmin: -3.737e-02  t[s]:     76.84
ElecMinimize: Converged (|Delta F|<1.000000e-08 for 2 iters).
Setting wave functions to eigenvectors of Hamiltonian

# Ionic positions in lattice coordinates:
ion Rb   0.000000000000000   0.000000000000000   0.000000000000000 0

# Forces in Lattice coordinates:
force Rb  -0.000000000000000   0.000000000000000   0.000000000000000 0

# Energy components:
   Eewald =      -58.2194390333311631
       EH =      -44.3970278482749663
     Eloc =       75.3720473897912484
      Enl =       -1.4493872587689440
   Epulay =       -0.0000000017276550
      Exc =       -4.9281210843004306
       KE =       12.0101122937374285
-------------------------------------
     Etot =      -21.6118155428744814
       TS =        0.0000000690391791
-------------------------------------
        F =      -21.6118156119136593

IonicMinimize: Iter:   0  F: -21.611815611913659  |grad|_K:  0.000e+00  t[s]:     76.91
IonicMinimize: Converged (|grad|_K<1.000000e-04).

#--- Lowdin population analysis ---
# oxidation-state Rb +1.948

End date and time: Sun Jan 16 15:47:19 2022  (Duration: 0-0:01:16.93)
Done!
