1.55
--------------------------------------------------------------------------
The library attempted to open the following supporting CUDA libraries,
but each of them failed.  CUDA-aware support is disabled.
libcuda.so.1: cannot open shared object file: No such file or directory
libcuda.dylib: cannot open shared object file: No such file or directory
/usr/lib64/libcuda.so.1: cannot open shared object file: No such file or directory
/usr/lib64/libcuda.dylib: cannot open shared object file: No such file or directory
If you are not interested in CUDA-aware support, then run with
--mca opal_warn_on_missing_libcuda 0 to suppress this message.  If you are interested
in CUDA-aware support, then try setting LD_LIBRARY_PATH to the location
of libcuda.so.1 to get passed this issue.
--------------------------------------------------------------------------
--------------------------------------------------------------------------
No OpenFabrics connection schemes reported that they were able to be
used on a specific port.  As such, the openib BTL (OpenFabrics
support) will be disabled for this port.

  Local host:           d-3-3-4
  Local device:         mlx5_1
  Local port:           1
  CPCs attempted:       rdmacm, udcm
--------------------------------------------------------------------------

*************** JDFTx 1.6.0 (git hash 42ebbcc2) ***************

Start date and time: Sun Jan 16 15:48:51 2022
Executable jdftx with command-line: -i Rubidium.in
Running on hosts (process indices):  d-3-3-4 (0-18)
Divided in process groups (process indices):  0 (0)  1 (1)  2 (2)  3 (3)  4 (4)  5 (5)  6 (6)  7 (7)  8 (8)  9 (9)  10 (10)  11 (11)  12 (12)  13 (13)  14 (14)  15 (15)  16 (16)  17 (17)  18 (18)
Resource initialization completed at t[s]:      0.00
Run totals: 19 processes, 48 threads, 0 GPUs


Input parsed successfully to the following command list (including defaults):

basis kpoint-dependent
coords-type Lattice
core-overlap-check vector
coulomb-interaction Slab 001
davidson-band-ratio 1.1
dump End None
dump-name $INPUT.$VAR
elec-cutoff 20 100
elec-eigen-algo Davidson
elec-ex-corr gga-PBE
elec-smearing Fermi 1e-05
electronic-minimize  \
	dirUpdateScheme      FletcherReeves \
	linminMethod         DirUpdateRecommended \
	nIterations          10000 \
	history              15 \
	knormThreshold       0 \
	energyDiffThreshold  1e-08 \
	nEnergyDiff          2 \
	alphaTstart          1 \
	alphaTmin            1e-10 \
	updateTestStepSize   yes \
	alphaTreduceFactor   0.1 \
	alphaTincreaseFactor 3 \
	nAlphaAdjustMax      3 \
	wolfeEnergy          0.0001 \
	wolfeGradient        0.9 \
	fdTest               no
exchange-regularization WignerSeitzTruncated
fluid None
fluid-ex-corr (null) lda-PZ
fluid-gummel-loop 10 1.000000e-05
fluid-minimize  \
	dirUpdateScheme      PolakRibiere \
	linminMethod         DirUpdateRecommended \
	nIterations          100 \
	history              15 \
	knormThreshold       0 \
	energyDiffThreshold  0 \
	nEnergyDiff          2 \
	alphaTstart          1 \
	alphaTmin            1e-10 \
	updateTestStepSize   yes \
	alphaTreduceFactor   0.1 \
	alphaTincreaseFactor 3 \
	nAlphaAdjustMax      3 \
	wolfeEnergy          0.0001 \
	wolfeGradient        0.9 \
	fdTest               no
fluid-solvent H2O 55.338 ScalarEOS \
	epsBulk 78.4 \
	pMol 0.92466 \
	epsInf 1.77 \
	Pvap 1.06736e-10 \
	sigmaBulk 4.62e-05 \
	Rvdw 2.61727 \
	Res 1.42 \
	tauNuc 343133 \
	poleEl 15 7 1
forces-output-coords Positions
ion Rb   0.000000000000000   0.000000000000000   0.000000000000000 0
ion-species SG15/$ID_ONCV_PBE.upf
ion-width 0
ionic-minimize  \
	dirUpdateScheme      L-BFGS \
	linminMethod         DirUpdateRecommended \
	nIterations          0 \
	history              15 \
	knormThreshold       0.0001 \
	energyDiffThreshold  1e-06 \
	nEnergyDiff          2 \
	alphaTstart          1 \
	alphaTmin            1e-10 \
	updateTestStepSize   yes \
	alphaTreduceFactor   0.1 \
	alphaTincreaseFactor 3 \
	nAlphaAdjustMax      3 \
	wolfeEnergy          0.0001 \
	wolfeGradient        0.9 \
	fdTest               no
kpoint   0.000000000000   0.000000000000   0.000000000000  1.00000000000000
kpoint-folding 48 48 1 
latt-move-scale 1 1 1
latt-scale 1.55 1.55 1 
lattice  \
	   4.727486978767153   -2.363743489383575    0.000000000000000  \
	  -0.000000000000000    4.094123819672498    0.000000000000000  \
	   0.000000000000000    0.000000000000000   40.000000000000000 
lattice-minimize  \
	dirUpdateScheme      L-BFGS \
	linminMethod         DirUpdateRecommended \
	nIterations          0 \
	history              15 \
	knormThreshold       0 \
	energyDiffThreshold  1e-06 \
	nEnergyDiff          2 \
	alphaTstart          1 \
	alphaTmin            1e-10 \
	updateTestStepSize   yes \
	alphaTreduceFactor   0.1 \
	alphaTincreaseFactor 3 \
	nAlphaAdjustMax      3 \
	wolfeEnergy          0.0001 \
	wolfeGradient        0.9 \
	fdTest               no
lcao-params -1 1e-06 1e-05
pcm-variant GLSSA13
spintype no-spin
subspace-rotation-factor 1 yes
symmetries automatic
symmetry-threshold 0.0001



---------- Setting up symmetries ----------

Found 24 point-group symmetries of the bravais lattice
Found 24 space-group symmetries with basis
Applied RMS atom displacement 0 bohrs to make symmetries exact.

---------- Initializing the Grid ----------
R = 
[       7.3276      -3.6638            0  ]
[            0      6.34589            0  ]
[            0            0           40  ]
unit cell volume = 1860.01
G =
[   0.857468   0.495059         -0  ]
[          0   0.990119         -0  ]
[         -0         -0    0.15708  ]
Minimum fftbox size, Smin = [  36  36  184  ]
Chosen fftbox size, S = [  36  36  192  ]

---------- Initializing tighter grid for wavefunction operations ----------
R = 
[       7.3276      -3.6638            0  ]
[            0      6.34589            0  ]
[            0            0           40  ]
unit cell volume = 1860.01
G =
[   0.857468   0.495059         -0  ]
[          0   0.990119         -0  ]
[         -0         -0    0.15708  ]
Minimum fftbox size, Smin = [  32  32  164  ]
Chosen fftbox size, S = [  32  32  168  ]

---------- Exchange Correlation functional ----------
Initalized PBE GGA exchange.
Initalized PBE GGA correlation.

---------- Setting up pseudopotentials ----------
Width of ionic core gaussian charges (only for fluid interactions / plotting) set to 0

Reading pseudopotential file '/home/gridsan/aligho/DFT/build-Nov24/pseudopotentials/SG15/Rb_ONCV_PBE.upf':
  'Rb' pseudopotential, 'PBE' functional
  Generated using ONCVPSP code by D. R. Hamann
  Author: Martin Schlipf and Francois Gygi  Date: 150915.
  9 valence electrons, 3 orbitals, 6 projectors, 2308 radial grid points, with lMax = 2
  Transforming local potential to a uniform radial grid of dG=0.02 with 1723 points.
  Transforming nonlocal projectors to a uniform radial grid of dG=0.02 with 432 points.
    4S    l: 0   occupation:  2.0   eigenvalue: -1.172069
    4P    l: 1   occupation:  6.0   eigenvalue: -0.586674
    5S    l: 0   occupation:  1.0   eigenvalue: -0.082006
  Transforming atomic orbitals to a uniform radial grid of dG=0.02 with 432 points.
  Core radius for overlap checks: 2.60 bohrs.
  Reading pulay file /home/gridsan/aligho/DFT/build-Nov24/pseudopotentials/SG15/Rb_ONCV_PBE.pulay ... using dE_dnG = -1.360715e-05 computed for Ecut = 20.

Initialized 1 species with 1 total atoms.

Folded 1 k-points by 48x48x1 to 2304 k-points.

---------- Setting up k-points, bands, fillings ----------
Reduced to 217 k-points under symmetry. 
Computing the number of bands and number of electrons
Calculating initial fillings.
nElectrons:   9.000000   nBands: 6   nStates: 217

----- Setting up reduced wavefunction bases (one per k-point) -----
average nbasis = 7946.163 , ideal nbasis = 7946.094

---------- Setting up coulomb interaction ----------
Initialized slab truncation along lattice direction 001

---------- Setting up 2D ewald sum ----------
Optimum gaussian width for ewald sums = 4.067990 bohr.
Real space sums over 289 unit cells with max indices [  8  8  0  ]
Reciprocal space sums over 81 terms with max indices [  4  4  0  ]

---------- Allocating electronic variables ----------
Initializing wave functions:  linear combination of atomic orbitals
Note: number of bands (6) exceeds available atomic orbitals (5)
Rb pseudo-atom occupations:   s ( 2 1 )  p ( 6 )
	FillingsUpdate:  mu: -0.106150038  nElectrons: 9.000000
LCAOMinimize: Iter:   0  F: -24.4318615065130622  |grad|_K:  1.137e-05  alpha:  1.000e+00
[d-3-3-4:49117] 18 more processes have sent help message help-mpi-common-cuda.txt / dlopen failed
[d-3-3-4:49117] Set MCA parameter "orte_base_help_aggregate" to 0 to see all help / error messages
[d-3-3-4:49117] 18 more processes have sent help message help-mpi-btl-openib-cpc-base.txt / no cpcs for port
	FillingsUpdate:  mu: -0.106118814  nElectrons: 9.000000
LCAOMinimize: Iter:   1  F: -24.4318620025496180  |grad|_K:  1.640e-07  alpha:  9.834e-01  linmin: -4.703e-02  cgtest:  9.775e-01  t[s]:      7.02
LCAOMinimize: Encountered beta<0, resetting CG.
	FillingsUpdate:  mu: -0.106118253  nElectrons: 9.000000
LCAOMinimize: Iter:   2  F: -24.4318620026536131  |grad|_K:  1.416e-09  alpha:  9.910e-01  linmin: -5.010e-02  cgtest:  7.472e-01  t[s]:      9.42
LCAOMinimize: Encountered beta<0, resetting CG.
LCAOMinimize: Converged (|Delta F|<1.000000e-06 for 2 iters).


---- Citations for features of the code used in this run ----

   Software package:
      R. Sundararaman, K. Letchworth-Weaver, K.A. Schwarz, D. Gunceler, Y. Ozhabes and T.A. Arias, 'JDFTx: software for joint density-functional theory', SoftwareX 6, 278 (2017)

   gga-PBE exchange-correlation functional:
      J.P. Perdew, K. Burke and M. Ernzerhof, Phys. Rev. Lett. 77, 3865 (1996)

   Pseudopotentials:
      M Schlipf and F Gygi, Comput. Phys. Commun. 196, 36 (2015)

   Truncated Coulomb potentials:
      R. Sundararaman and T.A. Arias, Phys. Rev. B 87, 165122 (2013)

   Total energy minimization with Auxiliary Hamiltonian:
      C. Freysoldt, S. Boeck, and J. Neugebauer, Phys. Rev. B 79, 241103(R) (2009)

This list may not be complete. Please suggest additional citations or
report any other bugs at https://github.com/shankar1729/jdftx/issues

Initialization completed successfully at t[s]:      9.66


-------- Electronic minimization -----------
	FillingsUpdate:  mu: -0.106118253  nElectrons: 9.000000
ElecMinimize: Iter:   0  F: -24.431862002653570  |grad|_K:  1.447e-05  alpha:  1.000e+00
	FillingsUpdate:  mu: -0.103389245  nElectrons: 9.000000
	SubspaceRotationAdjust: set factor to 1
ElecMinimize: Iter:   1  F: -24.435085361951167  |grad|_K:  1.139e-05  alpha:  1.490e+00  linmin:  2.883e-04  t[s]:     14.68
	FillingsUpdate:  mu: -0.093896887  nElectrons: 9.000000
	SubspaceRotationAdjust: set factor to 1.04
ElecMinimize: Iter:   2  F: -24.437003339919190  |grad|_K:  9.685e-06  alpha:  1.433e+00  linmin:  2.435e-04  t[s]:     17.70
	FillingsUpdate:  mu: -0.093577752  nElectrons: 9.000000
	SubspaceRotationAdjust: set factor to 1.07
ElecMinimize: Iter:   3  F: -24.437078798701819  |grad|_K:  9.293e-06  alpha:  4.165e-02  linmin: -3.399e-03  t[s]:     20.76
ElecMinimize: 	Predicted alpha/alphaT>3.000000, increasing alphaT to 1.249460e-01.
ElecMinimize: 	Predicted alpha/alphaT>3.000000, increasing alphaT to 3.748379e-01.
	FillingsUpdate:  mu: -0.087258829  nElectrons: 9.000000
	SubspaceRotationAdjust: set factor to 0.952
ElecMinimize: Iter:   4  F: -24.437969927149638  |grad|_K:  7.141e-06  alpha:  5.674e-01  linmin:  1.644e-03  t[s]:     25.73
	FillingsUpdate:  mu: -0.087104690  nElectrons: 9.000000
	SubspaceRotationAdjust: set factor to 1.07
ElecMinimize: Iter:   5  F: -24.437978884953459  |grad|_K:  7.078e-06  alpha:  1.626e-02  linmin: -1.810e-03  t[s]:     28.80
ElecMinimize: 	Predicted alpha/alphaT>3.000000, increasing alphaT to 4.877900e-02.
ElecMinimize: 	Predicted alpha/alphaT>3.000000, increasing alphaT to 1.463370e-01.
ElecMinimize: 	Predicted alpha/alphaT>3.000000, increasing alphaT to 4.390110e-01.
ElecMinimize: 	Step increased F by 1.033841e-03, reducing alpha to 4.596198e-02.
	FillingsUpdate:  mu: -0.086623383  nElectrons: 9.000000
	SubspaceRotationAdjust: set factor to 1.22
ElecMinimize: Iter:   6  F: -24.438047108877321  |grad|_K:  6.714e-06  alpha:  4.596e-02  linmin: -5.199e-03  t[s]:     35.78
ElecMinimize: 	Predicted alpha/alphaT>3.000000, increasing alphaT to 1.378859e-01.
	FillingsUpdate:  mu: -0.083014186  nElectrons: 9.000000
	SubspaceRotationAdjust: set factor to 1.59
ElecMinimize: Iter:   7  F: -24.438432204311788  |grad|_K:  4.982e-06  alpha:  3.596e-01  linmin:  7.773e-04  t[s]:     39.78
	FillingsUpdate:  mu: -0.082872698  nElectrons: 9.000000
	SubspaceRotationAdjust: set factor to 2.11
ElecMinimize: Iter:   8  F: -24.438444888303962  |grad|_K:  5.184e-06  alpha:  2.992e-02  linmin: -5.071e-03  t[s]:     42.86
ElecMinimize: 	Predicted alpha/alphaT>3.000000, increasing alphaT to 8.976680e-02.
ElecMinimize: 	Predicted alpha/alphaT>3.000000, increasing alphaT to 2.693004e-01.
	FillingsUpdate:  mu: -0.081913328  nElectrons: 9.000000
	SubspaceRotationAdjust: set factor to 2.16
ElecMinimize: Iter:   9  F: -24.438629571257941  |grad|_K:  3.940e-06  alpha:  3.607e-01  linmin: -1.062e-03  t[s]:     47.84
	FillingsUpdate:  mu: -0.081324002  nElectrons: 9.000000
	SubspaceRotationAdjust: set factor to 2.41
ElecMinimize: Iter:  10  F: -24.438708915107359  |grad|_K:  3.611e-06  alpha:  4.248e-01  linmin: -1.667e-04  t[s]:     50.89
	FillingsUpdate:  mu: -0.079821160  nElectrons: 9.000000
	SubspaceRotationAdjust: set factor to 3.03
ElecMinimize: Iter:  11  F: -24.438765770483794  |grad|_K:  3.313e-06  alpha:  4.113e-01  linmin:  2.474e-05  t[s]:     53.91
	FillingsUpdate:  mu: -0.077890947  nElectrons: 9.000000
	SubspaceRotationAdjust: set factor to 3.03
ElecMinimize: Iter:  12  F: -24.438804541377632  |grad|_K:  2.931e-06  alpha:  3.378e-01  linmin:  2.210e-04  t[s]:     56.97
	FillingsUpdate:  mu: -0.076685636  nElectrons: 9.000000
	SubspaceRotationAdjust: set factor to 3.4
ElecMinimize: Iter:  13  F: -24.438830439019434  |grad|_K:  2.794e-06  alpha:  2.967e-01  linmin:  1.260e-04  t[s]:     59.99
	FillingsUpdate:  mu: -0.076671533  nElectrons: 9.000000
	SubspaceRotationAdjust: set factor to 3.85
ElecMinimize: Iter:  14  F: -24.438833765027667  |grad|_K:  2.789e-06  alpha:  2.197e-02  linmin: -3.361e-03  t[s]:     63.03
ElecMinimize: 	Predicted alpha/alphaT>3.000000, increasing alphaT to 6.590866e-02.
ElecMinimize: 	Predicted alpha/alphaT>3.000000, increasing alphaT to 1.977260e-01.
ElecMinimize: 	Step increased F by 5.278352e-05, reducing alpha to 2.278614e-02.
	FillingsUpdate:  mu: -0.076740178  nElectrons: 9.000000
	SubspaceRotationAdjust: set factor to 4.35
ElecMinimize: Iter:  15  F: -24.438840381642660  |grad|_K:  2.633e-06  alpha:  2.279e-02  linmin: -5.206e-03  t[s]:     70.02
ElecMinimize: 	Predicted alpha/alphaT>3.000000, increasing alphaT to 6.835842e-02.
	FillingsUpdate:  mu: -0.077785673  nElectrons: 9.000000
	SubspaceRotationAdjust: set factor to 2.93
ElecMinimize: Iter:  16  F: -24.438871852241235  |grad|_K:  1.643e-06  alpha:  1.585e-01  linmin: -4.482e-04  t[s]:     74.02
	FillingsUpdate:  mu: -0.077964400  nElectrons: 9.000000
	SubspaceRotationAdjust: set factor to 3.51
ElecMinimize: Iter:  17  F: -24.438880446125417  |grad|_K:  1.830e-06  alpha:  2.762e-01  linmin:  3.848e-05  t[s]:     77.04
	FillingsUpdate:  mu: -0.077707547  nElectrons: 9.000000
	SubspaceRotationAdjust: set factor to 4.83
ElecMinimize: Iter:  18  F: -24.438888313627324  |grad|_K:  1.888e-06  alpha:  1.945e-01  linmin: -3.504e-04  t[s]:     80.04
	FillingsUpdate:  mu: -0.077051405  nElectrons: 9.000000
	SubspaceRotationAdjust: set factor to 5.99
ElecMinimize: Iter:  19  F: -24.438893858850740  |grad|_K:  1.785e-06  alpha:  1.480e-01  linmin: -5.110e-04  t[s]:     83.09
	FillingsUpdate:  mu: -0.076844761  nElectrons: 9.000000
	SubspaceRotationAdjust: set factor to 6.11
ElecMinimize: Iter:  20  F: -24.438900371407733  |grad|_K:  1.778e-06  alpha:  1.851e-01  linmin:  1.837e-03  t[s]:     86.15
	FillingsUpdate:  mu: -0.077010872  nElectrons: 9.000000
	SubspaceRotationAdjust: set factor to 6.15
ElecMinimize: Iter:  21  F: -24.438902782199065  |grad|_K:  1.721e-06  alpha:  1.118e-01  linmin:  3.376e-06  t[s]:     89.23
	FillingsUpdate:  mu: -0.077545360  nElectrons: 9.000000
	SubspaceRotationAdjust: set factor to 7.38
ElecMinimize: Iter:  22  F: -24.438906404331480  |grad|_K:  1.385e-06  alpha:  1.183e-01  linmin:  1.739e-05  t[s]:     92.26
	FillingsUpdate:  mu: -0.077957453  nElectrons: 9.000000
	SubspaceRotationAdjust: set factor to 7.72
	SubspaceRotationAdjust: resetting CG because factor has changed by 7.7217
ElecMinimize: 	State modified externally: resetting search direction.
ElecMinimize: Iter:  23  F: -24.438909299234705  |grad|_K:  1.560e-06  alpha:  1.469e-01
	FillingsUpdate:  mu: -0.077203175  nElectrons: 9.000000
	SubspaceRotationAdjust: set factor to 6.37
ElecMinimize: Iter:  24  F: -24.438915368137710  |grad|_K:  1.403e-06  alpha:  2.351e-01  linmin:  1.001e-04  t[s]:    100.12
	FillingsUpdate:  mu: -0.077702442  nElectrons: 9.000000
	SubspaceRotationAdjust: set factor to 7.07
ElecMinimize: Iter:  25  F: -24.438925036464791  |grad|_K:  8.625e-07  alpha:  4.796e-01  linmin: -3.979e-04  t[s]:    103.15
	FillingsUpdate:  mu: -0.077811104  nElectrons: 9.000000
	SubspaceRotationAdjust: set factor to 4.85
ElecMinimize: Iter:  26  F: -24.438928728664042  |grad|_K:  9.331e-07  alpha:  4.600e-01  linmin: -7.126e-05  t[s]:    106.25
	FillingsUpdate:  mu: -0.077802767  nElectrons: 9.000000
	SubspaceRotationAdjust: set factor to 3.68
ElecMinimize: Iter:  27  F: -24.438931677398077  |grad|_K:  4.439e-07  alpha:  3.203e-01  linmin: -1.217e-04  t[s]:    109.30
	FillingsUpdate:  mu: -0.078154540  nElectrons: 9.000000
	SubspaceRotationAdjust: set factor to 3.34
ElecMinimize: Iter:  28  F: -24.438933367819221  |grad|_K:  5.100e-07  alpha:  8.172e-01  linmin:  2.120e-05  t[s]:    112.38
	FillingsUpdate:  mu: -0.078119220  nElectrons: 9.000000
	SubspaceRotationAdjust: set factor to 2.43
ElecMinimize: Iter:  29  F: -24.438935281996809  |grad|_K:  4.608e-07  alpha:  7.107e-01  linmin:  1.293e-05  t[s]:    115.40
	FillingsUpdate:  mu: -0.078265337  nElectrons: 9.000000
	SubspaceRotationAdjust: set factor to 3.07
ElecMinimize: Iter:  30  F: -24.438936685640648  |grad|_K:  3.441e-07  alpha:  6.398e-01  linmin:  2.785e-05  t[s]:    118.44
	FillingsUpdate:  mu: -0.078575695  nElectrons: 9.000000
	SubspaceRotationAdjust: set factor to 2.49
ElecMinimize: Iter:  31  F: -24.438937647417212  |grad|_K:  2.959e-07  alpha:  7.773e-01  linmin: -3.455e-04  t[s]:    121.50
	FillingsUpdate:  mu: -0.078515738  nElectrons: 9.000000
	SubspaceRotationAdjust: set factor to 2.15
ElecMinimize: Iter:  32  F: -24.438938208701551  |grad|_K:  1.792e-07  alpha:  5.802e-01  linmin:  2.450e-05  t[s]:    124.52
	FillingsUpdate:  mu: -0.078503044  nElectrons: 9.000000
	SubspaceRotationAdjust: set factor to 2.07
ElecMinimize: Iter:  33  F: -24.438938495471614  |grad|_K:  1.645e-07  alpha:  8.676e-01  linmin:  3.306e-05  t[s]:    127.56
	FillingsUpdate:  mu: -0.078627517  nElectrons: 9.000000
	SubspaceRotationAdjust: set factor to 1.9
ElecMinimize: Iter:  34  F: -24.438938776387690  |grad|_K:  1.473e-07  alpha:  1.004e+00  linmin: -1.156e-04  t[s]:    130.62
	FillingsUpdate:  mu: -0.078562816  nElectrons: 9.000000
	SubspaceRotationAdjust: set factor to 1.73
ElecMinimize: Iter:  35  F: -24.438938964729267  |grad|_K:  1.222e-07  alpha:  8.147e-01  linmin:  3.470e-05  t[s]:    133.67
	FillingsUpdate:  mu: -0.078483210  nElectrons: 9.000000
	SubspaceRotationAdjust: set factor to 1.87
ElecMinimize: Iter:  36  F: -24.438939115144066  |grad|_K:  1.103e-07  alpha:  9.809e-01  linmin:  1.325e-05  t[s]:    136.72
	FillingsUpdate:  mu: -0.078518962  nElectrons: 9.000000
	SubspaceRotationAdjust: set factor to 1.66
ElecMinimize: Iter:  37  F: -24.438939222854117  |grad|_K:  9.055e-08  alpha:  8.593e-01  linmin: -7.829e-06  t[s]:    139.82
	FillingsUpdate:  mu: -0.078501129  nElectrons: 9.000000
	SubspaceRotationAdjust: set factor to 1.89
ElecMinimize: Iter:  38  F: -24.438939300712310  |grad|_K:  6.940e-08  alpha:  9.158e-01  linmin:  2.312e-06  t[s]:    142.87
	FillingsUpdate:  mu: -0.078449129  nElectrons: 9.000000
	SubspaceRotationAdjust: set factor to 1.72
ElecMinimize: Iter:  39  F: -24.438939334085912  |grad|_K:  4.311e-08  alpha:  6.675e-01  linmin:  6.686e-06  t[s]:    145.90
	FillingsUpdate:  mu: -0.078430126  nElectrons: 9.000000
	SubspaceRotationAdjust: set factor to 1.8
ElecMinimize: Iter:  40  F: -24.438939351544359  |grad|_K:  3.415e-08  alpha:  9.086e-01  linmin: -1.947e-06  t[s]:    148.94
	FillingsUpdate:  mu: -0.078432089  nElectrons: 9.000000
	SubspaceRotationAdjust: set factor to 1.77
ElecMinimize: Iter:  41  F: -24.438939360421355  |grad|_K:  2.372e-08  alpha:  7.358e-01  linmin: -3.487e-06  t[s]:    151.96
	FillingsUpdate:  mu: -0.078421534  nElectrons: 9.000000
	SubspaceRotationAdjust: set factor to 1.75
ElecMinimize: Iter:  42  F: -24.438939365867586  |grad|_K:  1.930e-08  alpha:  9.350e-01  linmin:  4.769e-06  t[s]:    155.00
ElecMinimize: Converged (|Delta F|<1.000000e-08 for 2 iters).
Setting wave functions to eigenvectors of Hamiltonian

# Ionic positions in lattice coordinates:
ion Rb   0.000000000000000   0.000000000000000   0.000000000000000 0

# Forces in Lattice coordinates:
force Rb   0.000000000000000  -0.000000000000000   0.000000000000000 0

# Energy components:
   Eewald =      -23.2877756133324638
       EH =       -3.6685543975035038
     Eloc =       -0.0313847620967286
      Enl =       -0.7818873897864251
   Epulay =        0.0000000005037120
      Exc =       -3.7100505203908409
       KE =        7.0407134797727338
-------------------------------------
     Etot =      -24.4389392028335166
       TS =        0.0000001630340685
-------------------------------------
        F =      -24.4389393658675864

IonicMinimize: Iter:   0  F: -24.438939365867586  |grad|_K:  0.000e+00  t[s]:    155.32
IonicMinimize: Converged (|grad|_K<1.000000e-04).

#--- Lowdin population analysis ---
# oxidation-state Rb +0.041

End date and time: Sun Jan 16 15:51:26 2022  (Duration: 0-0:02:35.38)
Done!
