1.31
--------------------------------------------------------------------------
The library attempted to open the following supporting CUDA libraries,
but each of them failed.  CUDA-aware support is disabled.
libcuda.so.1: cannot open shared object file: No such file or directory
libcuda.dylib: cannot open shared object file: No such file or directory
/usr/lib64/libcuda.so.1: cannot open shared object file: No such file or directory
/usr/lib64/libcuda.dylib: cannot open shared object file: No such file or directory
If you are not interested in CUDA-aware support, then run with
--mca opal_warn_on_missing_libcuda 0 to suppress this message.  If you are interested
in CUDA-aware support, then try setting LD_LIBRARY_PATH to the location
of libcuda.so.1 to get passed this issue.
--------------------------------------------------------------------------
--------------------------------------------------------------------------
No OpenFabrics connection schemes reported that they were able to be
used on a specific port.  As such, the openib BTL (OpenFabrics
support) will be disabled for this port.

  Local host:           d-5-3-1
  Local device:         mlx5_1
  Local port:           1
  CPCs attempted:       rdmacm, udcm
--------------------------------------------------------------------------

*************** JDFTx 1.6.0 (git hash 42ebbcc2) ***************

Start date and time: Sun Jan 16 15:47:43 2022
Executable jdftx with command-line: -i Rubidium.in
Running on hosts (process indices):  d-5-3-1 (0-18)
Divided in process groups (process indices):  0 (0)  1 (1)  2 (2)  3 (3)  4 (4)  5 (5)  6 (6)  7 (7)  8 (8)  9 (9)  10 (10)  11 (11)  12 (12)  13 (13)  14 (14)  15 (15)  16 (16)  17 (17)  18 (18)
Resource initialization completed at t[s]:      0.00
Run totals: 19 processes, 48 threads, 0 GPUs


Input parsed successfully to the following command list (including defaults):

basis kpoint-dependent
coords-type Lattice
core-overlap-check vector
coulomb-interaction Slab 001
davidson-band-ratio 1.1
dump End None
dump-name $INPUT.$VAR
elec-cutoff 20 100
elec-eigen-algo Davidson
elec-ex-corr gga-PBE
elec-smearing Fermi 1e-05
electronic-minimize  \
	dirUpdateScheme      FletcherReeves \
	linminMethod         DirUpdateRecommended \
	nIterations          10000 \
	history              15 \
	knormThreshold       0 \
	energyDiffThreshold  1e-08 \
	nEnergyDiff          2 \
	alphaTstart          1 \
	alphaTmin            1e-10 \
	updateTestStepSize   yes \
	alphaTreduceFactor   0.1 \
	alphaTincreaseFactor 3 \
	nAlphaAdjustMax      3 \
	wolfeEnergy          0.0001 \
	wolfeGradient        0.9 \
	fdTest               no
exchange-regularization WignerSeitzTruncated
fluid None
fluid-ex-corr (null) lda-PZ
fluid-gummel-loop 10 1.000000e-05
fluid-minimize  \
	dirUpdateScheme      PolakRibiere \
	linminMethod         DirUpdateRecommended \
	nIterations          100 \
	history              15 \
	knormThreshold       0 \
	energyDiffThreshold  0 \
	nEnergyDiff          2 \
	alphaTstart          1 \
	alphaTmin            1e-10 \
	updateTestStepSize   yes \
	alphaTreduceFactor   0.1 \
	alphaTincreaseFactor 3 \
	nAlphaAdjustMax      3 \
	wolfeEnergy          0.0001 \
	wolfeGradient        0.9 \
	fdTest               no
fluid-solvent H2O 55.338 ScalarEOS \
	epsBulk 78.4 \
	pMol 0.92466 \
	epsInf 1.77 \
	Pvap 1.06736e-10 \
	sigmaBulk 4.62e-05 \
	Rvdw 2.61727 \
	Res 1.42 \
	tauNuc 343133 \
	poleEl 15 7 1
forces-output-coords Positions
ion Rb   0.000000000000000   0.000000000000000   0.000000000000000 0
ion-species SG15/$ID_ONCV_PBE.upf
ion-width 0
ionic-minimize  \
	dirUpdateScheme      L-BFGS \
	linminMethod         DirUpdateRecommended \
	nIterations          0 \
	history              15 \
	knormThreshold       0.0001 \
	energyDiffThreshold  1e-06 \
	nEnergyDiff          2 \
	alphaTstart          1 \
	alphaTmin            1e-10 \
	updateTestStepSize   yes \
	alphaTreduceFactor   0.1 \
	alphaTincreaseFactor 3 \
	nAlphaAdjustMax      3 \
	wolfeEnergy          0.0001 \
	wolfeGradient        0.9 \
	fdTest               no
kpoint   0.000000000000   0.000000000000   0.000000000000  1.00000000000000
kpoint-folding 48 48 1 
latt-move-scale 1 1 1
latt-scale 1.31 1.31 1 
lattice  \
	   4.727486978767153   -2.363743489383574    0.000000000000000  \
	  -0.000000000000000    4.094123819672497    0.000000000000000  \
	   0.000000000000000    0.000000000000000   40.000000000000000 
lattice-minimize  \
	dirUpdateScheme      L-BFGS \
	linminMethod         DirUpdateRecommended \
	nIterations          0 \
	history              15 \
	knormThreshold       0 \
	energyDiffThreshold  1e-06 \
	nEnergyDiff          2 \
	alphaTstart          1 \
	alphaTmin            1e-10 \
	updateTestStepSize   yes \
	alphaTreduceFactor   0.1 \
	alphaTincreaseFactor 3 \
	nAlphaAdjustMax      3 \
	wolfeEnergy          0.0001 \
	wolfeGradient        0.9 \
	fdTest               no
lcao-params -1 1e-06 1e-05
pcm-variant GLSSA13
spintype no-spin
subspace-rotation-factor 1 yes
symmetries automatic
symmetry-threshold 0.0001



---------- Setting up symmetries ----------

Found 24 point-group symmetries of the bravais lattice
Found 24 space-group symmetries with basis
Applied RMS atom displacement 0 bohrs to make symmetries exact.

---------- Initializing the Grid ----------
R = 
[      6.19301      -3.0965            0  ]
[            0       5.3633            0  ]
[            0            0           40  ]
unit cell volume = 1328.6
G =
[    1.01456   0.585757         -0  ]
[          0    1.17151         -0  ]
[         -0         -0    0.15708  ]
Minimum fftbox size, Smin = [  28  28  184  ]
Chosen fftbox size, S = [  28  28  192  ]

---------- Initializing tighter grid for wavefunction operations ----------
R = 
[      6.19301      -3.0965            0  ]
[            0       5.3633            0  ]
[            0            0           40  ]
unit cell volume = 1328.6
G =
[    1.01456   0.585757         -0  ]
[          0    1.17151         -0  ]
[         -0         -0    0.15708  ]
Minimum fftbox size, Smin = [  28  28  164  ]
Chosen fftbox size, S = [  28  28  168  ]

---------- Exchange Correlation functional ----------
Initalized PBE GGA exchange.
Initalized PBE GGA correlation.

---------- Setting up pseudopotentials ----------
Width of ionic core gaussian charges (only for fluid interactions / plotting) set to 0

Reading pseudopotential file '/home/gridsan/aligho/DFT/build-Nov24/pseudopotentials/SG15/Rb_ONCV_PBE.upf':
  'Rb' pseudopotential, 'PBE' functional
  Generated using ONCVPSP code by D. R. Hamann
  Author: Martin Schlipf and Francois Gygi  Date: 150915.
  9 valence electrons, 3 orbitals, 6 projectors, 2308 radial grid points, with lMax = 2
  Transforming local potential to a uniform radial grid of dG=0.02 with 1614 points.
  Transforming nonlocal projectors to a uniform radial grid of dG=0.02 with 432 points.
    4S    l: 0   occupation:  2.0   eigenvalue: -1.172069
    4P    l: 1   occupation:  6.0   eigenvalue: -0.586674
    5S    l: 0   occupation:  1.0   eigenvalue: -0.082006
  Transforming atomic orbitals to a uniform radial grid of dG=0.02 with 432 points.
  Core radius for overlap checks: 2.60 bohrs.
  Reading pulay file /home/gridsan/aligho/DFT/build-Nov24/pseudopotentials/SG15/Rb_ONCV_PBE.pulay ... using dE_dnG = -1.360715e-05 computed for Ecut = 20.

Initialized 1 species with 1 total atoms.

Folded 1 k-points by 48x48x1 to 2304 k-points.

---------- Setting up k-points, bands, fillings ----------
Reduced to 217 k-points under symmetry. 
Computing the number of bands and number of electrons
Calculating initial fillings.
nElectrons:   9.000000   nBands: 6   nStates: 217

----- Setting up reduced wavefunction bases (one per k-point) -----
average nbasis = 5675.983 , ideal nbasis = 5675.876

---------- Setting up coulomb interaction ----------
Initialized slab truncation along lattice direction 001

---------- Setting up 2D ewald sum ----------
Optimum gaussian width for ewald sums = 3.438108 bohr.
Real space sums over 289 unit cells with max indices [  8  8  0  ]
Reciprocal space sums over 81 terms with max indices [  4  4  0  ]

---------- Allocating electronic variables ----------
Initializing wave functions:  linear combination of atomic orbitals
Note: number of bands (6) exceeds available atomic orbitals (5)
Rb pseudo-atom occupations:   s ( 2 1 )  p ( 6 )
	FillingsUpdate:  mu: -0.113911866  nElectrons: 9.000000
LCAOMinimize: Iter:   0  F: -24.3774556855312809  |grad|_K:  4.346e-05  alpha:  1.000e+00
[d-5-3-1:82940] 18 more processes have sent help message help-mpi-common-cuda.txt / dlopen failed
[d-5-3-1:82940] Set MCA parameter "orte_base_help_aggregate" to 0 to see all help / error messages
[d-5-3-1:82940] 18 more processes have sent help message help-mpi-btl-openib-cpc-base.txt / no cpcs for port
	FillingsUpdate:  mu: -0.113680565  nElectrons: 9.000000
LCAOMinimize: Iter:   1  F: -24.3774626564665837  |grad|_K:  1.788e-06  alpha:  9.489e-01  linmin: -5.019e-02  cgtest:  1.015e+00  t[s]:      5.82
LCAOMinimize: Encountered beta<0, resetting CG.
	FillingsUpdate:  mu: -0.113672841  nElectrons: 9.000000
LCAOMinimize: Iter:   2  F: -24.3774626688838616  |grad|_K:  6.595e-09  alpha:  9.943e-01  linmin: -3.461e-02  cgtest:  5.401e-01  t[s]:      7.83
LCAOMinimize: Encountered beta<0, resetting CG.
LCAOMinimize: 	Step increased F by 1.953993e-13, reducing alpha to 1.630249e-01.
	FillingsUpdate:  mu: -0.113672842  nElectrons: 9.000000
LCAOMinimize: Iter:   3  F: -24.3774626688839433  |grad|_K:  5.496e-09  alpha:  1.630e-01  linmin: -4.598e-02  cgtest:  1.000e+00  t[s]:     11.19
LCAOMinimize: Encountered beta<0, resetting CG.
LCAOMinimize: Converged (|Delta F|<1.000000e-06 for 2 iters).


---- Citations for features of the code used in this run ----

   Software package:
      R. Sundararaman, K. Letchworth-Weaver, K.A. Schwarz, D. Gunceler, Y. Ozhabes and T.A. Arias, 'JDFTx: software for joint density-functional theory', SoftwareX 6, 278 (2017)

   gga-PBE exchange-correlation functional:
      J.P. Perdew, K. Burke and M. Ernzerhof, Phys. Rev. Lett. 77, 3865 (1996)

   Pseudopotentials:
      M Schlipf and F Gygi, Comput. Phys. Commun. 196, 36 (2015)

   Truncated Coulomb potentials:
      R. Sundararaman and T.A. Arias, Phys. Rev. B 87, 165122 (2013)

   Total energy minimization with Auxiliary Hamiltonian:
      C. Freysoldt, S. Boeck, and J. Neugebauer, Phys. Rev. B 79, 241103(R) (2009)

This list may not be complete. Please suggest additional citations or
report any other bugs at https://github.com/shankar1729/jdftx/issues

Initialization completed successfully at t[s]:     11.37


-------- Electronic minimization -----------
	FillingsUpdate:  mu: -0.113672842  nElectrons: 9.000000
ElecMinimize: Iter:   0  F: -24.377462668883936  |grad|_K:  3.117e-05  alpha:  1.000e+00
	FillingsUpdate:  mu: -0.109020743  nElectrons: 9.000000
	SubspaceRotationAdjust: set factor to 1
ElecMinimize: Iter:   1  F: -24.385348210800966  |grad|_K:  1.854e-05  alpha:  1.099e+00  linmin:  2.441e-04  t[s]:     15.46
	FillingsUpdate:  mu: -0.104286899  nElectrons: 9.000000
	SubspaceRotationAdjust: set factor to 1.06
ElecMinimize: Iter:   2  F: -24.388893419212934  |grad|_K:  1.734e-05  alpha:  1.397e+00  linmin:  2.171e-04  t[s]:     17.94
	FillingsUpdate:  mu: -0.104100114  nElectrons: 9.000000
	SubspaceRotationAdjust: set factor to 1.12
ElecMinimize: Iter:   3  F: -24.389088892715797  |grad|_K:  1.664e-05  alpha:  3.895e-02  linmin: -4.604e-03  t[s]:     20.48
ElecMinimize: 	Wrong curvature in test step, increasing alphaT to 1.168432e-01.
	FillingsUpdate:  mu: -0.103687623  nElectrons: 9.000000
	SubspaceRotationAdjust: set factor to 1.06
ElecMinimize: Iter:   4  F: -24.389408088516134  |grad|_K:  2.184e-05  alpha: -4.315e-01  linmin: -5.107e-03  t[s]:     22.82
	FillingsUpdate:  mu: -0.102933775  nElectrons: 9.000000
	SubspaceRotationAdjust: set factor to 1.18
ElecMinimize: Iter:   5  F: -24.389915756194583  |grad|_K:  1.395e-05  alpha:  2.731e-02  linmin: -8.387e-03  t[s]:     25.34
ElecMinimize: 	Wrong curvature in test step, increasing alphaT to 8.193668e-02.
	FillingsUpdate:  mu: -0.102770773  nElectrons: 9.000000
	SubspaceRotationAdjust: set factor to 1.27
ElecMinimize: Iter:   6  F: -24.390185139004966  |grad|_K:  1.284e-05  alpha: -2.337e-01  linmin: -8.708e-03  t[s]:     27.67
	FillingsUpdate:  mu: -0.102660499  nElectrons: 9.000000
	SubspaceRotationAdjust: set factor to 1.38
ElecMinimize: Iter:   7  F: -24.390302953769520  |grad|_K:  1.243e-05  alpha:  1.199e-02  linmin: -8.792e-03  t[s]:     30.16
ElecMinimize: 	Predicted alpha/alphaT>3.000000, increasing alphaT to 3.597611e-02.
ElecMinimize: 	Predicted alpha/alphaT>3.000000, increasing alphaT to 1.079283e-01.
ElecMinimize: 	Predicted alpha/alphaT>3.000000, increasing alphaT to 3.237850e-01.
ElecMinimize: 	Step increased F by 5.713539e-01, reducing alpha to 1.068319e-01.
	FillingsUpdate:  mu: -0.101845707  nElectrons: 9.000000
	SubspaceRotationAdjust: set factor to 1.61
ElecMinimize: Iter:   8  F: -24.391407571428694  |grad|_K:  1.240e-05  alpha:  1.068e-01  linmin: -6.491e-03  t[s]:     35.86
	FillingsUpdate:  mu: -0.097171063  nElectrons: 9.000000
	SubspaceRotationAdjust: set factor to 1.52
ElecMinimize: Iter:   9  F: -24.392380273264099  |grad|_K:  1.701e-05  alpha:  1.518e-01  linmin:  1.015e-03  t[s]:     38.35
	FillingsUpdate:  mu: -0.097170306  nElectrons: 9.000000
	SubspaceRotationAdjust: set factor to 1.62
ElecMinimize: Iter:  10  F: -24.392380277625168  |grad|_K:  1.691e-05  alpha:  2.553e-05  linmin: -4.082e-05  t[s]:     40.86
ElecMinimize: 	Predicted alpha/alphaT>3.000000, increasing alphaT to 7.660466e-05.
ElecMinimize: 	Predicted alpha/alphaT>3.000000, increasing alphaT to 2.298140e-04.
ElecMinimize: 	Predicted alpha/alphaT>3.000000, increasing alphaT to 6.894420e-04.
ElecMinimize: 	Step increased F by 3.063196e-04, reducing alpha to 1.216657e-03.
	FillingsUpdate:  mu: -0.097144738  nElectrons: 9.000000
	SubspaceRotationAdjust: set factor to 1.73
ElecMinimize: Iter:  11  F: -24.392385349472679  |grad|_K:  1.709e-05  alpha:  1.217e-03  linmin: -9.812e-04  t[s]:     46.58
ElecMinimize: 	Predicted alpha/alphaT>3.000000, increasing alphaT to 3.649972e-03.
ElecMinimize: 	Predicted alpha/alphaT>3.000000, increasing alphaT to 1.094992e-02.
	FillingsUpdate:  mu: -0.096064350  nElectrons: 9.000000
	SubspaceRotationAdjust: set factor to 1.87
ElecMinimize: Iter:  12  F: -24.392423046945513  |grad|_K:  1.864e-05  alpha:  1.011e-02  linmin: -1.170e-03  t[s]:     50.63
ElecMinimize: 	Step increased F by 2.705322e-04, reducing alpha to 1.801926e-04.
	FillingsUpdate:  mu: -0.096061403  nElectrons: 9.000000
	SubspaceRotationAdjust: set factor to 2.07
ElecMinimize: Iter:  13  F: -24.392425081161011  |grad|_K:  1.873e-05  alpha:  1.802e-04  linmin: -2.138e-03  t[s]:     54.82
ElecMinimize: 	Predicted alpha/alphaT>3.000000, increasing alphaT to 5.405778e-04.
ElecMinimize: 	Predicted alpha/alphaT>3.000000, increasing alphaT to 1.621734e-03.
ElecMinimize: 	Step increased F by 9.929216e-05, reducing alpha to 1.751381e-04.
	FillingsUpdate:  mu: -0.096060196  nElectrons: 9.000000
	SubspaceRotationAdjust: set factor to 2.31
ElecMinimize: Iter:  14  F: -24.392427973515002  |grad|_K:  1.886e-05  alpha:  1.751e-04  linmin: -3.126e-03  t[s]:     60.56
ElecMinimize: 	Predicted alpha/alphaT>3.000000, increasing alphaT to 5.254143e-04.
ElecMinimize: 	Predicted alpha/alphaT>3.000000, increasing alphaT to 1.576243e-03.
ElecMinimize: 	Predicted alpha/alphaT>3.000000, increasing alphaT to 4.728729e-03.
ElecMinimize: 	Step increased F by 2.135374e-04, reducing alpha to 2.199147e-03.
	FillingsUpdate:  mu: -0.095814298  nElectrons: 9.000000
	SubspaceRotationAdjust: set factor to 1.18
ElecMinimize: Iter:  15  F: -24.392433756218665  |grad|_K:  1.351e-04  alpha:  2.199e-03  linmin:  1.133e-02  t[s]:     66.27
ElecMinimize: 	Bad step direction: g.d > 0.
ElecMinimize: 	Undoing step.
ElecMinimize: 	Step failed: resetting search direction.
	FillingsUpdate:  mu: -0.095814298  nElectrons: 9.000000
	SubspaceRotationAdjust: set factor to 0.609
ElecMinimize: Iter:  16  F: -24.392433756218662  |grad|_K:  9.717e-05  alpha:  0.000e+00
	FillingsUpdate:  mu: -0.095458061  nElectrons: 9.000000
	SubspaceRotationAdjust: set factor to 0.677
ElecMinimize: Iter:  17  F: -24.392473342298917  |grad|_K:  1.820e-05  alpha:  1.285e-03  linmin: -4.807e-02  t[s]:     70.53
ElecMinimize: 	Predicted alpha/alphaT>3.000000, increasing alphaT to 3.853818e-03.
ElecMinimize: 	Predicted alpha/alphaT>3.000000, increasing alphaT to 1.156145e-02.
ElecMinimize: 	Predicted alpha/alphaT>3.000000, increasing alphaT to 3.468436e-02.
	FillingsUpdate:  mu: -0.096428130  nElectrons: 9.000000
	SubspaceRotationAdjust: set factor to 0.706
ElecMinimize: Iter:  18  F: -24.393517600449822  |grad|_K:  1.000e-05  alpha:  2.854e-01  linmin: -6.822e-02  t[s]:     74.55
	FillingsUpdate:  mu: -0.096898679  nElectrons: 9.000000
	SubspaceRotationAdjust: set factor to 0.721
ElecMinimize: Iter:  19  F: -24.394197186872109  |grad|_K:  1.082e-05  alpha:  6.077e-01  linmin: -1.905e-03  t[s]:     77.02
ElecMinimize: 	Predicted alpha/alphaT>3.000000, increasing alphaT to 1.823039e+00.
	FillingsUpdate:  mu: -0.096980155  nElectrons: 9.000000
	SubspaceRotationAdjust: set factor to 0.769
ElecMinimize: Iter:  20  F: -24.395389915975880  |grad|_K:  1.831e-05  alpha:  9.978e-01  linmin: -1.557e-03  t[s]:     80.27
	FillingsUpdate:  mu: -0.097176027  nElectrons: 9.000000
	SubspaceRotationAdjust: set factor to 0.881
ElecMinimize: Iter:  21  F: -24.395575994595387  |grad|_K:  1.802e-05  alpha:  3.523e-02  linmin: -9.962e-03  t[s]:     82.76
	FillingsUpdate:  mu: -0.096252348  nElectrons: 9.000000
	SubspaceRotationAdjust: set factor to 0.911
ElecMinimize: Iter:  22  F: -24.396262028535396  |grad|_K:  1.411e-05  alpha:  7.976e-02  linmin: -1.489e-02  t[s]:     85.31
ElecMinimize: 	Predicted alpha/alphaT>3.000000, increasing alphaT to 2.392842e-01.
	FillingsUpdate:  mu: -0.091649538  nElectrons: 9.000000
	SubspaceRotationAdjust: set factor to 0.927
ElecMinimize: Iter:  23  F: -24.397300367310702  |grad|_K:  1.093e-05  alpha:  3.030e-01  linmin:  1.354e-02  t[s]:     88.57
ElecMinimize: 	Bad step direction: g.d > 0.
ElecMinimize: 	Undoing step.
ElecMinimize: 	Step failed: resetting search direction.
	FillingsUpdate:  mu: -0.091649538  nElectrons: 9.000000
	SubspaceRotationAdjust: set factor to 1.1
ElecMinimize: Iter:  24  F: -24.397300367310716  |grad|_K:  1.084e-05  alpha:  0.000e+00
	FillingsUpdate:  mu: -0.088882075  nElectrons: 9.000000
	SubspaceRotationAdjust: set factor to 1.24
ElecMinimize: Iter:  25  F: -24.397937390082824  |grad|_K:  6.385e-06  alpha:  7.254e-01  linmin:  8.862e-04  t[s]:     92.81
ElecMinimize: 	Step increased F by 2.116225e-04, reducing alpha to 1.203724e-01.
	FillingsUpdate:  mu: -0.088793847  nElectrons: 9.000000
	SubspaceRotationAdjust: set factor to 1.34
ElecMinimize: Iter:  26  F: -24.398005285923450  |grad|_K:  5.769e-06  alpha:  1.204e-01  linmin: -1.500e-02  t[s]:     97.02
ElecMinimize: 	Predicted alpha/alphaT>3.000000, increasing alphaT to 3.611172e-01.
	FillingsUpdate:  mu: -0.089742543  nElectrons: 9.000000
	SubspaceRotationAdjust: set factor to 1.23
ElecMinimize: Iter:  27  F: -24.398248295767814  |grad|_K:  5.661e-06  alpha:  5.676e-01  linmin:  3.567e-03  t[s]:    100.25
ElecMinimize: 	Step increased F by 5.409845e-06, reducing alpha to 2.094297e-03.
	FillingsUpdate:  mu: -0.089738657  nElectrons: 9.000000
	SubspaceRotationAdjust: set factor to 1.36
ElecMinimize: Iter:  28  F: -24.398248904848501  |grad|_K:  5.642e-06  alpha:  2.094e-03  linmin: -6.457e-03  t[s]:    104.43
ElecMinimize: 	Predicted alpha/alphaT>3.000000, increasing alphaT to 6.282890e-03.
ElecMinimize: 	Predicted alpha/alphaT>3.000000, increasing alphaT to 1.884867e-02.
ElecMinimize: 	Predicted alpha/alphaT>3.000000, increasing alphaT to 5.654601e-02.
ElecMinimize: 	Step increased F by 6.267247e-04, reducing alpha to 6.159879e-02.
ElecMinimize: 	Step increased F by 7.575722e-06, reducing alpha to 6.159879e-03.
	FillingsUpdate:  mu: -0.089745669  nElectrons: 9.000000
	SubspaceRotationAdjust: set factor to 1.49
ElecMinimize: Iter:  29  F: -24.398253553378606  |grad|_K:  5.631e-06  alpha:  6.160e-03  linmin: -1.716e-02  t[s]:    111.87
ElecMinimize: 	Predicted alpha/alphaT>3.000000, increasing alphaT to 1.847964e-02.
ElecMinimize: 	Predicted alpha/alphaT>3.000000, increasing alphaT to 5.543891e-02.
	FillingsUpdate:  mu: -0.091723931  nElectrons: 9.000000
	SubspaceRotationAdjust: set factor to 1.75
ElecMinimize: Iter:  30  F: -24.398300625168339  |grad|_K:  4.447e-06  alpha:  8.980e-02  linmin: -2.698e-02  t[s]:    115.86
ElecMinimize: 	Wrong curvature in test step, increasing alphaT to 2.693943e-01.
	FillingsUpdate:  mu: -0.090973840  nElectrons: 9.000000
	SubspaceRotationAdjust: set factor to 2.03
ElecMinimize: Iter:  31  F: -24.398403943881640  |grad|_K:  4.000e-06  alpha: -1.642e-01  linmin: -2.791e-02  t[s]:    118.21
	FillingsUpdate:  mu: -0.090401018  nElectrons: 9.000000
	SubspaceRotationAdjust: set factor to 2.47
ElecMinimize: Iter:  32  F: -24.398480511197345  |grad|_K:  2.986e-06  alpha:  1.089e-01  linmin: -1.661e-02  t[s]:    120.72
ElecMinimize: 	Predicted alpha/alphaT>3.000000, increasing alphaT to 3.265829e-01.
	FillingsUpdate:  mu: -0.087544818  nElectrons: 9.000000
	SubspaceRotationAdjust: set factor to 2.45
ElecMinimize: Iter:  33  F: -24.398544624782701  |grad|_K:  4.572e-06  alpha:  3.514e-01  linmin: -8.850e-04  t[s]:    123.96
	FillingsUpdate:  mu: -0.087885891  nElectrons: 9.000000
	SubspaceRotationAdjust: set factor to 3.05
ElecMinimize: Iter:  34  F: -24.398554161441943  |grad|_K:  4.896e-06  alpha:  2.970e-02  linmin: -5.341e-03  t[s]:    126.48
ElecMinimize: 	Predicted alpha/alphaT>3.000000, increasing alphaT to 8.910077e-02.
	FillingsUpdate:  mu: -0.090371652  nElectrons: 9.000000
	SubspaceRotationAdjust: set factor to 2.36
ElecMinimize: Iter:  35  F: -24.398627852434576  |grad|_K:  8.022e-06  alpha:  2.142e-01  linmin: -2.087e-03  t[s]:    129.71
	FillingsUpdate:  mu: -0.090202380  nElectrons: 9.000000
	SubspaceRotationAdjust: set factor to 2.36
ElecMinimize: Iter:  36  F: -24.398634146194610  |grad|_K:  6.787e-06  alpha:  6.241e-03  linmin: -5.115e-03  t[s]:    132.20
ElecMinimize: 	Predicted alpha/alphaT>3.000000, increasing alphaT to 1.872304e-02.
	FillingsUpdate:  mu: -0.090229250  nElectrons: 9.000000
	SubspaceRotationAdjust: set factor to 2.36
ElecMinimize: Iter:  37  F: -24.398636022244375  |grad|_K:  6.760e-06  alpha:  1.628e-03  linmin: -1.206e-02  t[s]:    135.48
ElecMinimize: 	Predicted alpha/alphaT>3.000000, increasing alphaT to 4.884248e-03.
ElecMinimize: 	Predicted alpha/alphaT>3.000000, increasing alphaT to 1.465274e-02.
ElecMinimize: 	Predicted alpha/alphaT>3.000000, increasing alphaT to 4.395823e-02.
	FillingsUpdate:  mu: -0.092633947  nElectrons: 9.000000
	SubspaceRotationAdjust: set factor to 1.85
ElecMinimize: Iter:  38  F: -24.398726000814953  |grad|_K:  5.987e-06  alpha:  1.391e-01  linmin:  4.347e-03  t[s]:    139.51
	FillingsUpdate:  mu: -0.092666987  nElectrons: 9.000000
	SubspaceRotationAdjust: set factor to 1.57
ElecMinimize: Iter:  39  F: -24.398726901694058  |grad|_K:  5.557e-06  alpha:  3.886e-03  linmin: -3.634e-03  t[s]:    142.01
ElecMinimize: 	Predicted alpha/alphaT>3.000000, increasing alphaT to 1.165756e-02.
ElecMinimize: 	Predicted alpha/alphaT>3.000000, increasing alphaT to 3.497269e-02.
ElecMinimize: 	Step increased F by 4.433087e-05, reducing alpha to 6.775204e-03.
	FillingsUpdate:  mu: -0.092654433  nElectrons: 9.000000
	SubspaceRotationAdjust: set factor to 1.41
ElecMinimize: Iter:  40  F: -24.398730975931414  |grad|_K:  5.310e-06  alpha:  6.775e-03  linmin: -1.013e-02  t[s]:    147.72
ElecMinimize: 	Predicted alpha/alphaT>3.000000, increasing alphaT to 2.032561e-02.
ElecMinimize: 	Predicted alpha/alphaT>3.000000, increasing alphaT to 6.097684e-02.
	FillingsUpdate:  mu: -0.092079051  nElectrons: 9.000000
	SubspaceRotationAdjust: set factor to 1.35
ElecMinimize: Iter:  41  F: -24.398772467230465  |grad|_K:  4.290e-06  alpha:  8.659e-02  linmin: -1.573e-03  t[s]:    151.73
	FillingsUpdate:  mu: -0.093617890  nElectrons: 9.000000
	SubspaceRotationAdjust: set factor to 1.41
ElecMinimize: Iter:  42  F: -24.398785342816101  |grad|_K:  4.049e-06  alpha:  8.264e-02  linmin:  8.303e-05  t[s]:    154.25
ElecMinimize: 	Predicted alpha/alphaT>3.000000, increasing alphaT to 2.479231e-01.
	FillingsUpdate:  mu: -0.093566664  nElectrons: 9.000000
	SubspaceRotationAdjust: set factor to 1.47
ElecMinimize: Iter:  43  F: -24.398786783017254  |grad|_K:  4.051e-06  alpha:  6.317e-03  linmin: -7.906e-03  t[s]:    157.51
ElecMinimize: 	Predicted alpha/alphaT>3.000000, increasing alphaT to 1.895180e-02.
ElecMinimize: 	Wrong curvature in test step, increasing alphaT to 5.685541e-02.
	FillingsUpdate:  mu: -0.095619225  nElectrons: 9.000000
	SubspaceRotationAdjust: set factor to 1.61
ElecMinimize: Iter:  44  F: -24.398798453799369  |grad|_K:  3.981e-06  alpha: -2.753e-02  linmin: -1.203e-02  t[s]:    160.57
	FillingsUpdate:  mu: -0.094814974  nElectrons: 9.000000
	SubspaceRotationAdjust: set factor to 1.91
ElecMinimize: Iter:  45  F: -24.398870586427048  |grad|_K:  3.419e-06  alpha:  3.743e-02  linmin: -1.037e-02  t[s]:    163.09
	FillingsUpdate:  mu: -0.094740391  nElectrons: 9.000000
	SubspaceRotationAdjust: set factor to 2.12
ElecMinimize: Iter:  46  F: -24.398873469091054  |grad|_K:  3.465e-06  alpha:  6.551e-03  linmin: -1.276e-02  t[s]:    165.62
ElecMinimize: 	Predicted alpha/alphaT>3.000000, increasing alphaT to 1.965254e-02.
ElecMinimize: 	Predicted alpha/alphaT>3.000000, increasing alphaT to 5.895763e-02.
ElecMinimize: 	Step increased F by 4.999247e-06, reducing alpha to 1.043231e-02.
	FillingsUpdate:  mu: -0.094600985  nElectrons: 9.000000
	SubspaceRotationAdjust: set factor to 2.39
ElecMinimize: Iter:  47  F: -24.398879535485150  |grad|_K:  3.360e-06  alpha:  1.043e-02  linmin: -1.346e-02  t[s]:    171.32
ElecMinimize: 	Predicted alpha/alphaT>3.000000, increasing alphaT to 3.129692e-02.
ElecMinimize: 	Predicted alpha/alphaT>3.000000, increasing alphaT to 9.389075e-02.
	FillingsUpdate:  mu: -0.093230948  nElectrons: 9.000000
	SubspaceRotationAdjust: set factor to 2.68
ElecMinimize: Iter:  48  F: -24.398916910348824  |grad|_K:  2.736e-06  alpha:  1.073e-01  linmin: -1.625e-03  t[s]:    175.34
	FillingsUpdate:  mu: -0.092739574  nElectrons: 9.000000
	SubspaceRotationAdjust: set factor to 2.67
ElecMinimize: Iter:  49  F: -24.398923927865571  |grad|_K:  3.170e-06  alpha:  9.243e-02  linmin: -1.176e-04  t[s]:    177.87
	FillingsUpdate:  mu: -0.092584001  nElectrons: 9.000000
	SubspaceRotationAdjust: set factor to 2.58
ElecMinimize: Iter:  50  F: -24.398929010188883  |grad|_K:  3.389e-06  alpha:  6.472e-02  linmin: -3.361e-04  t[s]:    180.39
	FillingsUpdate:  mu: -0.092624434  nElectrons: 9.000000
	SubspaceRotationAdjust: set factor to 2.58
ElecMinimize: Iter:  51  F: -24.398932192662649  |grad|_K:  3.354e-06  alpha:  2.157e-02  linmin: -6.385e-03  t[s]:    182.89
	FillingsUpdate:  mu: -0.092749233  nElectrons: 9.000000
	SubspaceRotationAdjust: set factor to 1.73
ElecMinimize: Iter:  52  F: -24.398932935371921  |grad|_K:  4.650e-06  alpha:  1.168e-02  linmin:  3.484e-03  t[s]:    185.40
ElecMinimize: 	Bad step direction: g.d > 0.
ElecMinimize: 	Undoing step.
ElecMinimize: 	Step failed: resetting search direction.
	FillingsUpdate:  mu: -0.092749233  nElectrons: 9.000000
	SubspaceRotationAdjust: set factor to 1.31
ElecMinimize: Iter:  53  F: -24.398932935371892  |grad|_K:  4.040e-06  alpha:  0.000e+00
ElecMinimize: 	Predicted alpha/alphaT>3.000000, increasing alphaT to 3.504458e-02.
	FillingsUpdate:  mu: -0.093093563  nElectrons: 9.000000
	SubspaceRotationAdjust: set factor to 2.05
ElecMinimize: Iter:  54  F: -24.398946593219488  |grad|_K:  2.412e-06  alpha:  9.160e-02  linmin: -1.169e-02  t[s]:    190.40
ElecMinimize: 	Predicted alpha/alphaT>3.000000, increasing alphaT to 2.748066e-01.
	FillingsUpdate:  mu: -0.094275852  nElectrons: 9.000000
	SubspaceRotationAdjust: set factor to 1.98
ElecMinimize: Iter:  55  F: -24.398977049111750  |grad|_K:  1.914e-06  alpha:  4.882e-01  linmin:  2.060e-04  t[s]:    193.66
	FillingsUpdate:  mu: -0.091953196  nElectrons: 9.000000
	SubspaceRotationAdjust: set factor to 1.96
ElecMinimize: Iter:  56  F: -24.398982771996707  |grad|_K:  1.604e-06  alpha:  2.255e-01  linmin: -9.503e-03  t[s]:    196.16
	FillingsUpdate:  mu: -0.092114269  nElectrons: 9.000000
	SubspaceRotationAdjust: set factor to 1.06
ElecMinimize: Iter:  57  F: -24.398988468286536  |grad|_K:  3.824e-06  alpha:  2.123e-01  linmin:  9.222e-04  t[s]:    198.65
	FillingsUpdate:  mu: -0.091961940  nElectrons: 9.000000
	SubspaceRotationAdjust: set factor to 1.56
ElecMinimize: Iter:  58  F: -24.398996042552664  |grad|_K:  1.193e-06  alpha:  4.870e-02  linmin: -1.195e-02  t[s]:    201.21
ElecMinimize: 	Wrong curvature in test step, increasing alphaT to 1.461056e-01.
	FillingsUpdate:  mu: -0.092540109  nElectrons: 9.000000
	SubspaceRotationAdjust: set factor to 0.924
ElecMinimize: Iter:  59  F: -24.399000204140641  |grad|_K:  2.590e-06  alpha: -1.370e-02  linmin: -4.328e-02  t[s]:    203.57
	FillingsUpdate:  mu: -0.093505926  nElectrons: 9.000000
	SubspaceRotationAdjust: set factor to 0.844
ElecMinimize: Iter:  60  F: -24.399028862269681  |grad|_K:  1.347e-06  alpha:  3.136e-01  linmin:  1.628e-03  t[s]:    206.08
	FillingsUpdate:  mu: -0.092942862  nElectrons: 9.000000
	SubspaceRotationAdjust: set factor to 1.07
ElecMinimize: Iter:  61  F: -24.399034098337548  |grad|_K:  8.166e-07  alpha:  4.186e-01  linmin: -5.730e-05  t[s]:    208.61
	FillingsUpdate:  mu: -0.092574558  nElectrons: 9.000000
	SubspaceRotationAdjust: set factor to 1.31
ElecMinimize: Iter:  62  F: -24.399036821695272  |grad|_K:  8.232e-07  alpha:  5.506e-01  linmin: -5.113e-05  t[s]:    211.11
	FillingsUpdate:  mu: -0.092257804  nElectrons: 9.000000
	SubspaceRotationAdjust: set factor to 1.28
ElecMinimize: Iter:  63  F: -24.399040242935630  |grad|_K:  8.081e-07  alpha:  6.793e-01  linmin: -4.672e-05  t[s]:    213.59
	FillingsUpdate:  mu: -0.092269570  nElectrons: 9.000000
	SubspaceRotationAdjust: set factor to 1.42
ElecMinimize: Iter:  64  F: -24.399041404974128  |grad|_K:  6.955e-07  alpha:  1.405e-01  linmin: -1.388e-02  t[s]:    216.12
	FillingsUpdate:  mu: -0.092462628  nElectrons: 9.000000
	SubspaceRotationAdjust: set factor to 1.61
ElecMinimize: Iter:  65  F: -24.399043851181492  |grad|_K:  5.991e-07  alpha:  4.000e-01  linmin: -3.233e-05  t[s]:    218.65
	FillingsUpdate:  mu: -0.092650941  nElectrons: 9.000000
	SubspaceRotationAdjust: set factor to 1.74
ElecMinimize: Iter:  66  F: -24.399045221777950  |grad|_K:  7.319e-07  alpha:  5.158e-01  linmin:  3.577e-05  t[s]:    221.13
	FillingsUpdate:  mu: -0.092716208  nElectrons: 9.000000
	SubspaceRotationAdjust: set factor to 1.98
ElecMinimize: Iter:  67  F: -24.399046590817957  |grad|_K:  6.630e-07  alpha:  3.229e-01  linmin: -5.379e-04  t[s]:    223.64
	FillingsUpdate:  mu: -0.092610968  nElectrons: 9.000000
	SubspaceRotationAdjust: set factor to 2.4
ElecMinimize: Iter:  68  F: -24.399047521881677  |grad|_K:  5.133e-07  alpha:  2.741e-01  linmin: -2.135e-04  t[s]:    226.10
	FillingsUpdate:  mu: -0.092443076  nElectrons: 9.000000
	SubspaceRotationAdjust: set factor to 2.74
ElecMinimize: Iter:  69  F: -24.399048145745748  |grad|_K:  4.651e-07  alpha:  3.150e-01  linmin: -1.278e-05  t[s]:    228.64
	FillingsUpdate:  mu: -0.092333242  nElectrons: 9.000000
	SubspaceRotationAdjust: set factor to 2.81
ElecMinimize: Iter:  70  F: -24.399048699073898  |grad|_K:  4.749e-07  alpha:  3.450e-01  linmin: -2.086e-05  t[s]:    231.15
	FillingsUpdate:  mu: -0.092373566  nElectrons: 9.000000
	SubspaceRotationAdjust: set factor to 3.19
ElecMinimize: Iter:  71  F: -24.399049306579155  |grad|_K:  4.967e-07  alpha:  3.630e-01  linmin:  1.114e-05  t[s]:    233.68
	FillingsUpdate:  mu: -0.092493943  nElectrons: 9.000000
	SubspaceRotationAdjust: set factor to 3.9
ElecMinimize: Iter:  72  F: -24.399049921650601  |grad|_K:  4.914e-07  alpha:  3.372e-01  linmin:  1.740e-05  t[s]:    236.21
	FillingsUpdate:  mu: -0.092503293  nElectrons: 9.000000
	SubspaceRotationAdjust: set factor to 5.11
ElecMinimize: Iter:  73  F: -24.399050101987378  |grad|_K:  4.733e-07  alpha:  5.606e-02  linmin: -5.215e-03  t[s]:    238.71
ElecMinimize: 	Predicted alpha/alphaT>3.000000, increasing alphaT to 1.681668e-01.
	FillingsUpdate:  mu: -0.092564385  nElectrons: 9.000000
	SubspaceRotationAdjust: set factor to 2.75
ElecMinimize: Iter:  74  F: -24.399050741310180  |grad|_K:  1.110e-06  alpha:  2.379e-01  linmin:  2.814e-02  t[s]:    241.98
ElecMinimize: 	Bad step direction: g.d > 0.
ElecMinimize: 	Undoing step.
ElecMinimize: 	Step failed: resetting search direction.
	FillingsUpdate:  mu: -0.092564385  nElectrons: 9.000000
	SubspaceRotationAdjust: set factor to 1.57
ElecMinimize: Iter:  75  F: -24.399050741310102  |grad|_K:  8.390e-07  alpha:  0.000e+00
	FillingsUpdate:  mu: -0.092473857  nElectrons: 9.000000
	SubspaceRotationAdjust: set factor to 2.14
ElecMinimize: Iter:  76  F: -24.399051036621469  |grad|_K:  2.552e-07  alpha:  1.425e-01  linmin: -7.185e-03  t[s]:    246.28
ElecMinimize: 	Predicted alpha/alphaT>3.000000, increasing alphaT to 4.273885e-01.
	FillingsUpdate:  mu: -0.092469595  nElectrons: 9.000000
	SubspaceRotationAdjust: set factor to 1.96
ElecMinimize: Iter:  77  F: -24.399051437529685  |grad|_K:  1.903e-07  alpha:  7.355e-01  linmin: -9.522e-05  t[s]:    249.56
	FillingsUpdate:  mu: -0.092492038  nElectrons: 9.000000
	SubspaceRotationAdjust: set factor to 2.09
ElecMinimize: Iter:  78  F: -24.399051833642641  |grad|_K:  2.028e-07  alpha:  1.472e+00  linmin:  1.179e-05  t[s]:    252.06
	FillingsUpdate:  mu: -0.092492581  nElectrons: 9.000000
	SubspaceRotationAdjust: set factor to 2.25
ElecMinimize: Iter:  79  F: -24.399051958880602  |grad|_K:  1.624e-07  alpha:  2.352e-01  linmin: -1.342e-02  t[s]:    254.60
	FillingsUpdate:  mu: -0.092484555  nElectrons: 9.000000
	SubspaceRotationAdjust: set factor to 2.1
ElecMinimize: Iter:  80  F: -24.399052149263781  |grad|_K:  1.448e-07  alpha:  5.575e-01  linmin:  3.926e-05  t[s]:    257.07
	FillingsUpdate:  mu: -0.092477511  nElectrons: 9.000000
	SubspaceRotationAdjust: set factor to 2.45
ElecMinimize: Iter:  81  F: -24.399052239764227  |grad|_K:  1.418e-07  alpha:  5.875e-01  linmin:  5.769e-04  t[s]:    259.59
	FillingsUpdate:  mu: -0.092474603  nElectrons: 9.000000
	SubspaceRotationAdjust: set factor to 2.48
ElecMinimize: Iter:  82  F: -24.399052311993184  |grad|_K:  1.550e-07  alpha:  5.086e-01  linmin: -1.883e-05  t[s]:    262.13
	FillingsUpdate:  mu: -0.092525492  nElectrons: 9.000000
	SubspaceRotationAdjust: set factor to 2.45
ElecMinimize: Iter:  83  F: -24.399052455486817  |grad|_K:  1.962e-07  alpha:  8.044e-01  linmin: -1.739e-05  t[s]:    264.67
	FillingsUpdate:  mu: -0.092536979  nElectrons: 9.000000
	SubspaceRotationAdjust: set factor to 3.26
ElecMinimize: Iter:  84  F: -24.399052498909469  |grad|_K:  1.786e-07  alpha:  8.326e-02  linmin: -6.004e-03  t[s]:    267.17
ElecMinimize: 	Predicted alpha/alphaT>3.000000, increasing alphaT to 2.497783e-01.
	FillingsUpdate:  mu: -0.092538539  nElectrons: 9.000000
	SubspaceRotationAdjust: set factor to 4.23
ElecMinimize: Iter:  85  F: -24.399052508702738  |grad|_K:  1.808e-07  alpha:  1.153e-02  linmin: -1.208e-02  t[s]:    270.45
ElecMinimize: 	Predicted alpha/alphaT>3.000000, increasing alphaT to 3.460339e-02.
ElecMinimize: 	Predicted alpha/alphaT>3.000000, increasing alphaT to 1.038102e-01.
	FillingsUpdate:  mu: -0.092539495  nElectrons: 9.000000
	SubspaceRotationAdjust: set factor to 5.14
ElecMinimize: Iter:  86  F: -24.399052515331007  |grad|_K:  1.854e-07  alpha:  5.005e-03  linmin: -1.579e-02  t[s]:    274.48
ElecMinimize: Converged (|Delta F|<1.000000e-08 for 2 iters).
Setting wave functions to eigenvectors of Hamiltonian

# Ionic positions in lattice coordinates:
ion Rb   0.000000000000000   0.000000000000000   0.000000000000000 0

# Forces in Lattice coordinates:
force Rb  -0.000000000000000   0.000000000000000   0.000000000000000 0

# Energy components:
   Eewald =      -27.5542383211185751
       EH =       -8.2371605932541758
     Eloc =        8.7798342869251496
      Enl =       -0.7770089653773020
   Epulay =        0.0000000010980501
      Exc =       -3.7500527003972124
       KE =        7.1395738431810711
-------------------------------------
     Etot =      -24.3990524489429887
       TS =        0.0000000663880175
-------------------------------------
        F =      -24.3990525153310074

IonicMinimize: Iter:   0  F: -24.399052515331007  |grad|_K:  0.000e+00  t[s]:    274.70
IonicMinimize: Converged (|grad|_K<1.000000e-04).

#--- Lowdin population analysis ---
# oxidation-state Rb +0.180

End date and time: Sun Jan 16 15:52:18 2022  (Duration: 0-0:04:34.75)
Done!
