0.8
--------------------------------------------------------------------------
The library attempted to open the following supporting CUDA libraries,
but each of them failed.  CUDA-aware support is disabled.
libcuda.so.1: cannot open shared object file: No such file or directory
libcuda.dylib: cannot open shared object file: No such file or directory
/usr/lib64/libcuda.so.1: cannot open shared object file: No such file or directory
/usr/lib64/libcuda.dylib: cannot open shared object file: No such file or directory
If you are not interested in CUDA-aware support, then run with
--mca opal_warn_on_missing_libcuda 0 to suppress this message.  If you are interested
in CUDA-aware support, then try setting LD_LIBRARY_PATH to the location
of libcuda.so.1 to get passed this issue.
--------------------------------------------------------------------------
--------------------------------------------------------------------------
No OpenFabrics connection schemes reported that they were able to be
used on a specific port.  As such, the openib BTL (OpenFabrics
support) will be disabled for this port.

  Local host:           d-4-14-3
  Local device:         mlx5_1
  Local port:           1
  CPCs attempted:       rdmacm, udcm
--------------------------------------------------------------------------

*************** JDFTx 1.6.0 (git hash 42ebbcc2) ***************

Start date and time: Sun Jan 16 15:46:02 2022
Executable jdftx with command-line: -i Rubidium.in
Running on hosts (process indices):  d-4-14-3 (0-18)
Divided in process groups (process indices):  0 (0)  1 (1)  2 (2)  3 (3)  4 (4)  5 (5)  6 (6)  7 (7)  8 (8)  9 (9)  10 (10)  11 (11)  12 (12)  13 (13)  14 (14)  15 (15)  16 (16)  17 (17)  18 (18)
Resource initialization completed at t[s]:      0.00
Run totals: 19 processes, 48 threads, 0 GPUs


Input parsed successfully to the following command list (including defaults):

basis kpoint-dependent
coords-type Lattice
core-overlap-check vector
coulomb-interaction Slab 001
davidson-band-ratio 1.1
dump End None
dump-name $INPUT.$VAR
elec-cutoff 20 100
elec-eigen-algo Davidson
elec-ex-corr gga-PBE
elec-smearing Fermi 1e-05
electronic-minimize  \
	dirUpdateScheme      FletcherReeves \
	linminMethod         DirUpdateRecommended \
	nIterations          10000 \
	history              15 \
	knormThreshold       0 \
	energyDiffThreshold  1e-08 \
	nEnergyDiff          2 \
	alphaTstart          1 \
	alphaTmin            1e-10 \
	updateTestStepSize   yes \
	alphaTreduceFactor   0.1 \
	alphaTincreaseFactor 3 \
	nAlphaAdjustMax      3 \
	wolfeEnergy          0.0001 \
	wolfeGradient        0.9 \
	fdTest               no
exchange-regularization WignerSeitzTruncated
fluid None
fluid-ex-corr (null) lda-PZ
fluid-gummel-loop 10 1.000000e-05
fluid-minimize  \
	dirUpdateScheme      PolakRibiere \
	linminMethod         DirUpdateRecommended \
	nIterations          100 \
	history              15 \
	knormThreshold       0 \
	energyDiffThreshold  0 \
	nEnergyDiff          2 \
	alphaTstart          1 \
	alphaTmin            1e-10 \
	updateTestStepSize   yes \
	alphaTreduceFactor   0.1 \
	alphaTincreaseFactor 3 \
	nAlphaAdjustMax      3 \
	wolfeEnergy          0.0001 \
	wolfeGradient        0.9 \
	fdTest               no
fluid-solvent H2O 55.338 ScalarEOS \
	epsBulk 78.4 \
	pMol 0.92466 \
	epsInf 1.77 \
	Pvap 1.06736e-10 \
	sigmaBulk 4.62e-05 \
	Rvdw 2.61727 \
	Res 1.42 \
	tauNuc 343133 \
	poleEl 15 7 1
forces-output-coords Positions
ion Rb   0.000000000000000   0.000000000000000   0.000000000000000 0
ion-species SG15/$ID_ONCV_PBE.upf
ion-width 0
ionic-minimize  \
	dirUpdateScheme      L-BFGS \
	linminMethod         DirUpdateRecommended \
	nIterations          0 \
	history              15 \
	knormThreshold       0.0001 \
	energyDiffThreshold  1e-06 \
	nEnergyDiff          2 \
	alphaTstart          1 \
	alphaTmin            1e-10 \
	updateTestStepSize   yes \
	alphaTreduceFactor   0.1 \
	alphaTincreaseFactor 3 \
	nAlphaAdjustMax      3 \
	wolfeEnergy          0.0001 \
	wolfeGradient        0.9 \
	fdTest               no
kpoint   0.000000000000   0.000000000000   0.000000000000  1.00000000000000
kpoint-folding 48 48 1 
latt-move-scale 1 1 1
latt-scale 0.8 0.8 1 
lattice  \
	   4.727486978767153   -2.363743489383575    0.000000000000000  \
	  -0.000000000000000    4.094123819672498    0.000000000000000  \
	   0.000000000000000    0.000000000000000   40.000000000000000 
lattice-minimize  \
	dirUpdateScheme      L-BFGS \
	linminMethod         DirUpdateRecommended \
	nIterations          0 \
	history              15 \
	knormThreshold       0 \
	energyDiffThreshold  1e-06 \
	nEnergyDiff          2 \
	alphaTstart          1 \
	alphaTmin            1e-10 \
	updateTestStepSize   yes \
	alphaTreduceFactor   0.1 \
	alphaTincreaseFactor 3 \
	nAlphaAdjustMax      3 \
	wolfeEnergy          0.0001 \
	wolfeGradient        0.9 \
	fdTest               no
lcao-params -1 1e-06 1e-05
pcm-variant GLSSA13
spintype no-spin
subspace-rotation-factor 1 yes
symmetries automatic
symmetry-threshold 0.0001



---------- Setting up symmetries ----------

Found 24 point-group symmetries of the bravais lattice
Found 24 space-group symmetries with basis
Applied RMS atom displacement 0 bohrs to make symmetries exact.

---------- Initializing the Grid ----------
R = 
[      3.78199     -1.89099            0  ]
[            0       3.2753            0  ]
[            0            0           40  ]
unit cell volume = 495.486
G =
[    1.66134   0.959177         -0  ]
[          0    1.91835         -0  ]
[         -0         -0    0.15708  ]
Minimum fftbox size, Smin = [  20  20  184  ]
Chosen fftbox size, S = [  20  20  192  ]

---------- Initializing tighter grid for wavefunction operations ----------
R = 
[      3.78199     -1.89099            0  ]
[            0       3.2753            0  ]
[            0            0           40  ]
unit cell volume = 495.486
G =
[    1.66134   0.959177         -0  ]
[          0    1.91835         -0  ]
[         -0         -0    0.15708  ]
Minimum fftbox size, Smin = [  16  16  164  ]
Chosen fftbox size, S = [  16  16  168  ]

---------- Exchange Correlation functional ----------
Initalized PBE GGA exchange.
Initalized PBE GGA correlation.

---------- Setting up pseudopotentials ----------
Width of ionic core gaussian charges (only for fluid interactions / plotting) set to 0

Reading pseudopotential file '/home/gridsan/aligho/DFT/build-Nov24/pseudopotentials/SG15/Rb_ONCV_PBE.upf':
  'Rb' pseudopotential, 'PBE' functional
  Generated using ONCVPSP code by D. R. Hamann
  Author: Martin Schlipf and Francois Gygi  Date: 150915.
  9 valence electrons, 3 orbitals, 6 projectors, 2308 radial grid points, with lMax = 2
  Transforming local potential to a uniform radial grid of dG=0.02 with 1830 points.
  Transforming nonlocal projectors to a uniform radial grid of dG=0.02 with 432 points.
    4S    l: 0   occupation:  2.0   eigenvalue: -1.172069
    4P    l: 1   occupation:  6.0   eigenvalue: -0.586674
    5S    l: 0   occupation:  1.0   eigenvalue: -0.082006
  Transforming atomic orbitals to a uniform radial grid of dG=0.02 with 432 points.
  Core radius for overlap checks: 2.60 bohrs.
  Reading pulay file /home/gridsan/aligho/DFT/build-Nov24/pseudopotentials/SG15/Rb_ONCV_PBE.pulay ... using dE_dnG = -1.360715e-05 computed for Ecut = 20.

Initialized 1 species with 1 total atoms.

Folded 1 k-points by 48x48x1 to 2304 k-points.

---------- Setting up k-points, bands, fillings ----------
Reduced to 217 k-points under symmetry. 
Computing the number of bands and number of electrons
Calculating initial fillings.
nElectrons:   9.000000   nBands: 6   nStates: 217

----- Setting up reduced wavefunction bases (one per k-point) -----
average nbasis = 2116.829 , ideal nbasis = 2116.753

---------- Setting up coulomb interaction ----------
Initialized slab truncation along lattice direction 001

---------- Setting up 2D ewald sum ----------
Optimum gaussian width for ewald sums = 2.099608 bohr.
Real space sums over 289 unit cells with max indices [  8  8  0  ]
Reciprocal space sums over 81 terms with max indices [  4  4  0  ]

---------- Allocating electronic variables ----------
Initializing wave functions:  linear combination of atomic orbitals
Note: number of bands (6) exceeds available atomic orbitals (5)
Rb pseudo-atom occupations:   s ( 2 1 )  p ( 6 )
	FillingsUpdate:  mu: -0.245496009  nElectrons: 9.000000
LCAOMinimize: Iter:   0  F: -23.2317182155488098  |grad|_K:  3.744e-04  alpha:  1.000e+00
	FillingsUpdate:  mu: -0.245367856  nElectrons: 9.000000
LCAOMinimize: Iter:   1  F: -23.2321856352955685  |grad|_K:  3.514e-05  alpha:  8.788e-01  linmin: -5.554e-02  cgtest:  1.201e+00  t[s]:      2.42
LCAOMinimize: Encountered beta<0, resetting CG.
	FillingsUpdate:  mu: -0.245431021  nElectrons: 9.000000
LCAOMinimize: Iter:   2  F: -23.2321903498654372  |grad|_K:  6.382e-07  alpha:  9.751e-01  linmin: -4.238e-02  cgtest:  9.035e-01  t[s]:      3.09
LCAOMinimize: Encountered beta<0, resetting CG.
	FillingsUpdate:  mu: -0.245431878  nElectrons: 9.000000
LCAOMinimize: Iter:   3  F: -23.2321903514535144  |grad|_K:  3.321e-09  alpha:  9.974e-01  linmin:  4.351e-03  cgtest: -1.199e-01  t[s]:      3.75
LCAOMinimize: 	Wrong curvature in test step, increasing alphaT to 2.992258e+00.
	FillingsUpdate:  mu: -0.245431863  nElectrons: 9.000000
LCAOMinimize: Iter:   4  F: -23.2321903514540082  |grad|_K:  3.990e-10  alpha: -1.033e-01  linmin: -1.197e-03  cgtest:  1.496e-01  t[s]:      4.41
LCAOMinimize: Encountered beta<0, resetting CG.
LCAOMinimize: Converged (|Delta F|<1.000000e-06 for 2 iters).


---- Citations for features of the code used in this run ----

   Software package:
      R. Sundararaman, K. Letchworth-Weaver, K.A. Schwarz, D. Gunceler, Y. Ozhabes and T.A. Arias, 'JDFTx: software for joint density-functional theory', SoftwareX 6, 278 (2017)

   gga-PBE exchange-correlation functional:
      J.P. Perdew, K. Burke and M. Ernzerhof, Phys. Rev. Lett. 77, 3865 (1996)

   Pseudopotentials:
      M Schlipf and F Gygi, Comput. Phys. Commun. 196, 36 (2015)

   Truncated Coulomb potentials:
      R. Sundararaman and T.A. Arias, Phys. Rev. B 87, 165122 (2013)

   Total energy minimization with Auxiliary Hamiltonian:
      C. Freysoldt, S. Boeck, and J. Neugebauer, Phys. Rev. B 79, 241103(R) (2009)

This list may not be complete. Please suggest additional citations or
report any other bugs at https://github.com/shankar1729/jdftx/issues

Initialization completed successfully at t[s]:      4.51


-------- Electronic minimization -----------
[d-4-14-3:30998] 18 more processes have sent help message help-mpi-common-cuda.txt / dlopen failed
[d-4-14-3:30998] Set MCA parameter "orte_base_help_aggregate" to 0 to see all help / error messages
[d-4-14-3:30998] 18 more processes have sent help message help-mpi-btl-openib-cpc-base.txt / no cpcs for port
	FillingsUpdate:  mu: -0.245431863  nElectrons: 9.000000
ElecMinimize: Iter:   0  F: -23.232190351453898  |grad|_K:  3.520e-04  alpha:  1.000e+00
	FillingsUpdate:  mu: -0.204042551  nElectrons: 9.000000
	SubspaceRotationAdjust: set factor to 1
ElecMinimize: Iter:   1  F: -23.510829250119599  |grad|_K:  1.969e-04  alpha:  8.196e-01  linmin:  4.040e-04  t[s]:      5.95
	FillingsUpdate:  mu: -0.156221268  nElectrons: 9.000000
	SubspaceRotationAdjust: set factor to 1
ElecMinimize: Iter:   2  F: -23.588367740449907  |grad|_K:  1.907e-04  alpha:  7.415e-01  linmin:  4.629e-04  t[s]:      6.83
	FillingsUpdate:  mu: -0.128872754  nElectrons: 9.000000
	SubspaceRotationAdjust: set factor to 1.01
ElecMinimize: Iter:   3  F: -23.609054816087987  |grad|_K:  9.933e-05  alpha:  1.625e-01  linmin: -8.106e-03  t[s]:      7.72
	FillingsUpdate:  mu: -0.125533474  nElectrons: 9.000000
	SubspaceRotationAdjust: set factor to 1.05
ElecMinimize: Iter:   4  F: -23.621665090145097  |grad|_K:  8.921e-05  alpha:  3.243e-01  linmin: -1.930e-04  t[s]:      8.59
ElecMinimize: 	Predicted alpha/alphaT>3.000000, increasing alphaT to 9.728127e-01.
	FillingsUpdate:  mu: -0.121135335  nElectrons: 9.000000
	SubspaceRotationAdjust: set factor to 1.09
ElecMinimize: Iter:   5  F: -23.626310773364555  |grad|_K:  7.738e-05  alpha:  1.205e-01  linmin: -5.104e-03  t[s]:      9.76
ElecMinimize: 	Wrong curvature in test step, increasing alphaT to 3.614790e-01.
	FillingsUpdate:  mu: -0.124244297  nElectrons: 9.000000
	SubspaceRotationAdjust: set factor to 1.17
ElecMinimize: Iter:   6  F: -23.634820962558095  |grad|_K:  5.176e-05  alpha: -2.529e-01  linmin: -8.919e-03  t[s]:     10.58
	FillingsUpdate:  mu: -0.122437313  nElectrons: 9.000000
	SubspaceRotationAdjust: set factor to 1.29
ElecMinimize: Iter:   7  F: -23.635584700244276  |grad|_K:  5.070e-05  alpha:  1.283e-02  linmin: -9.491e-03  t[s]:     11.46
ElecMinimize: 	Predicted alpha/alphaT>3.000000, increasing alphaT to 3.848827e-02.
ElecMinimize: 	Predicted alpha/alphaT>3.000000, increasing alphaT to 1.154648e-01.
ElecMinimize: 	Wrong curvature in test step, increasing alphaT to 3.463944e-01.
	FillingsUpdate:  mu: -0.135940407  nElectrons: 9.000000
	SubspaceRotationAdjust: set factor to 1.5
ElecMinimize: Iter:   8  F: -23.642360642859845  |grad|_K:  4.398e-05  alpha: -1.858e-01  linmin: -4.280e-03  t[s]:     12.85
	FillingsUpdate:  mu: -0.136458389  nElectrons: 9.000000
	SubspaceRotationAdjust: set factor to 1.7
ElecMinimize: Iter:   9  F: -23.642417994181475  |grad|_K:  4.448e-05  alpha:  2.401e-03  linmin: -5.403e-03  t[s]:     13.72
ElecMinimize: 	Predicted alpha/alphaT>3.000000, increasing alphaT to 7.204231e-03.
ElecMinimize: 	Wrong curvature in test step, increasing alphaT to 2.161269e-02.
	FillingsUpdate:  mu: -0.132056681  nElectrons: 9.000000
	SubspaceRotationAdjust: set factor to 1.96
ElecMinimize: Iter:  10  F: -23.642683753064482  |grad|_K:  4.525e-05  alpha: -7.415e-02  linmin: -5.883e-03  t[s]:     14.82
	FillingsUpdate:  mu: -0.132745634  nElectrons: 9.000000
	SubspaceRotationAdjust: set factor to 2.28
ElecMinimize: Iter:  11  F: -23.642978906731695  |grad|_K:  4.522e-05  alpha:  6.231e-03  linmin: -6.050e-03  t[s]:     15.70
ElecMinimize: 	Wrong curvature in test step, increasing alphaT to 1.869434e-02.
	FillingsUpdate:  mu: -0.130979129  nElectrons: 9.000000
	SubspaceRotationAdjust: set factor to 2.72
ElecMinimize: Iter:  12  F: -23.643342561687266  |grad|_K:  4.522e-05  alpha: -7.338e-01  linmin: -6.154e-03  t[s]:     16.51
	FillingsUpdate:  mu: -0.129118727  nElectrons: 9.000000
	SubspaceRotationAdjust: set factor to 3.45
ElecMinimize: Iter:  13  F: -23.644600783331985  |grad|_K:  4.470e-05  alpha:  1.352e-02  linmin: -6.590e-03  t[s]:     17.40
ElecMinimize: 	Wrong curvature in test step, increasing alphaT to 4.054643e-02.
	FillingsUpdate:  mu: -0.129311417  nElectrons: 9.000000
	SubspaceRotationAdjust: set factor to 4.79
ElecMinimize: Iter:  14  F: -23.647844453775917  |grad|_K:  4.757e-05  alpha: -3.427e-03  linmin: -7.523e-03  t[s]:     18.21
	FillingsUpdate:  mu: -0.109521651  nElectrons: 9.000000
	SubspaceRotationAdjust: set factor to 7.01
ElecMinimize: Iter:  15  F: -23.663905926919956  |grad|_K:  6.311e-05  alpha:  2.151e-02  linmin: -1.041e-02  t[s]:     19.09
ElecMinimize: 	Wrong curvature in test step, increasing alphaT to 6.454162e-02.
	FillingsUpdate:  mu: -0.092424025  nElectrons: 9.000000
	SubspaceRotationAdjust: set factor to 6.94
ElecMinimize: Iter:  16  F: -23.674331602011687  |grad|_K:  1.005e-04  alpha: -5.644e-02  linmin: -8.133e-03  t[s]:     19.90
ElecMinimize: 	Step increased F by 9.028033e-01, reducing alpha to 4.774351e-03.
ElecMinimize: 	Step increased F by 1.849300e-02, reducing alpha to 4.774351e-04.
ElecMinimize: 	Step increased F by 7.896014e-04, reducing alpha to 4.774351e-05.
ElecMinimize: 	Step failed to reduce F after 3 attempts. Quitting step.
ElecMinimize: 	Undoing step.
ElecMinimize: 	Step failed: resetting search direction.
	FillingsUpdate:  mu: -0.096646480  nElectrons: 9.000000
	SubspaceRotationAdjust: set factor to 8.04
	SubspaceRotationAdjust: resetting CG because factor has changed by 8.04134
ElecMinimize: 	State modified externally: resetting search direction.
ElecMinimize: Iter:  17  F: -23.673483295525678  |grad|_K:  1.071e-04  alpha:  4.774e-05
	FillingsUpdate:  mu: -0.107456638  nElectrons: 9.000000
	SubspaceRotationAdjust: set factor to 9.52
ElecMinimize: Iter:  18  F: -23.684821319778614  |grad|_K:  6.223e-05  alpha:  8.416e-02  linmin: -3.754e-03  t[s]:     23.76
	FillingsUpdate:  mu: -0.140510143  nElectrons: 9.000000
	SubspaceRotationAdjust: set factor to 8.98
ElecMinimize: Iter:  19  F: -23.686123928213430  |grad|_K:  5.667e-05  alpha:  1.075e-01  linmin: -5.287e-03  t[s]:     24.63
ElecMinimize: 	Predicted alpha/alphaT>3.000000, increasing alphaT to 3.225929e-01.
	FillingsUpdate:  mu: -0.131266361  nElectrons: 9.000000
	SubspaceRotationAdjust: set factor to 9.28
ElecMinimize: Iter:  20  F: -23.690318800018485  |grad|_K:  6.589e-05  alpha:  2.066e-01  linmin: -5.481e-03  t[s]:     25.78
ElecMinimize: 	Predicted alpha/alphaT>3.000000, increasing alphaT to 6.198905e-01.
	FillingsUpdate:  mu: -0.078884036  nElectrons: 9.000000
	SubspaceRotationAdjust: set factor to 10.5
ElecMinimize: Iter:  21  F: -23.700785238775321  |grad|_K:  7.916e-05  alpha:  1.637e-01  linmin: -1.553e-02  t[s]:     26.95
	FillingsUpdate:  mu: -0.078087870  nElectrons: 9.000000
	SubspaceRotationAdjust: set factor to 12.7
ElecMinimize: Iter:  22  F: -23.704399366214989  |grad|_K:  7.227e-05  alpha:  6.281e-02  linmin: -4.624e-03  t[s]:     27.83
	FillingsUpdate:  mu: -0.161457229  nElectrons: 9.000000
	SubspaceRotationAdjust: set factor to 8.59
ElecMinimize: Iter:  23  F: -23.705072100834133  |grad|_K:  1.133e-04  alpha:  7.450e-02  linmin: -7.856e-04  t[s]:     28.71
	FillingsUpdate:  mu: -0.168750355  nElectrons: 9.000000
	SubspaceRotationAdjust: set factor to 5.4
ElecMinimize: Iter:  24  F: -23.705262180399316  |grad|_K:  1.221e-04  alpha:  4.246e-03  linmin: -2.535e-03  t[s]:     29.58
	FillingsUpdate:  mu: -0.172779977  nElectrons: 9.000000
	SubspaceRotationAdjust: set factor to 3.31
ElecMinimize: Iter:  25  F: -23.706287287095105  |grad|_K:  1.186e-04  alpha:  7.844e-03  linmin: -1.044e-02  t[s]:     30.46
	FillingsUpdate:  mu: -0.184252521  nElectrons: 9.000000
	SubspaceRotationAdjust: set factor to 2.34
ElecMinimize: Iter:  26  F: -23.707686497826227  |grad|_K:  8.162e-05  alpha:  1.334e-02  linmin: -3.661e-02  t[s]:     31.34
ElecMinimize: 	Wrong curvature in test step, increasing alphaT to 4.003159e-02.
	FillingsUpdate:  mu: -0.176208541  nElectrons: 9.000000
	SubspaceRotationAdjust: set factor to 1.88
ElecMinimize: Iter:  27  F: -23.709874808372977  |grad|_K:  6.281e-05  alpha: -7.661e-03  linmin: -1.168e-02  t[s]:     32.14
	FillingsUpdate:  mu: -0.120915326  nElectrons: 9.000000
	SubspaceRotationAdjust: set factor to 2
ElecMinimize: Iter:  28  F: -23.713524301998014  |grad|_K:  4.818e-05  alpha:  1.007e-01  linmin:  2.336e-03  t[s]:     33.02
ElecMinimize: 	Step increased F by 3.049500e-05, reducing alpha to 6.818666e-04.
	FillingsUpdate:  mu: -0.120852378  nElectrons: 9.000000
	SubspaceRotationAdjust: set factor to 2.08
ElecMinimize: Iter:  29  F: -23.713525860461271  |grad|_K:  4.799e-05  alpha:  6.819e-04  linmin: -4.672e-04  t[s]:     34.45
	FillingsUpdate:  mu: -0.120824544  nElectrons: 9.000000
	SubspaceRotationAdjust: set factor to 2.16
ElecMinimize: Iter:  30  F: -23.713529518064568  |grad|_K:  4.801e-05  alpha:  2.456e-04  linmin: -2.935e-03  t[s]:     35.33
ElecMinimize: 	Predicted alpha/alphaT>3.000000, increasing alphaT to 7.369375e-04.
	FillingsUpdate:  mu: -0.120797629  nElectrons: 9.000000
	SubspaceRotationAdjust: set factor to 2.26
ElecMinimize: Iter:  31  F: -23.713534491763546  |grad|_K:  4.815e-05  alpha:  1.826e-04  linmin: -4.766e-03  t[s]:     36.50
	FillingsUpdate:  mu: -0.120666340  nElectrons: 9.000000
	SubspaceRotationAdjust: set factor to 2.75
ElecMinimize: Iter:  32  F: -23.713538077887872  |grad|_K:  5.297e-05  alpha:  1.667e-04  linmin:  2.175e-03  t[s]:     37.39
ElecMinimize: 	Bad step direction: g.d > 0.
ElecMinimize: 	Undoing step.
ElecMinimize: 	Step failed: resetting search direction.
	FillingsUpdate:  mu: -0.120666340  nElectrons: 9.000000
	SubspaceRotationAdjust: set factor to 3.36
ElecMinimize: Iter:  33  F: -23.713538077887904  |grad|_K:  5.420e-05  alpha:  0.000e+00
ElecMinimize: 	Predicted alpha/alphaT>3.000000, increasing alphaT to 5.001740e-04.
ElecMinimize: 	Predicted alpha/alphaT>3.000000, increasing alphaT to 1.500522e-03.
ElecMinimize: 	Predicted alpha/alphaT>3.000000, increasing alphaT to 4.501566e-03.
	FillingsUpdate:  mu: -0.120566212  nElectrons: 9.000000
	SubspaceRotationAdjust: set factor to 3.55
ElecMinimize: Iter:  34  F: -23.713639169805681  |grad|_K:  4.757e-05  alpha:  7.696e-03  linmin: -2.464e-02  t[s]:     39.45
ElecMinimize: 	Wrong curvature in test step, increasing alphaT to 2.308810e-02.
	FillingsUpdate:  mu: -0.118953154  nElectrons: 9.000000
	SubspaceRotationAdjust: set factor to 3.79
ElecMinimize: Iter:  35  F: -23.714174192393905  |grad|_K:  4.486e-05  alpha: -1.805e-03  linmin: -2.168e-02  t[s]:     40.26
	FillingsUpdate:  mu: -0.116920547  nElectrons: 9.000000
	SubspaceRotationAdjust: set factor to 3.58
ElecMinimize: Iter:  36  F: -23.715700064271083  |grad|_K:  3.413e-05  alpha:  1.757e-01  linmin:  3.596e-03  t[s]:     41.14
	FillingsUpdate:  mu: -0.116438726  nElectrons: 9.000000
	SubspaceRotationAdjust: set factor to 3.73
ElecMinimize: Iter:  37  F: -23.715788111373548  |grad|_K:  3.911e-05  alpha:  1.084e-01  linmin: -6.548e-03  t[s]:     42.02
ElecMinimize: 	Wrong curvature in test step, increasing alphaT to 3.250730e-01.
	FillingsUpdate:  mu: -0.109203081  nElectrons: 9.000000
	SubspaceRotationAdjust: set factor to 4.08
ElecMinimize: Iter:  38  F: -23.717173434151377  |grad|_K:  3.385e-05  alpha: -4.499e-01  linmin: -4.329e-02  t[s]:     42.83
	FillingsUpdate:  mu: -0.105546426  nElectrons: 9.000000
	SubspaceRotationAdjust: set factor to 5.19
ElecMinimize: Iter:  39  F: -23.720004043548862  |grad|_K:  1.728e-05  alpha:  1.710e-01  linmin: -1.444e-02  t[s]:     43.70
ElecMinimize: 	Wrong curvature in test step, increasing alphaT to 5.130811e-01.
	FillingsUpdate:  mu: -0.111497846  nElectrons: 9.000000
	SubspaceRotationAdjust: set factor to 5.28
ElecMinimize: Iter:  40  F: -23.720806300208992  |grad|_K:  1.868e-05  alpha: -1.476e-01  linmin: -9.230e-03  t[s]:     44.51
	FillingsUpdate:  mu: -0.121162782  nElectrons: 9.000000
	SubspaceRotationAdjust: set factor to 5.28
ElecMinimize: Iter:  41  F: -23.721166491718705  |grad|_K:  2.193e-05  alpha:  1.285e-01  linmin: -1.231e-02  t[s]:     45.39
	FillingsUpdate:  mu: -0.124514676  nElectrons: 9.000000
	SubspaceRotationAdjust: set factor to 6.47
ElecMinimize: Iter:  42  F: -23.722129571107498  |grad|_K:  2.609e-05  alpha:  1.842e-01  linmin: -1.558e-02  t[s]:     46.27
	FillingsUpdate:  mu: -0.125253815  nElectrons: 9.000000
	SubspaceRotationAdjust: set factor to 8.57
ElecMinimize: Iter:  43  F: -23.722569428613159  |grad|_K:  2.380e-05  alpha:  1.048e-01  linmin:  1.601e-04  t[s]:     47.15
	FillingsUpdate:  mu: -0.117002244  nElectrons: 9.000000
	SubspaceRotationAdjust: set factor to 9.85
ElecMinimize: Iter:  44  F: -23.722743028927965  |grad|_K:  1.914e-05  alpha:  7.580e-02  linmin:  2.904e-03  t[s]:     48.04
	FillingsUpdate:  mu: -0.118100964  nElectrons: 9.000000
	SubspaceRotationAdjust: set factor to 6.25
ElecMinimize: Iter:  45  F: -23.722786324942572  |grad|_K:  3.545e-05  alpha:  4.097e-02  linmin:  8.482e-03  t[s]:     48.92
ElecMinimize: 	Bad step direction: g.d > 0.
ElecMinimize: 	Undoing step.
ElecMinimize: 	Step failed: resetting search direction.
	FillingsUpdate:  mu: -0.118100964  nElectrons: 9.000000
	SubspaceRotationAdjust: set factor to 4.45
ElecMinimize: Iter:  46  F: -23.722786324942572  |grad|_K:  2.992e-05  alpha:  0.000e+00
	FillingsUpdate:  mu: -0.122470090  nElectrons: 9.000000
	SubspaceRotationAdjust: set factor to 4.6
ElecMinimize: Iter:  47  F: -23.722854398994233  |grad|_K:  1.573e-05  alpha:  3.353e-02  linmin: -4.884e-03  t[s]:     50.38
ElecMinimize: 	Predicted alpha/alphaT>3.000000, increasing alphaT to 1.005790e-01.
ElecMinimize: 	Predicted alpha/alphaT>3.000000, increasing alphaT to 3.017369e-01.
	FillingsUpdate:  mu: -0.125062664  nElectrons: 9.000000
	SubspaceRotationAdjust: set factor to 4.49
ElecMinimize: Iter:  48  F: -23.723158866838428  |grad|_K:  1.173e-05  alpha:  2.126e-01  linmin: -8.223e-03  t[s]:     51.83
	FillingsUpdate:  mu: -0.114532817  nElectrons: 9.000000
	SubspaceRotationAdjust: set factor to 3.77
ElecMinimize: Iter:  49  F: -23.723307349625564  |grad|_K:  1.403e-05  alpha:  5.635e-01  linmin:  8.797e-03  t[s]:     52.71
	FillingsUpdate:  mu: -0.115396047  nElectrons: 9.000000
	SubspaceRotationAdjust: set factor to 3.89
ElecMinimize: Iter:  50  F: -23.723575589765961  |grad|_K:  1.246e-05  alpha:  2.823e-01  linmin:  5.287e-03  t[s]:     53.60
	FillingsUpdate:  mu: -0.121488887  nElectrons: 9.000000
	SubspaceRotationAdjust: set factor to 3.83
ElecMinimize: Iter:  51  F: -23.723620449389855  |grad|_K:  1.069e-05  alpha:  1.442e-01  linmin: -2.527e-03  t[s]:     54.48
	FillingsUpdate:  mu: -0.119954288  nElectrons: 9.000000
	SubspaceRotationAdjust: set factor to 4.35
ElecMinimize: Iter:  52  F: -23.723710487300778  |grad|_K:  7.415e-06  alpha:  2.365e-01  linmin:  2.450e-03  t[s]:     55.36
	FillingsUpdate:  mu: -0.120236694  nElectrons: 9.000000
	SubspaceRotationAdjust: set factor to 4.43
ElecMinimize: Iter:  53  F: -23.723735263588338  |grad|_K:  5.933e-06  alpha:  1.918e-01  linmin: -4.127e-04  t[s]:     56.24
	FillingsUpdate:  mu: -0.119963572  nElectrons: 9.000000
	SubspaceRotationAdjust: set factor to 4.12
ElecMinimize: Iter:  54  F: -23.723748930953661  |grad|_K:  5.695e-06  alpha:  8.030e-02  linmin: -9.526e-03  t[s]:     57.11
ElecMinimize: 	Step increased F by 4.594906e-07, reducing alpha to 2.659229e-03.
	FillingsUpdate:  mu: -0.119856799  nElectrons: 9.000000
	SubspaceRotationAdjust: set factor to 4.75
ElecMinimize: Iter:  55  F: -23.723749572291247  |grad|_K:  5.957e-06  alpha:  2.659e-03  linmin: -2.016e-02  t[s]:     58.56
ElecMinimize: 	Predicted alpha/alphaT>3.000000, increasing alphaT to 7.977686e-03.
ElecMinimize: 	Predicted alpha/alphaT>3.000000, increasing alphaT to 2.393306e-02.
	FillingsUpdate:  mu: -0.117794669  nElectrons: 9.000000
	SubspaceRotationAdjust: set factor to 3.05
ElecMinimize: Iter:  56  F: -23.723755174674370  |grad|_K:  1.129e-05  alpha:  2.499e-02  linmin: -3.244e-03  t[s]:     60.03
	FillingsUpdate:  mu: -0.114306748  nElectrons: 9.000000
	SubspaceRotationAdjust: set factor to 1.77
ElecMinimize: Iter:  57  F: -23.723790630988560  |grad|_K:  1.523e-05  alpha:  6.166e-02  linmin:  7.835e-04  t[s]:     60.91
	FillingsUpdate:  mu: -0.114643060  nElectrons: 9.000000
	SubspaceRotationAdjust: set factor to 1.14
ElecMinimize: Iter:  58  F: -23.723791234572566  |grad|_K:  1.217e-05  alpha:  1.835e-03  linmin: -1.995e-04  t[s]:     61.80
ElecMinimize: 	Predicted alpha/alphaT>3.000000, increasing alphaT to 5.504596e-03.
ElecMinimize: 	Predicted alpha/alphaT>3.000000, increasing alphaT to 1.651379e-02.
	FillingsUpdate:  mu: -0.118113370  nElectrons: 9.000000
	SubspaceRotationAdjust: set factor to 1.99
ElecMinimize: Iter:  59  F: -23.723796988869587  |grad|_K:  7.273e-06  alpha:  1.078e-02  linmin:  3.823e-04  t[s]:     63.25
	FillingsUpdate:  mu: -0.118904605  nElectrons: 9.000000
	SubspaceRotationAdjust: set factor to 2.06
ElecMinimize: Iter:  60  F: -23.723798802799905  |grad|_K:  6.708e-06  alpha:  1.327e-02  linmin: -1.473e-03  t[s]:     64.13
ElecMinimize: 	Predicted alpha/alphaT>3.000000, increasing alphaT to 3.981991e-02.
ElecMinimize: 	Predicted alpha/alphaT>3.000000, increasing alphaT to 1.194597e-01.
	FillingsUpdate:  mu: -0.122981136  nElectrons: 9.000000
	SubspaceRotationAdjust: set factor to 2.11
ElecMinimize: Iter:  61  F: -23.723808793372218  |grad|_K:  6.465e-06  alpha:  7.595e-02  linmin: -3.567e-04  t[s]:     65.59
	FillingsUpdate:  mu: -0.123446872  nElectrons: 9.000000
	SubspaceRotationAdjust: set factor to 2.23
ElecMinimize: Iter:  62  F: -23.723817816418496  |grad|_K:  5.583e-06  alpha:  7.532e-02  linmin:  3.312e-05  t[s]:     66.47
	FillingsUpdate:  mu: -0.123420376  nElectrons: 9.000000
	SubspaceRotationAdjust: set factor to 2.98
ElecMinimize: Iter:  63  F: -23.723824398820927  |grad|_K:  6.036e-06  alpha:  7.620e-02  linmin: -1.181e-03  t[s]:     67.36
	FillingsUpdate:  mu: -0.121529740  nElectrons: 9.000000
	SubspaceRotationAdjust: set factor to 2.71
ElecMinimize: Iter:  64  F: -23.723830650628386  |grad|_K:  4.124e-06  alpha:  2.642e-02  linmin:  5.753e-04  t[s]:     68.24
	FillingsUpdate:  mu: -0.120181681  nElectrons: 9.000000
	SubspaceRotationAdjust: set factor to 2.69
ElecMinimize: Iter:  65  F: -23.723831355544593  |grad|_K:  4.102e-06  alpha:  1.933e-02  linmin: -1.141e-03  t[s]:     69.12
	FillingsUpdate:  mu: -0.118721706  nElectrons: 9.000000
	SubspaceRotationAdjust: set factor to 1.82
ElecMinimize: Iter:  66  F: -23.723832638340106  |grad|_K:  6.806e-06  alpha:  2.032e-02  linmin:  1.933e-04  t[s]:     69.99
	FillingsUpdate:  mu: -0.117415942  nElectrons: 9.000000
	SubspaceRotationAdjust: set factor to 1.08
	SubspaceRotationAdjust: resetting CG because factor has changed by 0.134193
ElecMinimize: 	State modified externally: resetting search direction.
ElecMinimize: Iter:  67  F: -23.723832951847449  |grad|_K:  6.544e-06  alpha:  6.941e-03
ElecMinimize: 	Predicted alpha/alphaT>3.000000, increasing alphaT to 2.082156e-02.
	FillingsUpdate:  mu: -0.121555353  nElectrons: 9.000000
	SubspaceRotationAdjust: set factor to 1.72
ElecMinimize: Iter:  68  F: -23.723841099242058  |grad|_K:  3.211e-06  alpha:  5.359e-02  linmin: -3.306e-02  t[s]:     72.51
ElecMinimize: 	Predicted alpha/alphaT>3.000000, increasing alphaT to 1.607795e-01.
	FillingsUpdate:  mu: -0.122737152  nElectrons: 9.000000
	SubspaceRotationAdjust: set factor to 1.7
ElecMinimize: Iter:  69  F: -23.723850751821047  |grad|_K:  2.769e-06  alpha:  2.150e-01  linmin: -3.743e-02  t[s]:     73.68
	FillingsUpdate:  mu: -0.121560011  nElectrons: 9.000000
	SubspaceRotationAdjust: set factor to 1.55
ElecMinimize: Iter:  70  F: -23.723856550770300  |grad|_K:  1.884e-06  alpha:  6.916e-02  linmin: -1.598e-02  t[s]:     74.56
	FillingsUpdate:  mu: -0.121202748  nElectrons: 9.000000
	SubspaceRotationAdjust: set factor to 1.56
ElecMinimize: Iter:  71  F: -23.723857045842244  |grad|_K:  2.217e-06  alpha:  1.539e-02  linmin: -2.816e-03  t[s]:     75.44
	FillingsUpdate:  mu: -0.120066064  nElectrons: 9.000000
	SubspaceRotationAdjust: set factor to 0.849
ElecMinimize: Iter:  72  F: -23.723857575422734  |grad|_K:  5.374e-06  alpha:  2.248e-02  linmin:  5.746e-04  t[s]:     76.32
ElecMinimize: 	Step increased F by 4.865477e-10, reducing alpha to 2.836093e-05.
	FillingsUpdate:  mu: -0.120056359  nElectrons: 9.000000
	SubspaceRotationAdjust: set factor to 0.493
ElecMinimize: Iter:  73  F: -23.723857575789154  |grad|_K:  4.121e-06  alpha:  2.836e-05  linmin: -4.497e-05  t[s]:     77.74
ElecMinimize: 	Predicted alpha/alphaT>3.000000, increasing alphaT to 8.508278e-05.
ElecMinimize: 	Predicted alpha/alphaT>3.000000, increasing alphaT to 2.552483e-04.
ElecMinimize: 	Predicted alpha/alphaT>3.000000, increasing alphaT to 7.657450e-04.
	FillingsUpdate:  mu: -0.119331239  nElectrons: 9.000000
	SubspaceRotationAdjust: set factor to 0.276
ElecMinimize: Iter:  74  F: -23.723857801451874  |grad|_K:  4.417e-06  alpha:  4.846e-03  linmin:  4.801e-05  t[s]:     79.22
	FillingsUpdate:  mu: -0.118668418  nElectrons: 9.000000
	SubspaceRotationAdjust: set factor to 0.154
ElecMinimize: Iter:  75  F: -23.723858038721133  |grad|_K:  4.197e-06  alpha:  4.965e-03  linmin:  3.486e-06  t[s]:     80.11
	FillingsUpdate:  mu: -0.117847409  nElectrons: 9.000000
	SubspaceRotationAdjust: set factor to 0.0858
	SubspaceRotationAdjust: resetting CG because factor has changed by 0.0795258
ElecMinimize: 	State modified externally: resetting search direction.
ElecMinimize: Iter:  76  F: -23.723858505969421  |grad|_K:  3.082e-06  alpha:  9.699e-03
ElecMinimize: 	Predicted alpha/alphaT>3.000000, increasing alphaT to 2.909700e-02.
ElecMinimize: 	Predicted alpha/alphaT>3.000000, increasing alphaT to 8.729099e-02.
	FillingsUpdate:  mu: -0.121207292  nElectrons: 9.000000
	SubspaceRotationAdjust: set factor to 0.116
ElecMinimize: Iter:  77  F: -23.723864112620184  |grad|_K:  1.043e-06  alpha:  2.188e-01  linmin: -2.652e-02  t[s]:     82.93
ElecMinimize: 	Predicted alpha/alphaT>3.000000, increasing alphaT to 6.564419e-01.
	FillingsUpdate:  mu: -0.121125923  nElectrons: 9.000000
	SubspaceRotationAdjust: set factor to 0.117
ElecMinimize: Iter:  78  F: -23.723868134047322  |grad|_K:  4.773e-07  alpha:  1.245e+00  linmin:  1.834e-04  t[s]:     84.09
	FillingsUpdate:  mu: -0.121298518  nElectrons: 9.000000
	SubspaceRotationAdjust: set factor to 0.112
ElecMinimize: Iter:  79  F: -23.723868514518088  |grad|_K:  3.741e-07  alpha:  6.314e-01  linmin:  1.477e-04  t[s]:     84.97
	FillingsUpdate:  mu: -0.121249349  nElectrons: 9.000000
	SubspaceRotationAdjust: set factor to 0.117
ElecMinimize: Iter:  80  F: -23.723868836548117  |grad|_K:  3.559e-07  alpha:  8.459e-01  linmin:  3.606e-07  t[s]:     85.85
	FillingsUpdate:  mu: -0.120991118  nElectrons: 9.000000
	SubspaceRotationAdjust: set factor to 0.112
ElecMinimize: Iter:  81  F: -23.723869091263406  |grad|_K:  2.764e-07  alpha:  7.266e-01  linmin:  1.763e-05  t[s]:     86.73
	FillingsUpdate:  mu: -0.120947053  nElectrons: 9.000000
	SubspaceRotationAdjust: set factor to 0.117
ElecMinimize: Iter:  82  F: -23.723869272645508  |grad|_K:  2.378e-07  alpha:  8.656e-01  linmin:  1.413e-06  t[s]:     87.61
	FillingsUpdate:  mu: -0.121017476  nElectrons: 9.000000
	SubspaceRotationAdjust: set factor to 0.119
ElecMinimize: Iter:  83  F: -23.723869363521921  |grad|_K:  1.546e-07  alpha:  5.826e-01  linmin: -1.714e-06  t[s]:     88.51
	FillingsUpdate:  mu: -0.121035163  nElectrons: 9.000000
	SubspaceRotationAdjust: set factor to 0.128
ElecMinimize: Iter:  84  F: -23.723869403181961  |grad|_K:  1.340e-07  alpha:  6.005e-01  linmin:  7.887e-07  t[s]:     89.39
	FillingsUpdate:  mu: -0.121036960  nElectrons: 9.000000
	SubspaceRotationAdjust: set factor to 0.145
ElecMinimize: Iter:  85  F: -23.723869434229250  |grad|_K:  9.108e-08  alpha:  6.268e-01  linmin:  2.772e-06  t[s]:     90.27
	FillingsUpdate:  mu: -0.121059072  nElectrons: 9.000000
	SubspaceRotationAdjust: set factor to 0.171
ElecMinimize: Iter:  86  F: -23.723869448058544  |grad|_K:  7.859e-08  alpha:  6.056e-01  linmin:  1.718e-06  t[s]:     91.15
	FillingsUpdate:  mu: -0.121071129  nElectrons: 9.000000
	SubspaceRotationAdjust: set factor to 0.21
ElecMinimize: Iter:  87  F: -23.723869457154706  |grad|_K:  6.875e-08  alpha:  5.345e-01  linmin:  1.144e-06  t[s]:     92.03
	FillingsUpdate:  mu: -0.121064822  nElectrons: 9.000000
	SubspaceRotationAdjust: set factor to 0.254
ElecMinimize: Iter:  88  F: -23.723869465941991  |grad|_K:  5.671e-08  alpha:  6.779e-01  linmin:  2.813e-06  t[s]:     92.93
ElecMinimize: Converged (|Delta F|<1.000000e-08 for 2 iters).
Setting wave functions to eigenvectors of Hamiltonian

# Ionic positions in lattice coordinates:
ion Rb   0.000000000000000   0.000000000000000   0.000000000000000 0

# Forces in Lattice coordinates:
force Rb   0.000000000000000  -0.000000000000000   0.000000000000000 0

# Energy components:
   Eewald =      -45.1200652508316438
       EH =      -26.7617602891918942
     Eloc =       44.4224246824094635
      Enl =       -0.9363256570364297
   Epulay =        0.0000000020872279
      Exc =       -4.2741448891289595
       KE =        8.9460020370275259
-------------------------------------
     Etot =      -23.7238693646647150
       TS =        0.0000001012772761
-------------------------------------
        F =      -23.7238694659419913

IonicMinimize: Iter:   0  F: -23.723869465941991  |grad|_K:  0.000e+00  t[s]:     93.02
IonicMinimize: Converged (|grad|_K<1.000000e-04).

#--- Lowdin population analysis ---
# oxidation-state Rb +0.926

End date and time: Sun Jan 16 15:47:35 2022  (Duration: 0-0:01:33.05)
Done!
