0.68
--------------------------------------------------------------------------
The library attempted to open the following supporting CUDA libraries,
but each of them failed.  CUDA-aware support is disabled.
libcuda.so.1: cannot open shared object file: No such file or directory
libcuda.dylib: cannot open shared object file: No such file or directory
/usr/lib64/libcuda.so.1: cannot open shared object file: No such file or directory
/usr/lib64/libcuda.dylib: cannot open shared object file: No such file or directory
If you are not interested in CUDA-aware support, then run with
--mca opal_warn_on_missing_libcuda 0 to suppress this message.  If you are interested
in CUDA-aware support, then try setting LD_LIBRARY_PATH to the location
of libcuda.so.1 to get passed this issue.
--------------------------------------------------------------------------
--------------------------------------------------------------------------
No OpenFabrics connection schemes reported that they were able to be
used on a specific port.  As such, the openib BTL (OpenFabrics
support) will be disabled for this port.

  Local host:           d-4-1-2
  Local device:         mlx5_1
  Local port:           1
  CPCs attempted:       rdmacm, udcm
--------------------------------------------------------------------------

*************** JDFTx 1.6.0 (git hash 42ebbcc2) ***************

Start date and time: Sun Jan 16 15:46:02 2022
Executable jdftx with command-line: -i Rubidium.in
Running on hosts (process indices):  d-4-1-2 (0-18)
Divided in process groups (process indices):  0 (0)  1 (1)  2 (2)  3 (3)  4 (4)  5 (5)  6 (6)  7 (7)  8 (8)  9 (9)  10 (10)  11 (11)  12 (12)  13 (13)  14 (14)  15 (15)  16 (16)  17 (17)  18 (18)
Resource initialization completed at t[s]:      0.00
Run totals: 19 processes, 48 threads, 0 GPUs


Input parsed successfully to the following command list (including defaults):

basis kpoint-dependent
coords-type Lattice
core-overlap-check vector
coulomb-interaction Slab 001
davidson-band-ratio 1.1
dump End None
dump-name $INPUT.$VAR
elec-cutoff 20 100
elec-eigen-algo Davidson
elec-ex-corr gga-PBE
elec-smearing Fermi 1e-05
electronic-minimize  \
	dirUpdateScheme      FletcherReeves \
	linminMethod         DirUpdateRecommended \
	nIterations          10000 \
	history              15 \
	knormThreshold       0 \
	energyDiffThreshold  1e-08 \
	nEnergyDiff          2 \
	alphaTstart          1 \
	alphaTmin            1e-10 \
	updateTestStepSize   yes \
	alphaTreduceFactor   0.1 \
	alphaTincreaseFactor 3 \
	nAlphaAdjustMax      3 \
	wolfeEnergy          0.0001 \
	wolfeGradient        0.9 \
	fdTest               no
exchange-regularization WignerSeitzTruncated
fluid None
fluid-ex-corr (null) lda-PZ
fluid-gummel-loop 10 1.000000e-05
fluid-minimize  \
	dirUpdateScheme      PolakRibiere \
	linminMethod         DirUpdateRecommended \
	nIterations          100 \
	history              15 \
	knormThreshold       0 \
	energyDiffThreshold  0 \
	nEnergyDiff          2 \
	alphaTstart          1 \
	alphaTmin            1e-10 \
	updateTestStepSize   yes \
	alphaTreduceFactor   0.1 \
	alphaTincreaseFactor 3 \
	nAlphaAdjustMax      3 \
	wolfeEnergy          0.0001 \
	wolfeGradient        0.9 \
	fdTest               no
fluid-solvent H2O 55.338 ScalarEOS \
	epsBulk 78.4 \
	pMol 0.92466 \
	epsInf 1.77 \
	Pvap 1.06736e-10 \
	sigmaBulk 4.62e-05 \
	Rvdw 2.61727 \
	Res 1.42 \
	tauNuc 343133 \
	poleEl 15 7 1
forces-output-coords Positions
ion Rb   0.000000000000000   0.000000000000000   0.000000000000000 0
ion-species SG15/$ID_ONCV_PBE.upf
ion-width 0
ionic-minimize  \
	dirUpdateScheme      L-BFGS \
	linminMethod         DirUpdateRecommended \
	nIterations          0 \
	history              15 \
	knormThreshold       0.0001 \
	energyDiffThreshold  1e-06 \
	nEnergyDiff          2 \
	alphaTstart          1 \
	alphaTmin            1e-10 \
	updateTestStepSize   yes \
	alphaTreduceFactor   0.1 \
	alphaTincreaseFactor 3 \
	nAlphaAdjustMax      3 \
	wolfeEnergy          0.0001 \
	wolfeGradient        0.9 \
	fdTest               no
kpoint   0.000000000000   0.000000000000   0.000000000000  1.00000000000000
kpoint-folding 48 48 1 
latt-move-scale 1 1 1
latt-scale 0.68 0.68 1 
lattice  \
	   4.727486978767153   -2.363743489383575    0.000000000000000  \
	  -0.000000000000000    4.094123819672498    0.000000000000000  \
	   0.000000000000000    0.000000000000000   40.000000000000000 
lattice-minimize  \
	dirUpdateScheme      L-BFGS \
	linminMethod         DirUpdateRecommended \
	nIterations          0 \
	history              15 \
	knormThreshold       0 \
	energyDiffThreshold  1e-06 \
	nEnergyDiff          2 \
	alphaTstart          1 \
	alphaTmin            1e-10 \
	updateTestStepSize   yes \
	alphaTreduceFactor   0.1 \
	alphaTincreaseFactor 3 \
	nAlphaAdjustMax      3 \
	wolfeEnergy          0.0001 \
	wolfeGradient        0.9 \
	fdTest               no
lcao-params -1 1e-06 1e-05
pcm-variant GLSSA13
spintype no-spin
subspace-rotation-factor 1 yes
symmetries automatic
symmetry-threshold 0.0001



---------- Setting up symmetries ----------

Found 24 point-group symmetries of the bravais lattice
Found 24 space-group symmetries with basis
Applied RMS atom displacement 0 bohrs to make symmetries exact.

---------- Initializing the Grid ----------
R = 
[      3.21469     -1.60735            0  ]
[            0        2.784            0  ]
[            0            0           40  ]
unit cell volume = 357.989
G =
[    1.95452    1.12844         -0  ]
[          0    2.25689         -0  ]
[         -0         -0    0.15708  ]
Minimum fftbox size, Smin = [  16  16  184  ]
Chosen fftbox size, S = [  16  16  192  ]

---------- Initializing tighter grid for wavefunction operations ----------
R = 
[      3.21469     -1.60735            0  ]
[            0        2.784            0  ]
[            0            0           40  ]
unit cell volume = 357.989
G =
[    1.95452    1.12844         -0  ]
[          0    2.25689         -0  ]
[         -0         -0    0.15708  ]
Minimum fftbox size, Smin = [  16  16  164  ]
Chosen fftbox size, S = [  16  16  168  ]

---------- Exchange Correlation functional ----------
Initalized PBE GGA exchange.
Initalized PBE GGA correlation.

---------- Setting up pseudopotentials ----------
Width of ionic core gaussian charges (only for fluid interactions / plotting) set to 0

Reading pseudopotential file '/home/gridsan/aligho/DFT/build-Nov24/pseudopotentials/SG15/Rb_ONCV_PBE.upf':
  'Rb' pseudopotential, 'PBE' functional
  Generated using ONCVPSP code by D. R. Hamann
  Author: Martin Schlipf and Francois Gygi  Date: 150915.
  9 valence electrons, 3 orbitals, 6 projectors, 2308 radial grid points, with lMax = 2
  Transforming local potential to a uniform radial grid of dG=0.02 with 1741 points.
  Transforming nonlocal projectors to a uniform radial grid of dG=0.02 with 432 points.
    4S    l: 0   occupation:  2.0   eigenvalue: -1.172069
    4P    l: 1   occupation:  6.0   eigenvalue: -0.586674
    5S    l: 0   occupation:  1.0   eigenvalue: -0.082006
  Transforming atomic orbitals to a uniform radial grid of dG=0.02 with 432 points.
  Core radius for overlap checks: 2.60 bohrs.
  Reading pulay file /home/gridsan/aligho/DFT/build-Nov24/pseudopotentials/SG15/Rb_ONCV_PBE.pulay ... using dE_dnG = -1.360715e-05 computed for Ecut = 20.

Initialized 1 species with 1 total atoms.

Folded 1 k-points by 48x48x1 to 2304 k-points.

---------- Setting up k-points, bands, fillings ----------
Reduced to 217 k-points under symmetry. 
Computing the number of bands and number of electrons
Calculating initial fillings.
nElectrons:   9.000000   nBands: 6   nStates: 217

----- Setting up reduced wavefunction bases (one per k-point) -----
average nbasis = 1529.408 , ideal nbasis = 1529.354

---------- Setting up coulomb interaction ----------
Initialized slab truncation along lattice direction 001

---------- Setting up 2D ewald sum ----------
Optimum gaussian width for ewald sums = 1.784667 bohr.
Real space sums over 289 unit cells with max indices [  8  8  0  ]
Reciprocal space sums over 81 terms with max indices [  4  4  0  ]

---------- Allocating electronic variables ----------
Initializing wave functions:  linear combination of atomic orbitals
Note: number of bands (6) exceeds available atomic orbitals (5)
Rb pseudo-atom occupations:   s ( 2 1 )  p ( 6 )
	FillingsUpdate:  mu: +0.044861317  nElectrons: 9.000000
LCAOMinimize: Iter:   0  F: -21.4898042629114983  |grad|_K:  5.234e-04  alpha:  1.000e+00
LCAOMinimize: 	Wrong curvature in test step, increasing alphaT to 3.000000e+00.
	FillingsUpdate:  mu: +0.092618455  nElectrons: 9.000000
LCAOMinimize: Iter:   1  F: -21.4927038657688350  |grad|_K:  2.573e-05  alpha: -1.409e+00  linmin:  1.158e-02  cgtest: -6.495e-01  t[s]:      2.21
	FillingsUpdate:  mu: +0.092222901  nElectrons: 9.000000
LCAOMinimize: Iter:   2  F: -21.4927056475334908  |grad|_K:  1.497e-05  alpha:  8.833e-01  linmin:  1.330e-03  cgtest:  5.316e-01  t[s]:      2.85
	FillingsUpdate:  mu: +0.092209770  nElectrons: 9.000000
LCAOMinimize: Iter:   3  F: -21.4927064977598370  |grad|_K:  7.926e-07  alpha:  9.734e-01  linmin:  3.577e-03  cgtest: -3.837e-02  t[s]:      3.49
	FillingsUpdate:  mu: +0.092222160  nElectrons: 9.000000
LCAOMinimize: Iter:   4  F: -21.4927065001589774  |grad|_K:  6.834e-08  alpha:  9.851e-01  linmin: -2.167e-03  cgtest:  1.267e-01  t[s]:      4.12
LCAOMinimize: Encountered beta<0, resetting CG.
LCAOMinimize: Converged (|Delta F|<1.000000e-06 for 2 iters).


---- Citations for features of the code used in this run ----

   Software package:
      R. Sundararaman, K. Letchworth-Weaver, K.A. Schwarz, D. Gunceler, Y. Ozhabes and T.A. Arias, 'JDFTx: software for joint density-functional theory', SoftwareX 6, 278 (2017)

   gga-PBE exchange-correlation functional:
      J.P. Perdew, K. Burke and M. Ernzerhof, Phys. Rev. Lett. 77, 3865 (1996)

   Pseudopotentials:
      M Schlipf and F Gygi, Comput. Phys. Commun. 196, 36 (2015)

   Truncated Coulomb potentials:
      R. Sundararaman and T.A. Arias, Phys. Rev. B 87, 165122 (2013)

   Total energy minimization with Auxiliary Hamiltonian:
      C. Freysoldt, S. Boeck, and J. Neugebauer, Phys. Rev. B 79, 241103(R) (2009)

This list may not be complete. Please suggest additional citations or
report any other bugs at https://github.com/shankar1729/jdftx/issues

Initialization completed successfully at t[s]:      4.20


-------- Electronic minimization -----------
	FillingsUpdate:  mu: +0.092222160  nElectrons: 9.000000
ElecMinimize: Iter:   0  F: -21.492706500159194  |grad|_K:  7.016e-04  alpha:  1.000e+00
[d-4-1-2:47747] 18 more processes have sent help message help-mpi-common-cuda.txt / dlopen failed
[d-4-1-2:47747] Set MCA parameter "orte_base_help_aggregate" to 0 to see all help / error messages
[d-4-1-2:47747] 18 more processes have sent help message help-mpi-btl-openib-cpc-base.txt / no cpcs for port
	FillingsUpdate:  mu: -0.057389727  nElectrons: 9.000000
	SubspaceRotationAdjust: set factor to 1
ElecMinimize: Iter:   1  F: -22.171833422177976  |grad|_K:  4.070e-04  alpha:  7.133e-01  linmin:  9.127e-03  t[s]:      5.50
	FillingsUpdate:  mu: +0.003779973  nElectrons: 9.000000
	SubspaceRotationAdjust: set factor to 1
ElecMinimize: Iter:   2  F: -22.340104249117314  |grad|_K:  4.191e-04  alpha:  5.620e-01  linmin:  8.696e-04  t[s]:      6.30
	FillingsUpdate:  mu: +0.021872552  nElectrons: 9.000000
	SubspaceRotationAdjust: set factor to 1.01
ElecMinimize: Iter:   3  F: -22.403179683035543  |grad|_K:  1.885e-04  alpha:  2.137e-01  linmin: -7.668e-04  t[s]:      7.10
ElecMinimize: 	Wrong curvature in test step, increasing alphaT to 6.410087e-01.
	FillingsUpdate:  mu: -0.039088085  nElectrons: 9.000000
	SubspaceRotationAdjust: set factor to 1.1
ElecMinimize: Iter:   4  F: -22.435209114099496  |grad|_K:  1.425e-04  alpha: -4.885e+00  linmin: -7.548e-03  t[s]:      7.84
	FillingsUpdate:  mu: -0.054622463  nElectrons: 9.000000
	SubspaceRotationAdjust: set factor to 1.21
ElecMinimize: Iter:   5  F: -22.442431255157683  |grad|_K:  1.282e-04  alpha:  5.082e-02  linmin: -9.836e-03  t[s]:      8.65
ElecMinimize: 	Predicted alpha/alphaT>3.000000, increasing alphaT to 1.524684e-01.
ElecMinimize: 	Predicted alpha/alphaT>3.000000, increasing alphaT to 4.574053e-01.
	FillingsUpdate:  mu: -0.163588628  nElectrons: 9.000000
	SubspaceRotationAdjust: set factor to 1.28
ElecMinimize: Iter:   6  F: -22.486766303290288  |grad|_K:  1.724e-04  alpha:  3.160e-01  linmin:  1.386e-03  t[s]:      9.96
	FillingsUpdate:  mu: -0.155920844  nElectrons: 9.000000
	SubspaceRotationAdjust: set factor to 1.31
ElecMinimize: Iter:   7  F: -22.488666883224656  |grad|_K:  1.804e-04  alpha:  1.552e-03  linmin: -1.190e-03  t[s]:     10.76
ElecMinimize: 	Predicted alpha/alphaT>3.000000, increasing alphaT to 4.655754e-03.
ElecMinimize: 	Wrong curvature in test step, increasing alphaT to 1.396726e-02.
	FillingsUpdate:  mu: -0.164893210  nElectrons: 9.000000
	SubspaceRotationAdjust: set factor to 1.34
ElecMinimize: Iter:   8  F: -22.489746031660495  |grad|_K:  1.811e-04  alpha: -1.047e-02  linmin: -3.415e-03  t[s]:     11.76
	FillingsUpdate:  mu: -0.180326041  nElectrons: 9.000000
	SubspaceRotationAdjust: set factor to 1.39
ElecMinimize: Iter:   9  F: -22.515838630881820  |grad|_K:  1.811e-04  alpha:  2.333e-02  linmin: -5.680e-03  t[s]:     12.56
ElecMinimize: 	Wrong curvature in test step, increasing alphaT to 6.999446e-02.
	FillingsUpdate:  mu: -0.163602361  nElectrons: 9.000000
	SubspaceRotationAdjust: set factor to 1.47
ElecMinimize: Iter:  10  F: -22.540693879439878  |grad|_K:  1.598e-04  alpha: -8.777e-03  linmin: -7.099e-03  t[s]:     13.32
	FillingsUpdate:  mu: -0.182397625  nElectrons: 9.000000
	SubspaceRotationAdjust: set factor to 1.61
ElecMinimize: Iter:  11  F: -22.563649494823412  |grad|_K:  1.484e-04  alpha:  2.255e-02  linmin: -9.126e-03  t[s]:     14.11
ElecMinimize: 	Step increased F by 1.461893e-03, reducing alpha to 7.302415e-04.
	FillingsUpdate:  mu: -0.182421978  nElectrons: 9.000000
	SubspaceRotationAdjust: set factor to 0.869
ElecMinimize: Iter:  12  F: -22.563843192114341  |grad|_K:  5.146e-04  alpha:  7.302e-04  linmin:  5.955e-03  t[s]:     15.42
ElecMinimize: 	Bad step direction: g.d > 0.
ElecMinimize: 	Undoing step.
ElecMinimize: 	Step failed: resetting search direction.
	FillingsUpdate:  mu: -0.182421978  nElectrons: 9.000000
	SubspaceRotationAdjust: set factor to 0.498
ElecMinimize: Iter:  13  F: -22.563843192114440  |grad|_K:  3.893e-04  alpha:  0.000e+00
	FillingsUpdate:  mu: -0.182136461  nElectrons: 9.000000
	SubspaceRotationAdjust: set factor to 0.6
ElecMinimize: Iter:  14  F: -22.563974503155595  |grad|_K:  1.464e-04  alpha:  5.477e-04  linmin: -3.783e-02  t[s]:     16.75
ElecMinimize: 	Predicted alpha/alphaT>3.000000, increasing alphaT to 1.642969e-03.
ElecMinimize: 	Predicted alpha/alphaT>3.000000, increasing alphaT to 4.928906e-03.
ElecMinimize: 	Predicted alpha/alphaT>3.000000, increasing alphaT to 1.478672e-02.
	FillingsUpdate:  mu: -0.177339936  nElectrons: 9.000000
	SubspaceRotationAdjust: set factor to 0.627
ElecMinimize: Iter:  15  F: -22.566994909519192  |grad|_K:  1.280e-04  alpha:  3.072e-02  linmin: -5.381e-02  t[s]:     18.07
ElecMinimize: 	Predicted alpha/alphaT>3.000000, increasing alphaT to 9.215279e-02.
ElecMinimize: 	Predicted alpha/alphaT>3.000000, increasing alphaT to 2.764584e-01.
	FillingsUpdate:  mu: -0.115542443  nElectrons: 9.000000
	SubspaceRotationAdjust: set factor to 0.641
ElecMinimize: Iter:  16  F: -22.586006290445251  |grad|_K:  1.419e-04  alpha:  2.822e-01  linmin:  1.751e-02  t[s]:     19.37
ElecMinimize: 	Wrong curvature in test step, increasing alphaT to 8.465601e-01.
	FillingsUpdate:  mu: -0.049289944  nElectrons: 9.000000
	SubspaceRotationAdjust: set factor to 0.646
ElecMinimize: Iter:  17  F: -22.594384919596674  |grad|_K:  2.225e-04  alpha: -4.007e-01  linmin:  1.639e-02  t[s]:     20.11
ElecMinimize: 	Bad step direction: g.d > 0.
ElecMinimize: 	Undoing step.
ElecMinimize: 	Step failed: resetting search direction.
	FillingsUpdate:  mu: -0.049289944  nElectrons: 9.000000
	SubspaceRotationAdjust: set factor to 0.655
ElecMinimize: Iter:  18  F: -22.594384919596816  |grad|_K:  2.195e-04  alpha:  0.000e+00
	FillingsUpdate:  mu: -0.058105722  nElectrons: 9.000000
	SubspaceRotationAdjust: set factor to 0.695
ElecMinimize: Iter:  19  F: -22.624346541178280  |grad|_K:  8.153e-05  alpha:  2.458e-01  linmin: -3.138e-03  t[s]:     21.43
ElecMinimize: 	Wrong curvature in test step, increasing alphaT to 7.374445e-01.
	FillingsUpdate:  mu: -0.063700732  nElectrons: 9.000000
	SubspaceRotationAdjust: set factor to 0.848
ElecMinimize: Iter:  20  F: -22.636447313889001  |grad|_K:  4.019e-05  alpha: -1.500e-01  linmin: -1.507e-02  t[s]:     22.17
ElecMinimize: 	Wrong curvature in test step, increasing alphaT to 3.000000e+00.
	FillingsUpdate:  mu: -0.136560454  nElectrons: 9.000000
	SubspaceRotationAdjust: set factor to 0.872
ElecMinimize: Iter:  21  F: -22.658501672280671  |grad|_K:  1.269e-04  alpha: -3.205e-01  linmin:  5.227e-03  t[s]:     22.91
ElecMinimize: 	Bad step direction: g.d > 0.
ElecMinimize: 	Undoing step.
ElecMinimize: 	Step failed: resetting search direction.
	FillingsUpdate:  mu: -0.136560454  nElectrons: 9.000000
	SubspaceRotationAdjust: set factor to 0.898
ElecMinimize: Iter:  22  F: -22.658501672280607  |grad|_K:  1.261e-04  alpha:  0.000e+00
	FillingsUpdate:  mu: -0.081474137  nElectrons: 9.000000
	SubspaceRotationAdjust: set factor to 1.04
ElecMinimize: Iter:  23  F: -22.666695067181628  |grad|_K:  4.442e-05  alpha:  2.183e-01  linmin:  4.164e-03  t[s]:     24.25
ElecMinimize: 	Wrong curvature in test step, increasing alphaT to 6.547647e-01.
	FillingsUpdate:  mu: -0.073022545  nElectrons: 9.000000
	SubspaceRotationAdjust: set factor to 1.25
ElecMinimize: Iter:  24  F: -22.669326597640868  |grad|_K:  3.129e-05  alpha: -1.892e-01  linmin: -4.901e-02  t[s]:     24.99
ElecMinimize: 	Predicted alpha/alphaT>3.000000, increasing alphaT to 3.000000e+00.
	FillingsUpdate:  mu: -0.067712061  nElectrons: 9.000000
	SubspaceRotationAdjust: set factor to 1.49
ElecMinimize: Iter:  25  F: -22.674488640904507  |grad|_K:  3.286e-05  alpha:  3.191e-01  linmin: -2.101e-02  t[s]:     26.03
ElecMinimize: 	Wrong curvature in test step, increasing alphaT to 9.573313e-01.
	FillingsUpdate:  mu: -0.094818548  nElectrons: 9.000000
	SubspaceRotationAdjust: set factor to 1.54
ElecMinimize: Iter:  26  F: -22.677976794716546  |grad|_K:  3.550e-05  alpha: -4.398e-01  linmin: -1.488e-02  t[s]:     26.77
	FillingsUpdate:  mu: -0.082211494  nElectrons: 9.000000
	SubspaceRotationAdjust: set factor to 1.6
ElecMinimize: Iter:  27  F: -22.678719019351096  |grad|_K:  2.962e-05  alpha:  1.437e-01  linmin: -2.043e-02  t[s]:     27.56
	FillingsUpdate:  mu: -0.079990976  nElectrons: 9.000000
	SubspaceRotationAdjust: set factor to 1.72
ElecMinimize: Iter:  28  F: -22.679437529721284  |grad|_K:  2.807e-05  alpha:  1.537e-01  linmin: -1.774e-02  t[s]:     28.36
ElecMinimize: 	Predicted alpha/alphaT>3.000000, increasing alphaT to 4.609796e-01.
	FillingsUpdate:  mu: -0.087832276  nElectrons: 9.000000
	SubspaceRotationAdjust: set factor to 1.98
ElecMinimize: Iter:  29  F: -22.679883023514211  |grad|_K:  3.032e-05  alpha:  1.650e-01  linmin: -2.155e-02  t[s]:     29.42
	FillingsUpdate:  mu: -0.100670307  nElectrons: 9.000000
	SubspaceRotationAdjust: set factor to 2.1
ElecMinimize: Iter:  30  F: -22.680045427026648  |grad|_K:  3.477e-05  alpha:  2.468e-01  linmin:  3.331e-02  t[s]:     30.21
ElecMinimize: 	Bad step direction: g.d > 0.
ElecMinimize: 	Undoing step.
ElecMinimize: 	Step failed: resetting search direction.
	FillingsUpdate:  mu: -0.100670307  nElectrons: 9.000000
	SubspaceRotationAdjust: set factor to 2.68
ElecMinimize: Iter:  31  F: -22.680045427026648  |grad|_K:  3.482e-05  alpha:  0.000e+00
ElecMinimize: 	Wrong curvature in test step, increasing alphaT to 7.405399e-01.
	FillingsUpdate:  mu: -0.098060881  nElectrons: 9.000000
	SubspaceRotationAdjust: set factor to 3.67
ElecMinimize: Iter:  32  F: -22.682327958914346  |grad|_K:  2.496e-05  alpha: -1.356e-01  linmin: -2.376e-02  t[s]:     31.48
	FillingsUpdate:  mu: -0.103663745  nElectrons: 9.000000
	SubspaceRotationAdjust: set factor to 3.55
ElecMinimize: Iter:  33  F: -22.682933344264001  |grad|_K:  1.742e-05  alpha:  2.612e-01  linmin: -1.798e-02  t[s]:     32.26
	FillingsUpdate:  mu: -0.074065741  nElectrons: 9.000000
	SubspaceRotationAdjust: set factor to 3.7
ElecMinimize: Iter:  34  F: -22.683195738466530  |grad|_K:  1.867e-05  alpha:  2.593e-01  linmin: -1.584e-02  t[s]:     33.06
ElecMinimize: 	Wrong curvature in test step, increasing alphaT to 7.779904e-01.
	FillingsUpdate:  mu: -0.100923518  nElectrons: 9.000000
	SubspaceRotationAdjust: set factor to 1.81
ElecMinimize: Iter:  35  F: -22.684063487852946  |grad|_K:  1.563e-05  alpha: -4.544e-01  linmin: -1.685e-03  t[s]:     33.80
	FillingsUpdate:  mu: -0.094229150  nElectrons: 9.000000
	SubspaceRotationAdjust: set factor to 2.15
ElecMinimize: Iter:  36  F: -22.684379518848413  |grad|_K:  9.134e-06  alpha:  1.893e-01  linmin: -2.244e-02  t[s]:     34.59
	FillingsUpdate:  mu: -0.080354527  nElectrons: 9.000000
	SubspaceRotationAdjust: set factor to 2.06
ElecMinimize: Iter:  37  F: -22.684404574374522  |grad|_K:  1.084e-05  alpha:  4.236e-01  linmin: -1.735e-03  t[s]:     35.38
	FillingsUpdate:  mu: -0.094848468  nElectrons: 9.000000
	SubspaceRotationAdjust: set factor to 2.3
ElecMinimize: Iter:  38  F: -22.684507227264433  |grad|_K:  1.070e-05  alpha:  3.359e-01  linmin:  3.337e-03  t[s]:     36.17
	FillingsUpdate:  mu: -0.096972451  nElectrons: 9.000000
	SubspaceRotationAdjust: set factor to 2.87
ElecMinimize: Iter:  39  F: -22.684549337154433  |grad|_K:  1.152e-05  alpha:  2.194e-01  linmin: -1.186e-03  t[s]:     36.97
ElecMinimize: 	Predicted alpha/alphaT>3.000000, increasing alphaT to 6.581457e-01.
	FillingsUpdate:  mu: -0.099667451  nElectrons: 9.000000
	SubspaceRotationAdjust: set factor to 3.59
ElecMinimize: Iter:  40  F: -22.684626036519372  |grad|_K:  1.089e-05  alpha:  6.713e-02  linmin: -8.467e-03  t[s]:     38.01
ElecMinimize: 	Wrong curvature in test step, increasing alphaT to 2.013956e-01.
	FillingsUpdate:  mu: -0.095344800  nElectrons: 9.000000
	SubspaceRotationAdjust: set factor to 4.36
ElecMinimize: Iter:  41  F: -22.684692176054700  |grad|_K:  8.662e-06  alpha: -1.188e-01  linmin: -8.006e-03  t[s]:     38.75
	FillingsUpdate:  mu: -0.086024846  nElectrons: 9.000000
	SubspaceRotationAdjust: set factor to 2.24
ElecMinimize: Iter:  42  F: -22.684722454917821  |grad|_K:  4.458e-05  alpha:  6.978e-02  linmin:  1.807e-02  t[s]:     39.55
ElecMinimize: 	Bad step direction: g.d > 0.
ElecMinimize: 	Undoing step.
ElecMinimize: 	Step failed: resetting search direction.
	FillingsUpdate:  mu: -0.086024846  nElectrons: 9.000000
	SubspaceRotationAdjust: set factor to 1.17
ElecMinimize: Iter:  43  F: -22.684722454917821  |grad|_K:  3.231e-05  alpha:  0.000e+00
	FillingsUpdate:  mu: -0.091537686  nElectrons: 9.000000
	SubspaceRotationAdjust: set factor to 1.29
ElecMinimize: Iter:  44  F: -22.684744673983268  |grad|_K:  6.635e-06  alpha:  3.869e-02  linmin: -7.669e-03  t[s]:     40.88
ElecMinimize: 	Predicted alpha/alphaT>3.000000, increasing alphaT to 1.160762e-01.
ElecMinimize: 	Predicted alpha/alphaT>3.000000, increasing alphaT to 3.482287e-01.
	FillingsUpdate:  mu: -0.095157404  nElectrons: 9.000000
	SubspaceRotationAdjust: set factor to 1.3
ElecMinimize: Iter:  45  F: -22.684830345621712  |grad|_K:  8.324e-06  alpha:  9.341e-01  linmin: -6.478e-04  t[s]:     42.17
	FillingsUpdate:  mu: -0.094643642  nElectrons: 9.000000
	SubspaceRotationAdjust: set factor to 1.55
ElecMinimize: Iter:  46  F: -22.684891485975637  |grad|_K:  4.483e-06  alpha:  3.691e-01  linmin: -5.347e-03  t[s]:     42.97
	FillingsUpdate:  mu: -0.090741640  nElectrons: 9.000000
	SubspaceRotationAdjust: set factor to 1.51
ElecMinimize: Iter:  47  F: -22.684911467705614  |grad|_K:  3.253e-06  alpha:  4.322e-01  linmin: -1.671e-03  t[s]:     43.76
	FillingsUpdate:  mu: -0.094437723  nElectrons: 9.000000
	SubspaceRotationAdjust: set factor to 1.37
ElecMinimize: Iter:  48  F: -22.684921134842487  |grad|_K:  2.426e-06  alpha:  3.803e-01  linmin:  4.444e-03  t[s]:     44.55
	FillingsUpdate:  mu: -0.094439751  nElectrons: 9.000000
	SubspaceRotationAdjust: set factor to 1.92
ElecMinimize: Iter:  49  F: -22.684921205261944  |grad|_K:  2.380e-06  alpha:  4.572e-03  linmin: -3.907e-03  t[s]:     45.35
ElecMinimize: 	Predicted alpha/alphaT>3.000000, increasing alphaT to 1.371592e-02.
ElecMinimize: 	Predicted alpha/alphaT>3.000000, increasing alphaT to 4.114777e-02.
ElecMinimize: 	Predicted alpha/alphaT>3.000000, increasing alphaT to 1.234433e-01.
ElecMinimize: 	Step increased F by 2.561532e-04, reducing alpha to 4.561344e-02.
	FillingsUpdate:  mu: -0.094388816  nElectrons: 9.000000
	SubspaceRotationAdjust: set factor to 2.12
ElecMinimize: Iter:  50  F: -22.684922824082722  |grad|_K:  2.293e-06  alpha:  4.561e-02  linmin: -6.684e-03  t[s]:     47.16
ElecMinimize: 	Predicted alpha/alphaT>3.000000, increasing alphaT to 1.368403e-01.
	FillingsUpdate:  mu: -0.091263520  nElectrons: 9.000000
	SubspaceRotationAdjust: set factor to 2.53
ElecMinimize: Iter:  51  F: -22.684926765186923  |grad|_K:  2.342e-06  alpha:  1.449e-01  linmin: -2.807e-03  t[s]:     48.20
	FillingsUpdate:  mu: -0.091374497  nElectrons: 9.000000
	SubspaceRotationAdjust: set factor to 2.32
ElecMinimize: Iter:  52  F: -22.684931310241559  |grad|_K:  3.532e-06  alpha:  2.673e-01  linmin:  1.624e-03  t[s]:     49.00
ElecMinimize: 	Bad step direction: g.d > 0.
ElecMinimize: 	Undoing step.
ElecMinimize: 	Step failed: resetting search direction.
	FillingsUpdate:  mu: -0.091374497  nElectrons: 9.000000
	SubspaceRotationAdjust: set factor to 2.84
ElecMinimize: Iter:  53  F: -22.684931310241488  |grad|_K:  3.493e-06  alpha:  0.000e+00
	FillingsUpdate:  mu: -0.094728147  nElectrons: 9.000000
	SubspaceRotationAdjust: set factor to 2.82
ElecMinimize: Iter:  54  F: -22.684936652548149  |grad|_K:  1.903e-06  alpha:  2.165e-01  linmin:  6.363e-04  t[s]:     50.33
	FillingsUpdate:  mu: -0.093774018  nElectrons: 9.000000
	SubspaceRotationAdjust: set factor to 2.26
ElecMinimize: Iter:  55  F: -22.684938560011325  |grad|_K:  1.822e-06  alpha:  1.394e-01  linmin: -3.940e-03  t[s]:     51.12
ElecMinimize: 	Step increased F by 1.020166e-06, reducing alpha to 5.764847e-03.
	FillingsUpdate:  mu: -0.093197607  nElectrons: 9.000000
	SubspaceRotationAdjust: set factor to 1.6
ElecMinimize: Iter:  56  F: -22.684938707735860  |grad|_K:  1.118e-06  alpha:  5.765e-03  linmin:  1.264e-04  t[s]:     52.41
	FillingsUpdate:  mu: -0.093061375  nElectrons: 9.000000
	SubspaceRotationAdjust: set factor to 1.95
ElecMinimize: Iter:  57  F: -22.684938715820845  |grad|_K:  1.209e-06  alpha:  3.349e-03  linmin: -2.192e-06  t[s]:     53.20
	FillingsUpdate:  mu: -0.092899252  nElectrons: 9.000000
	SubspaceRotationAdjust: set factor to 1.69
ElecMinimize: Iter:  58  F: -22.684938727183145  |grad|_K:  1.520e-06  alpha:  3.888e-03  linmin:  1.115e-06  t[s]:     53.99
	FillingsUpdate:  mu: -0.092701882  nElectrons: 9.000000
	SubspaceRotationAdjust: set factor to 1.15
ElecMinimize: Iter:  59  F: -22.684938745178826  |grad|_K:  1.838e-06  alpha:  3.913e-03  linmin: -2.404e-06  t[s]:     54.78
	FillingsUpdate:  mu: -0.092453265  nElectrons: 9.000000
	SubspaceRotationAdjust: set factor to 0.706
ElecMinimize: Iter:  60  F: -22.684938778297287  |grad|_K:  1.988e-06  alpha:  4.805e-03  linmin: -6.608e-06  t[s]:     55.58
	FillingsUpdate:  mu: -0.092167746  nElectrons: 9.000000
	SubspaceRotationAdjust: set factor to 0.421
ElecMinimize: Iter:  61  F: -22.684938842704330  |grad|_K:  1.932e-06  alpha:  7.569e-03  linmin: -1.043e-05  t[s]:     56.36
	FillingsUpdate:  mu: -0.091947810  nElectrons: 9.000000
	SubspaceRotationAdjust: set factor to 0.275
ElecMinimize: Iter:  62  F: -22.684938945183486  |grad|_K:  1.722e-06  alpha:  1.246e-02  linmin: -4.883e-06  t[s]:     57.15
	FillingsUpdate:  mu: -0.091883505  nElectrons: 9.000000
	SubspaceRotationAdjust: set factor to 0.245
ElecMinimize: Iter:  63  F: -22.684939054949844  |grad|_K:  1.661e-06  alpha:  1.779e-02  linmin: -2.488e-07  t[s]:     57.95
	FillingsUpdate:  mu: -0.092850272  nElectrons: 9.000000
	SubspaceRotationAdjust: set factor to 0.322
ElecMinimize: Iter:  64  F: -22.684939189673909  |grad|_K:  1.896e-06  alpha:  2.446e-02  linmin:  5.419e-07  t[s]:     58.75
ElecMinimize: 	Wrong curvature in test step, increasing alphaT to 7.339337e-02.
	FillingsUpdate:  mu: -0.092086429  nElectrons: 9.000000
	SubspaceRotationAdjust: set factor to 0.323
ElecMinimize: Iter:  65  F: -22.685065227977592  |grad|_K:  5.059e-06  alpha: -3.399e-05  linmin: -5.721e-02  t[s]:     59.49
ElecMinimize: 	Step increased F by 1.333824e-02, reducing alpha to 1.152040e-02.
	FillingsUpdate:  mu: -0.092144516  nElectrons: 9.000000
	SubspaceRotationAdjust: set factor to 0.324
ElecMinimize: Iter:  66  F: -22.685111264420811  |grad|_K:  4.712e-06  alpha:  1.152e-02  linmin:  3.751e-02  t[s]:     60.78
ElecMinimize: 	Bad step direction: g.d > 0.
ElecMinimize: 	Undoing step.
ElecMinimize: 	Step failed: resetting search direction.
	FillingsUpdate:  mu: -0.092144516  nElectrons: 9.000000
	SubspaceRotationAdjust: set factor to 0.326
ElecMinimize: Iter:  67  F: -22.685111264420669  |grad|_K:  4.676e-06  alpha:  0.000e+00
ElecMinimize: 	Predicted alpha/alphaT>3.000000, increasing alphaT to 3.456120e-02.
ElecMinimize: 	Predicted alpha/alphaT>3.000000, increasing alphaT to 1.036836e-01.
ElecMinimize: 	Predicted alpha/alphaT>3.000000, increasing alphaT to 3.110508e-01.
	FillingsUpdate:  mu: -0.092340163  nElectrons: 9.000000
	SubspaceRotationAdjust: set factor to 0.33
ElecMinimize: Iter:  68  F: -22.685125135380297  |grad|_K:  3.483e-06  alpha:  3.179e-01  linmin:  5.517e-05  t[s]:     62.62
	FillingsUpdate:  mu: -0.092913881  nElectrons: 9.000000
	SubspaceRotationAdjust: set factor to 0.337
ElecMinimize: Iter:  69  F: -22.685144653650678  |grad|_K:  1.842e-06  alpha:  8.073e-01  linmin:  4.717e-05  t[s]:     63.41
	FillingsUpdate:  mu: -0.092890446  nElectrons: 9.000000
	SubspaceRotationAdjust: set factor to 0.342
ElecMinimize: Iter:  70  F: -22.685147423797741  |grad|_K:  1.439e-06  alpha:  4.095e-01  linmin:  4.636e-07  t[s]:     64.20
	FillingsUpdate:  mu: -0.092838619  nElectrons: 9.000000
	SubspaceRotationAdjust: set factor to 0.362
ElecMinimize: Iter:  71  F: -22.685148579732310  |grad|_K:  6.244e-07  alpha:  2.795e-01  linmin:  1.268e-07  t[s]:     64.98
	FillingsUpdate:  mu: -0.092847257  nElectrons: 9.000000
	SubspaceRotationAdjust: set factor to 0.383
ElecMinimize: Iter:  72  F: -22.685148962005417  |grad|_K:  5.025e-07  alpha:  4.912e-01  linmin:  7.949e-07  t[s]:     65.78
	FillingsUpdate:  mu: -0.093481797  nElectrons: 9.000000
	SubspaceRotationAdjust: set factor to 0.403
ElecMinimize: Iter:  73  F: -22.685149188442232  |grad|_K:  4.010e-07  alpha:  4.494e-01  linmin:  5.294e-07  t[s]:     66.58
ElecMinimize: 	Wrong curvature in test step, increasing alphaT to 1.348200e+00.
	FillingsUpdate:  mu: -0.102646427  nElectrons: 9.000000
	SubspaceRotationAdjust: set factor to 0.415
ElecMinimize: Iter:  74  F: -22.685167566654737  |grad|_K:  2.362e-06  alpha: -3.582e-03  linmin: -6.255e-03  t[s]:     67.32
	FillingsUpdate:  mu: -0.102573692  nElectrons: 9.000000
	SubspaceRotationAdjust: set factor to 0.482
ElecMinimize: Iter:  75  F: -22.685170793236196  |grad|_K:  2.325e-06  alpha:  5.416e-03  linmin: -6.084e-03  t[s]:     68.12
ElecMinimize: 	Predicted alpha/alphaT>3.000000, increasing alphaT to 1.624914e-02.
ElecMinimize: 	Wrong curvature in test step, increasing alphaT to 4.874741e-02.
	FillingsUpdate:  mu: -0.102548967  nElectrons: 9.000000
	SubspaceRotationAdjust: set factor to 0.495
ElecMinimize: Iter:  76  F: -22.685200557053172  |grad|_K:  5.261e-06  alpha: -3.768e-03  linmin:  4.416e-02  t[s]:     69.12
ElecMinimize: 	Bad step direction: g.d > 0.
ElecMinimize: 	Undoing step.
ElecMinimize: 	Step failed: resetting search direction.
	FillingsUpdate:  mu: -0.102548967  nElectrons: 9.000000
	SubspaceRotationAdjust: set factor to 0.511
ElecMinimize: Iter:  77  F: -22.685200557053118  |grad|_K:  5.197e-06  alpha:  0.000e+00
	FillingsUpdate:  mu: -0.089996314  nElectrons: 9.000000
	SubspaceRotationAdjust: set factor to 0.493
ElecMinimize: Iter:  78  F: -22.685254742893811  |grad|_K:  5.423e-06  alpha:  1.005e+00  linmin: -5.569e-04  t[s]:     70.44
	FillingsUpdate:  mu: -0.103084900  nElectrons: 9.000000
	SubspaceRotationAdjust: set factor to 0.489
ElecMinimize: Iter:  79  F: -22.685314536626048  |grad|_K:  5.436e-06  alpha:  5.162e-01  linmin:  8.809e-03  t[s]:     71.24
	FillingsUpdate:  mu: -0.103121494  nElectrons: 9.000000
	SubspaceRotationAdjust: set factor to 0.495
ElecMinimize: Iter:  80  F: -22.685322624247178  |grad|_K:  2.692e-06  alpha:  2.108e-01  linmin:  8.438e-05  t[s]:     72.03
	FillingsUpdate:  mu: -0.102446812  nElectrons: 9.000000
	SubspaceRotationAdjust: set factor to 0.499
ElecMinimize: Iter:  81  F: -22.685326500940093  |grad|_K:  2.811e-06  alpha:  2.685e-01  linmin: -5.587e-06  t[s]:     72.82
	FillingsUpdate:  mu: -0.100438968  nElectrons: 9.000000
	SubspaceRotationAdjust: set factor to 0.497
ElecMinimize: Iter:  82  F: -22.685333938284778  |grad|_K:  3.092e-06  alpha:  4.713e-01  linmin: -8.852e-07  t[s]:     73.61
	FillingsUpdate:  mu: -0.099342579  nElectrons: 9.000000
	SubspaceRotationAdjust: set factor to 0.502
ElecMinimize: Iter:  83  F: -22.685339963725088  |grad|_K:  3.426e-06  alpha:  3.337e-01  linmin:  4.652e-04  t[s]:     74.41
ElecMinimize: 	Step increased F by 4.312685e-07, reducing alpha to 2.014682e-02.
	FillingsUpdate:  mu: -0.099315027  nElectrons: 9.000000
	SubspaceRotationAdjust: set factor to 0.512
ElecMinimize: Iter:  84  F: -22.685340833821503  |grad|_K:  3.339e-06  alpha:  2.015e-02  linmin: -8.159e-03  t[s]:     75.69
ElecMinimize: 	Predicted alpha/alphaT>3.000000, increasing alphaT to 6.044047e-02.
ElecMinimize: 	Predicted alpha/alphaT>3.000000, increasing alphaT to 1.813214e-01.
ElecMinimize: 	Step increased F by 3.124044e-06, reducing alpha to 8.912045e-03.
	FillingsUpdate:  mu: -0.099326820  nElectrons: 9.000000
	SubspaceRotationAdjust: set factor to 0.523
ElecMinimize: Iter:  85  F: -22.685341570942803  |grad|_K:  3.185e-06  alpha:  8.912e-03  linmin: -1.708e-02  t[s]:     77.50
ElecMinimize: 	Predicted alpha/alphaT>3.000000, increasing alphaT to 2.673613e-02.
ElecMinimize: 	Predicted alpha/alphaT>3.000000, increasing alphaT to 8.020840e-02.
	FillingsUpdate:  mu: -0.099435107  nElectrons: 9.000000
	SubspaceRotationAdjust: set factor to 0.539
ElecMinimize: Iter:  86  F: -22.685344484721575  |grad|_K:  2.421e-06  alpha:  2.870e-02  linmin: -2.608e-02  t[s]:     78.81
ElecMinimize: 	Predicted alpha/alphaT>3.000000, increasing alphaT to 8.611129e-02.
	FillingsUpdate:  mu: -0.099526922  nElectrons: 9.000000
	SubspaceRotationAdjust: set factor to 0.558
ElecMinimize: Iter:  87  F: -22.685345924432994  |grad|_K:  1.998e-06  alpha:  2.118e-02  linmin: -3.244e-02  t[s]:     79.87
ElecMinimize: 	Predicted alpha/alphaT>3.000000, increasing alphaT to 6.353909e-02.
	FillingsUpdate:  mu: -0.099579037  nElectrons: 9.000000
	SubspaceRotationAdjust: set factor to 0.578
ElecMinimize: Iter:  88  F: -22.685346517348915  |grad|_K:  1.824e-06  alpha:  1.083e-02  linmin: -3.344e-02  t[s]:     80.92
ElecMinimize: 	Predicted alpha/alphaT>3.000000, increasing alphaT to 3.249943e-02.
ElecMinimize: 	Predicted alpha/alphaT>3.000000, increasing alphaT to 9.749830e-02.
	FillingsUpdate:  mu: -0.099688157  nElectrons: 9.000000
	SubspaceRotationAdjust: set factor to 0.607
ElecMinimize: Iter:  89  F: -22.685347451225194  |grad|_K:  1.570e-06  alpha:  1.819e-02  linmin: -3.213e-02  t[s]:     82.22
ElecMinimize: 	Wrong curvature in test step, increasing alphaT to 5.457104e-02.
	FillingsUpdate:  mu: -0.100517904  nElectrons: 9.000000
	SubspaceRotationAdjust: set factor to 0.768
ElecMinimize: Iter:  90  F: -22.685348310951582  |grad|_K:  1.377e-06  alpha: -1.379e-01  linmin: -2.192e-02  t[s]:     82.96
ElecMinimize: 	Step increased F by 1.104032e-05, reducing alpha to 1.068764e-02.
ElecMinimize: 	Step increased F by 2.902305e-07, reducing alpha to 1.068764e-03.
	FillingsUpdate:  mu: -0.100663581  nElectrons: 9.000000
	SubspaceRotationAdjust: set factor to 0.807
ElecMinimize: Iter:  91  F: -22.685348355068623  |grad|_K:  1.340e-06  alpha:  1.069e-03  linmin: -2.457e-02  t[s]:     84.75
ElecMinimize: 	Predicted alpha/alphaT>3.000000, increasing alphaT to 3.206293e-03.
	FillingsUpdate:  mu: -0.101695637  nElectrons: 9.000000
	SubspaceRotationAdjust: set factor to 0.646
ElecMinimize: Iter:  92  F: -22.685348444206056  |grad|_K:  2.023e-06  alpha:  5.563e-03  linmin:  1.892e-03  t[s]:     85.81
ElecMinimize: 	Bad step direction: g.d > 0.
ElecMinimize: 	Undoing step.
ElecMinimize: 	Step failed: resetting search direction.
	FillingsUpdate:  mu: -0.101695637  nElectrons: 9.000000
	SubspaceRotationAdjust: set factor to 0.566
ElecMinimize: Iter:  93  F: -22.685348444206170  |grad|_K:  1.893e-06  alpha:  0.000e+00
ElecMinimize: 	Predicted alpha/alphaT>3.000000, increasing alphaT to 1.668862e-02.
	FillingsUpdate:  mu: -0.100652997  nElectrons: 9.000000
	SubspaceRotationAdjust: set factor to 0.504
ElecMinimize: Iter:  94  F: -22.685348825512403  |grad|_K:  1.223e-06  alpha:  4.412e-02  linmin: -1.638e-02  t[s]:     87.40
ElecMinimize: 	Predicted alpha/alphaT>3.000000, increasing alphaT to 1.323467e-01.
ElecMinimize: 	Predicted alpha/alphaT>3.000000, increasing alphaT to 3.970401e-01.
	FillingsUpdate:  mu: -0.100252021  nElectrons: 9.000000
	SubspaceRotationAdjust: set factor to 0.506
ElecMinimize: Iter:  95  F: -22.685351142077860  |grad|_K:  1.426e-06  alpha:  5.651e-01  linmin: -3.203e-04  t[s]:     88.71
	FillingsUpdate:  mu: -0.100484350  nElectrons: 9.000000
	SubspaceRotationAdjust: set factor to 0.51
ElecMinimize: Iter:  96  F: -22.685352378305844  |grad|_K:  1.166e-06  alpha:  2.968e-01  linmin: -1.469e-06  t[s]:     89.50
ElecMinimize: 	Step increased F by 4.878108e-06, reducing alpha to 7.665291e-02.
	FillingsUpdate:  mu: -0.100497095  nElectrons: 9.000000
	SubspaceRotationAdjust: set factor to 0.523
ElecMinimize: Iter:  97  F: -22.685352772113806  |grad|_K:  1.137e-06  alpha:  7.665e-02  linmin: -8.534e-03  t[s]:     90.81
ElecMinimize: 	Predicted alpha/alphaT>3.000000, increasing alphaT to 2.299587e-01.
	FillingsUpdate:  mu: -0.103173370  nElectrons: 9.000000
	SubspaceRotationAdjust: set factor to 0.286
ElecMinimize: Iter:  98  F: -22.685353964158619  |grad|_K:  3.329e-06  alpha:  2.205e-01  linmin:  6.497e-04  t[s]:     91.87
ElecMinimize: 	Bad step direction: g.d > 0.
ElecMinimize: 	Undoing step.
ElecMinimize: 	Step failed: resetting search direction.
	FillingsUpdate:  mu: -0.103173370  nElectrons: 9.000000
	SubspaceRotationAdjust: set factor to 0.168
ElecMinimize: Iter:  99  F: -22.685353964158615  |grad|_K:  2.553e-06  alpha:  0.000e+00
	FillingsUpdate:  mu: -0.100276403  nElectrons: 9.000000
	SubspaceRotationAdjust: set factor to 0.0854
	SubspaceRotationAdjust: resetting CG because factor has changed by 0.0853917
ElecMinimize: 	State modified externally: resetting search direction.
ElecMinimize: Iter: 100  F: -22.685354684470006  |grad|_K:  7.026e-07  alpha:  1.268e-01
ElecMinimize: 	Predicted alpha/alphaT>3.000000, increasing alphaT to 3.803442e-01.
ElecMinimize: 	Predicted alpha/alphaT>3.000000, increasing alphaT to 1.141032e+00.
	FillingsUpdate:  mu: -0.101038365  nElectrons: 9.000000
	SubspaceRotationAdjust: set factor to 0.0378
ElecMinimize: Iter: 101  F: -22.685355346228583  |grad|_K:  5.699e-07  alpha:  3.590e-01  linmin: -1.297e-02  t[s]:     95.00
	FillingsUpdate:  mu: -0.103143164  nElectrons: 9.000000
	SubspaceRotationAdjust: set factor to 0.0298
ElecMinimize: Iter: 102  F: -22.685355785070094  |grad|_K:  9.995e-07  alpha:  4.683e-01  linmin:  6.902e-04  t[s]:     95.79
ElecMinimize: 	Bad step direction: g.d > 0.
ElecMinimize: 	Undoing step.
ElecMinimize: 	Step failed: resetting search direction.
	FillingsUpdate:  mu: -0.103143164  nElectrons: 9.000000
	SubspaceRotationAdjust: set factor to 0.0303
ElecMinimize: Iter: 103  F: -22.685355785070058  |grad|_K:  9.393e-07  alpha:  0.000e+00
	FillingsUpdate:  mu: -0.101383470  nElectrons: 9.000000
	SubspaceRotationAdjust: set factor to 0.024
ElecMinimize: Iter: 104  F: -22.685356556622093  |grad|_K:  5.076e-07  alpha:  4.422e-01  linmin: -1.364e-03  t[s]:     97.12
ElecMinimize: 	Predicted alpha/alphaT>3.000000, increasing alphaT to 1.326562e+00.
	FillingsUpdate:  mu: -0.100619440  nElectrons: 9.000000
	SubspaceRotationAdjust: set factor to 0.0249
ElecMinimize: Iter: 105  F: -22.685357911940660  |grad|_K:  9.791e-07  alpha:  2.449e+00  linmin: -2.972e-05  t[s]:     98.17
	FillingsUpdate:  mu: -0.100567305  nElectrons: 9.000000
	SubspaceRotationAdjust: set factor to 0.0276
ElecMinimize: Iter: 106  F: -22.685358767863374  |grad|_K:  9.795e-07  alpha:  4.313e-01  linmin: -2.287e-05  t[s]:     98.98
	FillingsUpdate:  mu: -0.101252740  nElectrons: 9.000000
	SubspaceRotationAdjust: set factor to 0.0354
ElecMinimize: Iter: 107  F: -22.685359700898058  |grad|_K:  5.574e-07  alpha:  4.809e-01  linmin:  5.022e-05  t[s]:     99.77
	FillingsUpdate:  mu: -0.101761317  nElectrons: 9.000000
	SubspaceRotationAdjust: set factor to 0.0416
ElecMinimize: Iter: 108  F: -22.685359882130982  |grad|_K:  2.682e-07  alpha:  2.973e-01  linmin: -1.199e-05  t[s]:    100.57
	FillingsUpdate:  mu: -0.101991167  nElectrons: 9.000000
	SubspaceRotationAdjust: set factor to 0.0428
ElecMinimize: Iter: 109  F: -22.685359939279031  |grad|_K:  1.861e-07  alpha:  3.978e-01  linmin:  1.134e-05  t[s]:    101.36
	FillingsUpdate:  mu: -0.101962792  nElectrons: 9.000000
	SubspaceRotationAdjust: set factor to 0.0509
ElecMinimize: Iter: 110  F: -22.685359964722664  |grad|_K:  1.539e-07  alpha:  3.707e-01  linmin: -7.530e-07  t[s]:    102.17
	FillingsUpdate:  mu: -0.101893237  nElectrons: 9.000000
	SubspaceRotationAdjust: set factor to 0.0557
ElecMinimize: Iter: 111  F: -22.685359991278830  |grad|_K:  1.661e-07  alpha:  5.619e-01  linmin: -7.012e-07  t[s]:    102.96
	FillingsUpdate:  mu: -0.102089386  nElectrons: 9.000000
	SubspaceRotationAdjust: set factor to 0.0548
ElecMinimize: Iter: 112  F: -22.685360026530841  |grad|_K:  1.912e-07  alpha:  6.424e-01  linmin:  3.211e-06  t[s]:    103.76
	FillingsUpdate:  mu: -0.102121454  nElectrons: 9.000000
	SubspaceRotationAdjust: set factor to 0.0654
ElecMinimize: Iter: 113  F: -22.685360065058877  |grad|_K:  2.086e-07  alpha:  5.365e-01  linmin: -1.474e-06  t[s]:    104.56
	FillingsUpdate:  mu: -0.101930513  nElectrons: 9.000000
	SubspaceRotationAdjust: set factor to 0.0632
ElecMinimize: Iter: 114  F: -22.685360100311105  |grad|_K:  1.599e-07  alpha:  4.111e-01  linmin: -6.356e-06  t[s]:    105.37
	FillingsUpdate:  mu: -0.101931635  nElectrons: 9.000000
	SubspaceRotationAdjust: set factor to 0.0678
ElecMinimize: Iter: 115  F: -22.685360127594549  |grad|_K:  1.302e-07  alpha:  5.240e-01  linmin: -4.723e-06  t[s]:    106.17
	FillingsUpdate:  mu: -0.101990526  nElectrons: 9.000000
	SubspaceRotationAdjust: set factor to 0.068
ElecMinimize: Iter: 116  F: -22.685360140983860  |grad|_K:  9.891e-08  alpha:  3.903e-01  linmin:  5.136e-07  t[s]:    106.96
	FillingsUpdate:  mu: -0.101944363  nElectrons: 9.000000
	SubspaceRotationAdjust: set factor to 0.0675
ElecMinimize: Iter: 117  F: -22.685360149591325  |grad|_K:  8.497e-08  alpha:  4.409e-01  linmin: -2.082e-06  t[s]:    107.76
	FillingsUpdate:  mu: -0.101961827  nElectrons: 9.000000
	SubspaceRotationAdjust: set factor to 0.0745
ElecMinimize: Iter: 118  F: -22.685360155674072  |grad|_K:  6.279e-08  alpha:  4.187e-01  linmin: -1.510e-07  t[s]:    108.56
ElecMinimize: Converged (|Delta F|<1.000000e-08 for 2 iters).
Setting wave functions to eigenvectors of Hamiltonian

# Ionic positions in lattice coordinates:
ion Rb   0.000000000000000   0.000000000000000   0.000000000000000 0

# Forces in Lattice coordinates:
force Rb  -0.000000000000000   0.000000000000000   0.000000000000000 0

# Energy components:
   Eewald =      -53.0824297068607933
       EH =      -36.6163710609134014
     Eloc =       62.1958310229307969
      Enl =       -1.1633449284204047
   Epulay =        0.0000000020222693
      Exc =       -4.6616559361524406
       KE =       10.6426105469308894
-------------------------------------
     Etot =      -22.6853600604630898
       TS =        0.0000000952109821
-------------------------------------
        F =      -22.6853601556740720

IonicMinimize: Iter:   0  F: -22.685360155674072  |grad|_K:  0.000e+00  t[s]:    108.62
IonicMinimize: Converged (|grad|_K<1.000000e-04).

#--- Lowdin population analysis ---
# oxidation-state Rb +1.499

End date and time: Sun Jan 16 15:47:51 2022  (Duration: 0-0:01:48.64)
Done!
