2.9
--------------------------------------------------------------------------
The library attempted to open the following supporting CUDA libraries,
but each of them failed.  CUDA-aware support is disabled.
libcuda.so.1: cannot open shared object file: No such file or directory
libcuda.dylib: cannot open shared object file: No such file or directory
/usr/lib64/libcuda.so.1: cannot open shared object file: No such file or directory
/usr/lib64/libcuda.dylib: cannot open shared object file: No such file or directory
If you are not interested in CUDA-aware support, then run with
--mca opal_warn_on_missing_libcuda 0 to suppress this message.  If you are interested
in CUDA-aware support, then try setting LD_LIBRARY_PATH to the location
of libcuda.so.1 to get passed this issue.
--------------------------------------------------------------------------
--------------------------------------------------------------------------
No OpenFabrics connection schemes reported that they were able to be
used on a specific port.  As such, the openib BTL (OpenFabrics
support) will be disabled for this port.

  Local host:           d-4-14-3
  Local device:         mlx5_1
  Local port:           1
  CPCs attempted:       rdmacm, udcm
--------------------------------------------------------------------------

*************** JDFTx 1.6.0 (git hash 42ebbcc2) ***************

Start date and time: Sun Jan 16 15:57:13 2022
Executable jdftx with command-line: -i Rubidium.in
Running on hosts (process indices):  d-4-14-3 (0-18)
Divided in process groups (process indices):  0 (0)  1 (1)  2 (2)  3 (3)  4 (4)  5 (5)  6 (6)  7 (7)  8 (8)  9 (9)  10 (10)  11 (11)  12 (12)  13 (13)  14 (14)  15 (15)  16 (16)  17 (17)  18 (18)
Resource initialization completed at t[s]:      0.00
Run totals: 19 processes, 48 threads, 0 GPUs


Input parsed successfully to the following command list (including defaults):

basis kpoint-dependent
coords-type Lattice
core-overlap-check vector
coulomb-interaction Slab 001
davidson-band-ratio 1.1
dump End None
dump-name $INPUT.$VAR
elec-cutoff 20 100
elec-eigen-algo Davidson
elec-ex-corr gga-PBE
elec-smearing Fermi 1e-05
electronic-minimize  \
	dirUpdateScheme      FletcherReeves \
	linminMethod         DirUpdateRecommended \
	nIterations          10000 \
	history              15 \
	knormThreshold       0 \
	energyDiffThreshold  1e-08 \
	nEnergyDiff          2 \
	alphaTstart          1 \
	alphaTmin            1e-10 \
	updateTestStepSize   yes \
	alphaTreduceFactor   0.1 \
	alphaTincreaseFactor 3 \
	nAlphaAdjustMax      3 \
	wolfeEnergy          0.0001 \
	wolfeGradient        0.9 \
	fdTest               no
exchange-regularization WignerSeitzTruncated
fluid None
fluid-ex-corr (null) lda-PZ
fluid-gummel-loop 10 1.000000e-05
fluid-minimize  \
	dirUpdateScheme      PolakRibiere \
	linminMethod         DirUpdateRecommended \
	nIterations          100 \
	history              15 \
	knormThreshold       0 \
	energyDiffThreshold  0 \
	nEnergyDiff          2 \
	alphaTstart          1 \
	alphaTmin            1e-10 \
	updateTestStepSize   yes \
	alphaTreduceFactor   0.1 \
	alphaTincreaseFactor 3 \
	nAlphaAdjustMax      3 \
	wolfeEnergy          0.0001 \
	wolfeGradient        0.9 \
	fdTest               no
fluid-solvent H2O 55.338 ScalarEOS \
	epsBulk 78.4 \
	pMol 0.92466 \
	epsInf 1.77 \
	Pvap 1.06736e-10 \
	sigmaBulk 4.62e-05 \
	Rvdw 2.61727 \
	Res 1.42 \
	tauNuc 343133 \
	poleEl 15 7 1
forces-output-coords Positions
ion Rb   0.000000000000000   0.000000000000000   0.000000000000000 0
ion-species SG15/$ID_ONCV_PBE.upf
ion-width 0
ionic-minimize  \
	dirUpdateScheme      L-BFGS \
	linminMethod         DirUpdateRecommended \
	nIterations          0 \
	history              15 \
	knormThreshold       0.0001 \
	energyDiffThreshold  1e-06 \
	nEnergyDiff          2 \
	alphaTstart          1 \
	alphaTmin            1e-10 \
	updateTestStepSize   yes \
	alphaTreduceFactor   0.1 \
	alphaTincreaseFactor 3 \
	nAlphaAdjustMax      3 \
	wolfeEnergy          0.0001 \
	wolfeGradient        0.9 \
	fdTest               no
kpoint   0.000000000000   0.000000000000   0.000000000000  1.00000000000000
kpoint-folding 48 48 1 
latt-move-scale 1 1 1
latt-scale 2.9 2.9 1 
lattice  \
	   4.727486978767153   -2.363743489383575    0.000000000000000  \
	  -0.000000000000000    4.094123819672498    0.000000000000000  \
	   0.000000000000000    0.000000000000000   40.000000000000000 
lattice-minimize  \
	dirUpdateScheme      L-BFGS \
	linminMethod         DirUpdateRecommended \
	nIterations          0 \
	history              15 \
	knormThreshold       0 \
	energyDiffThreshold  1e-06 \
	nEnergyDiff          2 \
	alphaTstart          1 \
	alphaTmin            1e-10 \
	updateTestStepSize   yes \
	alphaTreduceFactor   0.1 \
	alphaTincreaseFactor 3 \
	nAlphaAdjustMax      3 \
	wolfeEnergy          0.0001 \
	wolfeGradient        0.9 \
	fdTest               no
lcao-params -1 1e-06 1e-05
pcm-variant GLSSA13
spintype no-spin
subspace-rotation-factor 1 yes
symmetries automatic
symmetry-threshold 0.0001



---------- Setting up symmetries ----------

Found 24 point-group symmetries of the bravais lattice
Found 24 space-group symmetries with basis
Applied RMS atom displacement 0 bohrs to make symmetries exact.

---------- Initializing the Grid ----------
R = 
[      13.7097     -6.85486            0  ]
[            0       11.873            0  ]
[            0            0           40  ]
unit cell volume = 6510.99
G =
[   0.458302   0.264601         -0  ]
[          0   0.529201         -0  ]
[         -0         -0    0.15708  ]
Minimum fftbox size, Smin = [  64  64  184  ]
Chosen fftbox size, S = [  64  64  192  ]

---------- Initializing tighter grid for wavefunction operations ----------
R = 
[      13.7097     -6.85486            0  ]
[            0       11.873            0  ]
[            0            0           40  ]
unit cell volume = 6510.99
G =
[   0.458302   0.264601         -0  ]
[          0   0.529201         -0  ]
[         -0         -0    0.15708  ]
Minimum fftbox size, Smin = [  56  56  164  ]
Chosen fftbox size, S = [  56  56  168  ]

---------- Exchange Correlation functional ----------
Initalized PBE GGA exchange.
Initalized PBE GGA correlation.

---------- Setting up pseudopotentials ----------
Width of ionic core gaussian charges (only for fluid interactions / plotting) set to 0

Reading pseudopotential file '/home/gridsan/aligho/DFT/build-Nov24/pseudopotentials/SG15/Rb_ONCV_PBE.upf':
  'Rb' pseudopotential, 'PBE' functional
  Generated using ONCVPSP code by D. R. Hamann
  Author: Martin Schlipf and Francois Gygi  Date: 150915.
  9 valence electrons, 3 orbitals, 6 projectors, 2308 radial grid points, with lMax = 2
  Transforming local potential to a uniform radial grid of dG=0.02 with 1655 points.
  Transforming nonlocal projectors to a uniform radial grid of dG=0.02 with 432 points.
    4S    l: 0   occupation:  2.0   eigenvalue: -1.172069
    4P    l: 1   occupation:  6.0   eigenvalue: -0.586674
    5S    l: 0   occupation:  1.0   eigenvalue: -0.082006
  Transforming atomic orbitals to a uniform radial grid of dG=0.02 with 432 points.
  Core radius for overlap checks: 2.60 bohrs.
  Reading pulay file /home/gridsan/aligho/DFT/build-Nov24/pseudopotentials/SG15/Rb_ONCV_PBE.pulay ... using dE_dnG = -1.360715e-05 computed for Ecut = 20.

Initialized 1 species with 1 total atoms.

Folded 1 k-points by 48x48x1 to 2304 k-points.

---------- Setting up k-points, bands, fillings ----------
Reduced to 217 k-points under symmetry. 
Computing the number of bands and number of electrons
Calculating initial fillings.
nElectrons:   9.000000   nBands: 6   nStates: 217

----- Setting up reduced wavefunction bases (one per k-point) -----
average nbasis = 27816.202 , ideal nbasis = 27815.463

---------- Setting up coulomb interaction ----------
Initialized slab truncation along lattice direction 001

---------- Setting up 2D ewald sum ----------
Optimum gaussian width for ewald sums = 7.611079 bohr.
Real space sums over 289 unit cells with max indices [  8  8  0  ]
Reciprocal space sums over 81 terms with max indices [  4  4  0  ]

---------- Allocating electronic variables ----------
Initializing wave functions:  linear combination of atomic orbitals
Note: number of bands (6) exceeds available atomic orbitals (5)
Rb pseudo-atom occupations:   s ( 2 1 )  p ( 6 )
[d-4-14-3:63084] 18 more processes have sent help message help-mpi-common-cuda.txt / dlopen failed
[d-4-14-3:63084] Set MCA parameter "orte_base_help_aggregate" to 0 to see all help / error messages
[d-4-14-3:63084] 18 more processes have sent help message help-mpi-btl-openib-cpc-base.txt / no cpcs for port
	FillingsUpdate:  mu: -0.083798257  nElectrons: 9.000000
LCAOMinimize: Iter:   0  F: -24.4381788830437401  |grad|_K:  7.148e-06  alpha:  1.000e+00
	FillingsUpdate:  mu: -0.083794745  nElectrons: 9.000000
LCAOMinimize: Iter:   1  F: -24.4381790797435769  |grad|_K:  5.616e-08  alpha:  9.856e-01  linmin: -1.741e-02  cgtest:  3.881e-01  t[s]:     21.39
LCAOMinimize: Encountered beta<0, resetting CG.
	FillingsUpdate:  mu: -0.083794751  nElectrons: 9.000000
LCAOMinimize: Iter:   2  F: -24.4381790797557557  |grad|_K:  3.215e-10  alpha:  9.951e-01  linmin: -5.114e-02  cgtest:  9.038e-01  t[s]:     28.72
LCAOMinimize: Encountered beta<0, resetting CG.
LCAOMinimize: Converged (|Delta F|<1.000000e-06 for 2 iters).


---- Citations for features of the code used in this run ----

   Software package:
      R. Sundararaman, K. Letchworth-Weaver, K.A. Schwarz, D. Gunceler, Y. Ozhabes and T.A. Arias, 'JDFTx: software for joint density-functional theory', SoftwareX 6, 278 (2017)

   gga-PBE exchange-correlation functional:
      J.P. Perdew, K. Burke and M. Ernzerhof, Phys. Rev. Lett. 77, 3865 (1996)

   Pseudopotentials:
      M Schlipf and F Gygi, Comput. Phys. Commun. 196, 36 (2015)

   Truncated Coulomb potentials:
      R. Sundararaman and T.A. Arias, Phys. Rev. B 87, 165122 (2013)

   Total energy minimization with Auxiliary Hamiltonian:
      C. Freysoldt, S. Boeck, and J. Neugebauer, Phys. Rev. B 79, 241103(R) (2009)

This list may not be complete. Please suggest additional citations or
report any other bugs at https://github.com/shankar1729/jdftx/issues

Initialization completed successfully at t[s]:     29.46


-------- Electronic minimization -----------
	FillingsUpdate:  mu: -0.083794751  nElectrons: 9.000000
ElecMinimize: Iter:   0  F: -24.438179079755756  |grad|_K:  2.130e-06  alpha:  1.000e+00
ElecMinimize: 	Predicted alpha/alphaT>3.000000, increasing alphaT to 3.000000e+00.
	FillingsUpdate:  mu: -0.083215482  nElectrons: 9.000000
	SubspaceRotationAdjust: set factor to 1
ElecMinimize: Iter:   1  F: -24.439212787978690  |grad|_K:  3.644e-06  alpha:  6.299e+00  linmin:  1.991e-04  t[s]:     48.01
	FillingsUpdate:  mu: -0.083236297  nElectrons: 9.000000
	SubspaceRotationAdjust: set factor to 1.03
ElecMinimize: Iter:   2  F: -24.439237184767819  |grad|_K:  3.550e-06  alpha:  2.596e-02  linmin: -1.316e-03  t[s]:     57.66
ElecMinimize: 	Predicted alpha/alphaT>3.000000, increasing alphaT to 7.786561e-02.
ElecMinimize: 	Predicted alpha/alphaT>3.000000, increasing alphaT to 2.335968e-01.
	FillingsUpdate:  mu: -0.084198553  nElectrons: 9.000000
	SubspaceRotationAdjust: set factor to 1.08
ElecMinimize: Iter:   3  F: -24.439774920430967  |grad|_K:  2.437e-06  alpha:  6.069e-01  linmin:  8.126e-05  t[s]:     73.20
	FillingsUpdate:  mu: -0.084404921  nElectrons: 9.000000
	SubspaceRotationAdjust: set factor to 0.956
ElecMinimize: Iter:   4  F: -24.439894654891500  |grad|_K:  2.583e-06  alpha:  5.743e-01  linmin:  2.065e-04  t[s]:     82.84
	FillingsUpdate:  mu: -0.084405561  nElectrons: 9.000000
	SubspaceRotationAdjust: set factor to 1.13
ElecMinimize: Iter:   5  F: -24.439895534425190  |grad|_K:  2.548e-06  alpha:  2.761e-03  linmin: -4.357e-04  t[s]:     92.51
ElecMinimize: 	Predicted alpha/alphaT>3.000000, increasing alphaT to 8.283387e-03.
ElecMinimize: 	Predicted alpha/alphaT>3.000000, increasing alphaT to 2.485016e-02.
ElecMinimize: 	Predicted alpha/alphaT>3.000000, increasing alphaT to 7.455049e-02.
	FillingsUpdate:  mu: -0.084410609  nElectrons: 9.000000
	SubspaceRotationAdjust: set factor to 0.852
ElecMinimize: Iter:   6  F: -24.439978785586622  |grad|_K:  2.806e-06  alpha:  2.905e-01  linmin:  1.031e-03  t[s]:    108.11
	FillingsUpdate:  mu: -0.084410352  nElectrons: 9.000000
	SubspaceRotationAdjust: set factor to 0.709
ElecMinimize: Iter:   7  F: -24.439978867270163  |grad|_K:  2.568e-06  alpha:  1.408e-03  linmin: -1.338e-04  t[s]:    117.71
ElecMinimize: 	Predicted alpha/alphaT>3.000000, increasing alphaT to 4.225449e-03.
ElecMinimize: 	Predicted alpha/alphaT>3.000000, increasing alphaT to 1.267635e-02.
ElecMinimize: 	Predicted alpha/alphaT>3.000000, increasing alphaT to 3.802904e-02.
	FillingsUpdate:  mu: -0.084341999  nElectrons: 9.000000
	SubspaceRotationAdjust: set factor to 0.653
ElecMinimize: Iter:   8  F: -24.440017812579317  |grad|_K:  2.571e-06  alpha:  1.588e-01  linmin:  1.851e-04  t[s]:    133.30
	FillingsUpdate:  mu: -0.084256876  nElectrons: 9.000000
	SubspaceRotationAdjust: set factor to 0.773
ElecMinimize: Iter:   9  F: -24.440045097636776  |grad|_K:  2.635e-06  alpha:  1.281e-01  linmin:  5.058e-06  t[s]:    142.86
	FillingsUpdate:  mu: -0.084158332  nElectrons: 9.000000
	SubspaceRotationAdjust: set factor to 1.05
ElecMinimize: Iter:  10  F: -24.440081733344186  |grad|_K:  2.699e-06  alpha:  1.452e-01  linmin: -5.844e-05  t[s]:    152.43
	FillingsUpdate:  mu: -0.084095245  nElectrons: 9.000000
	SubspaceRotationAdjust: set factor to 1.32
ElecMinimize: Iter:  11  F: -24.440121186299351  |grad|_K:  2.561e-06  alpha:  1.453e-01  linmin: -1.602e-04  t[s]:    162.05
	FillingsUpdate:  mu: -0.084097795  nElectrons: 9.000000
	SubspaceRotationAdjust: set factor to 1.56
ElecMinimize: Iter:  12  F: -24.440158549728210  |grad|_K:  2.169e-06  alpha:  1.489e-01  linmin: -2.045e-04  t[s]:    171.74
	FillingsUpdate:  mu: -0.084152377  nElectrons: 9.000000
	SubspaceRotationAdjust: set factor to 1.72
ElecMinimize: Iter:  13  F: -24.440193619883690  |grad|_K:  1.792e-06  alpha:  1.843e-01  linmin: -1.608e-04  t[s]:    181.38
	FillingsUpdate:  mu: -0.084207840  nElectrons: 9.000000
	SubspaceRotationAdjust: set factor to 1.9
ElecMinimize: Iter:  14  F: -24.440229912330992  |grad|_K:  1.503e-06  alpha:  2.697e-01  linmin: -8.846e-05  t[s]:    191.01
	FillingsUpdate:  mu: -0.084196934  nElectrons: 9.000000
	SubspaceRotationAdjust: set factor to 2.26
ElecMinimize: Iter:  15  F: -24.440256987427215  |grad|_K:  1.285e-06  alpha:  3.068e-01  linmin:  3.621e-06  t[s]:    200.58
	FillingsUpdate:  mu: -0.084143404  nElectrons: 9.000000
	SubspaceRotationAdjust: set factor to 2.58
ElecMinimize: Iter:  16  F: -24.440274670527522  |grad|_K:  1.155e-06  alpha:  2.956e-01  linmin:  5.185e-05  t[s]:    210.22
	FillingsUpdate:  mu: -0.084089368  nElectrons: 9.000000
	SubspaceRotationAdjust: set factor to 2.62
ElecMinimize: Iter:  17  F: -24.440286267592441  |grad|_K:  1.110e-06  alpha:  2.347e-01  linmin:  2.188e-05  t[s]:    219.83
	FillingsUpdate:  mu: -0.084061824  nElectrons: 9.000000
	SubspaceRotationAdjust: set factor to 3.02
ElecMinimize: Iter:  18  F: -24.440293264411334  |grad|_K:  1.130e-06  alpha:  1.424e-01  linmin: -2.598e-05  t[s]:    229.41
	FillingsUpdate:  mu: -0.084050328  nElectrons: 9.000000
	SubspaceRotationAdjust: set factor to 2.8
ElecMinimize: Iter:  19  F: -24.440299226587957  |grad|_K:  1.234e-06  alpha:  1.168e-01  linmin:  2.891e-05  t[s]:    238.99
	FillingsUpdate:  mu: -0.084053691  nElectrons: 9.000000
	SubspaceRotationAdjust: set factor to 2.22
ElecMinimize: Iter:  20  F: -24.440303221028550  |grad|_K:  1.251e-06  alpha:  7.152e-02  linmin: -1.841e-05  t[s]:    248.64
	FillingsUpdate:  mu: -0.084068565  nElectrons: 9.000000
	SubspaceRotationAdjust: set factor to 1.86
ElecMinimize: Iter:  21  F: -24.440307456876315  |grad|_K:  1.144e-06  alpha:  7.316e-02  linmin:  1.787e-05  t[s]:    258.29
	FillingsUpdate:  mu: -0.084089770  nElectrons: 9.000000
	SubspaceRotationAdjust: set factor to 1.97
ElecMinimize: Iter:  22  F: -24.440311147863493  |grad|_K:  1.013e-06  alpha:  7.852e-02  linmin: -8.176e-05  t[s]:    267.94
	FillingsUpdate:  mu: -0.084114806  nElectrons: 9.000000
	SubspaceRotationAdjust: set factor to 2.76
ElecMinimize: Iter:  23  F: -24.440314702963761  |grad|_K:  9.131e-07  alpha:  9.224e-02  linmin: -8.854e-05  t[s]:    277.59
	FillingsUpdate:  mu: -0.084140700  nElectrons: 9.000000
	SubspaceRotationAdjust: set factor to 3.35
ElecMinimize: Iter:  24  F: -24.440318298980262  |grad|_K:  8.473e-07  alpha:  1.104e-01  linmin: -7.313e-05  t[s]:    287.22
	FillingsUpdate:  mu: -0.084161141  nElectrons: 9.000000
	SubspaceRotationAdjust: set factor to 3.97
ElecMinimize: Iter:  25  F: -24.440322604433238  |grad|_K:  7.798e-07  alpha:  1.463e-01  linmin: -7.077e-05  t[s]:    296.74
	FillingsUpdate:  mu: -0.084161182  nElectrons: 9.000000
	SubspaceRotationAdjust: set factor to 4.81
ElecMinimize: Iter:  26  F: -24.440327475574065  |grad|_K:  7.075e-07  alpha:  1.960e-01  linmin: -3.145e-05  t[s]:    306.33
	FillingsUpdate:  mu: -0.084145892  nElectrons: 9.000000
	SubspaceRotationAdjust: set factor to 5.76
ElecMinimize: Iter:  27  F: -24.440330882588203  |grad|_K:  6.578e-07  alpha:  1.808e-01  linmin:  4.497e-05  t[s]:    315.96
	FillingsUpdate:  mu: -0.084139927  nElectrons: 9.000000
	SubspaceRotationAdjust: set factor to 6.71
ElecMinimize: Iter:  28  F: -24.440333085257748  |grad|_K:  6.593e-07  alpha:  1.381e-01  linmin:  1.162e-05  t[s]:    325.61
	FillingsUpdate:  mu: -0.084150002  nElectrons: 9.000000
	SubspaceRotationAdjust: set factor to 6.94
ElecMinimize: Iter:  29  F: -24.440334677469451  |grad|_K:  7.088e-07  alpha:  9.664e-02  linmin:  1.047e-06  t[s]:    335.21
	FillingsUpdate:  mu: -0.084173532  nElectrons: 9.000000
	SubspaceRotationAdjust: set factor to 5.67
ElecMinimize: Iter:  30  F: -24.440336107126473  |grad|_K:  7.698e-07  alpha:  7.751e-02  linmin:  9.952e-06  t[s]:    344.82
	FillingsUpdate:  mu: -0.084204450  nElectrons: 9.000000
	SubspaceRotationAdjust: set factor to 4.85
ElecMinimize: Iter:  31  F: -24.440337597961925  |grad|_K:  7.103e-07  alpha:  7.075e-02  linmin: -3.726e-05  t[s]:    354.45
	FillingsUpdate:  mu: -0.084228742  nElectrons: 9.000000
	SubspaceRotationAdjust: set factor to 5.51
ElecMinimize: Iter:  32  F: -24.440339065666063  |grad|_K:  6.031e-07  alpha:  7.844e-02  linmin: -4.654e-05  t[s]:    364.06
	FillingsUpdate:  mu: -0.084241641  nElectrons: 9.000000
	SubspaceRotationAdjust: set factor to 7.21
ElecMinimize: Iter:  33  F: -24.440340599653620  |grad|_K:  5.461e-07  alpha:  1.072e-01  linmin: -4.831e-05  t[s]:    373.77
	FillingsUpdate:  mu: -0.084241738  nElectrons: 9.000000
	SubspaceRotationAdjust: set factor to 8.21
	SubspaceRotationAdjust: resetting CG because factor has changed by 8.2087
ElecMinimize: 	State modified externally: resetting search direction.
ElecMinimize: Iter:  34  F: -24.440342234103330  |grad|_K:  5.333e-07  alpha:  1.377e-01
	FillingsUpdate:  mu: -0.084236420  nElectrons: 9.000000
	SubspaceRotationAdjust: set factor to 4.66
ElecMinimize: Iter:  35  F: -24.440343755400495  |grad|_K:  8.448e-07  alpha:  2.968e-01  linmin:  7.906e-04  t[s]:    398.72
ElecMinimize: 	Bad step direction: g.d > 0.
ElecMinimize: 	Undoing step.
ElecMinimize: 	Step failed: resetting search direction.
	FillingsUpdate:  mu: -0.084236420  nElectrons: 9.000000
	SubspaceRotationAdjust: set factor to 2.89
ElecMinimize: Iter:  36  F: -24.440343755400487  |grad|_K:  6.648e-07  alpha:  0.000e+00
	FillingsUpdate:  mu: -0.084249723  nElectrons: 9.000000
	SubspaceRotationAdjust: set factor to 2.1
ElecMinimize: Iter:  37  F: -24.440347161103585  |grad|_K:  2.305e-07  alpha:  2.352e-01  linmin: -1.869e-04  t[s]:    414.98
ElecMinimize: 	Predicted alpha/alphaT>3.000000, increasing alphaT to 7.056845e-01.
	FillingsUpdate:  mu: -0.084269717  nElectrons: 9.000000
	SubspaceRotationAdjust: set factor to 2.3
ElecMinimize: Iter:  38  F: -24.440349643105300  |grad|_K:  2.065e-07  alpha:  1.162e+00  linmin: -9.083e-05  t[s]:    427.52
	FillingsUpdate:  mu: -0.084281139  nElectrons: 9.000000
	SubspaceRotationAdjust: set factor to 1.59
ElecMinimize: Iter:  39  F: -24.440351371210618  |grad|_K:  2.001e-07  alpha:  1.089e+00  linmin:  1.122e-04  t[s]:    437.15
	FillingsUpdate:  mu: -0.084307701  nElectrons: 9.000000
	SubspaceRotationAdjust: set factor to 2.27
ElecMinimize: Iter:  40  F: -24.440352780951205  |grad|_K:  1.531e-07  alpha:  1.065e+00  linmin: -3.688e-05  t[s]:    446.70
	FillingsUpdate:  mu: -0.084335406  nElectrons: 9.000000
	SubspaceRotationAdjust: set factor to 1.93
ElecMinimize: Iter:  41  F: -24.440353589990526  |grad|_K:  1.190e-07  alpha:  9.571e-01  linmin: -6.385e-05  t[s]:    456.32
	FillingsUpdate:  mu: -0.084359494  nElectrons: 9.000000
	SubspaceRotationAdjust: set factor to 1.88
ElecMinimize: Iter:  42  F: -24.440354301719022  |grad|_K:  9.772e-08  alpha:  1.355e+00  linmin:  1.687e-05  t[s]:    465.91
	FillingsUpdate:  mu: -0.084375291  nElectrons: 9.000000
	SubspaceRotationAdjust: set factor to 1.88
ElecMinimize: Iter:  43  F: -24.440354693596372  |grad|_K:  7.812e-08  alpha:  1.140e+00  linmin:  4.510e-06  t[s]:    475.56
	FillingsUpdate:  mu: -0.084392589  nElectrons: 9.000000
	SubspaceRotationAdjust: set factor to 1.65
ElecMinimize: Iter:  44  F: -24.440354964339704  |grad|_K:  5.749e-08  alpha:  1.225e+00  linmin: -3.394e-05  t[s]:    485.17
	FillingsUpdate:  mu: -0.084399021  nElectrons: 9.000000
	SubspaceRotationAdjust: set factor to 1.68
ElecMinimize: Iter:  45  F: -24.440355077817323  |grad|_K:  3.353e-08  alpha:  9.397e-01  linmin:  1.079e-06  t[s]:    494.74
	FillingsUpdate:  mu: -0.084400163  nElectrons: 9.000000
	SubspaceRotationAdjust: set factor to 1.64
ElecMinimize: Iter:  46  F: -24.440355122067839  |grad|_K:  2.422e-08  alpha:  1.087e+00  linmin:  5.022e-06  t[s]:    504.41
	FillingsUpdate:  mu: -0.084402398  nElectrons: 9.000000
	SubspaceRotationAdjust: set factor to 1.47
ElecMinimize: Iter:  47  F: -24.440355147857211  |grad|_K:  1.915e-08  alpha:  1.216e+00  linmin: -2.096e-06  t[s]:    514.03
	FillingsUpdate:  mu: -0.084404816  nElectrons: 9.000000
	SubspaceRotationAdjust: set factor to 1.59
ElecMinimize: Iter:  48  F: -24.440355164527769  |grad|_K:  1.467e-08  alpha:  1.254e+00  linmin: -6.155e-07  t[s]:    523.69
	FillingsUpdate:  mu: -0.084406127  nElectrons: 9.000000
	SubspaceRotationAdjust: set factor to 1.42
ElecMinimize: Iter:  49  F: -24.440355173514003  |grad|_K:  1.058e-08  alpha:  1.152e+00  linmin:  1.138e-06  t[s]:    533.33
	FillingsUpdate:  mu: -0.084406985  nElectrons: 9.000000
	SubspaceRotationAdjust: set factor to 1.46
ElecMinimize: Iter:  50  F: -24.440355178543328  |grad|_K:  8.395e-09  alpha:  1.242e+00  linmin:  4.989e-07  t[s]:    542.96
ElecMinimize: Converged (|Delta F|<1.000000e-08 for 2 iters).
Setting wave functions to eigenvectors of Hamiltonian

# Ionic positions in lattice coordinates:
ion Rb   0.000000000000000   0.000000000000000   0.000000000000000 0

# Forces in Lattice coordinates:
force Rb  -0.000000000000000   0.000000000000000   0.000000000000000 0

# Energy components:
   Eewald =      -12.4469145519535633
       EH =        7.0775006584080691
     Eloc =      -21.5722235683429275
      Enl =       -0.7984322473252545
   Epulay =        0.0000000015441380
      Exc =       -3.6475598612813709
       KE =        6.9472744611568835
-------------------------------------
     Etot =      -24.4403551077940300
       TS =        0.0000000707492986
-------------------------------------
        F =      -24.4403551785433280

IonicMinimize: Iter:   0  F: -24.440355178543328  |grad|_K:  0.000e+00  t[s]:    544.07
IonicMinimize: Converged (|grad|_K<1.000000e-04).

#--- Lowdin population analysis ---
# oxidation-state Rb +0.033

End date and time: Sun Jan 16 16:06:17 2022  (Duration: 0-0:09:04.29)
Done!
