0.53
--------------------------------------------------------------------------
The library attempted to open the following supporting CUDA libraries,
but each of them failed.  CUDA-aware support is disabled.
libcuda.so.1: cannot open shared object file: No such file or directory
libcuda.dylib: cannot open shared object file: No such file or directory
/usr/lib64/libcuda.so.1: cannot open shared object file: No such file or directory
/usr/lib64/libcuda.dylib: cannot open shared object file: No such file or directory
If you are not interested in CUDA-aware support, then run with
--mca opal_warn_on_missing_libcuda 0 to suppress this message.  If you are interested
in CUDA-aware support, then try setting LD_LIBRARY_PATH to the location
of libcuda.so.1 to get passed this issue.
--------------------------------------------------------------------------
--------------------------------------------------------------------------
No OpenFabrics connection schemes reported that they were able to be
used on a specific port.  As such, the openib BTL (OpenFabrics
support) will be disabled for this port.

  Local host:           d-3-3-1
  Local device:         mlx5_1
  Local port:           1
  CPCs attempted:       rdmacm, udcm
--------------------------------------------------------------------------

*************** JDFTx 1.6.0 (git hash 42ebbcc2) ***************

Start date and time: Sun Jan 16 15:46:03 2022
Executable jdftx with command-line: -i Rubidium.in
Running on hosts (process indices):  d-3-3-1 (0-18)
Divided in process groups (process indices):  0 (0)  1 (1)  2 (2)  3 (3)  4 (4)  5 (5)  6 (6)  7 (7)  8 (8)  9 (9)  10 (10)  11 (11)  12 (12)  13 (13)  14 (14)  15 (15)  16 (16)  17 (17)  18 (18)
Resource initialization completed at t[s]:      0.00
Run totals: 19 processes, 48 threads, 0 GPUs


Input parsed successfully to the following command list (including defaults):

basis kpoint-dependent
coords-type Lattice
core-overlap-check vector
coulomb-interaction Slab 001
davidson-band-ratio 1.1
dump End None
dump-name $INPUT.$VAR
elec-cutoff 20 100
elec-eigen-algo Davidson
elec-ex-corr gga-PBE
elec-smearing Fermi 1e-05
electronic-minimize  \
	dirUpdateScheme      FletcherReeves \
	linminMethod         DirUpdateRecommended \
	nIterations          10000 \
	history              15 \
	knormThreshold       0 \
	energyDiffThreshold  1e-08 \
	nEnergyDiff          2 \
	alphaTstart          1 \
	alphaTmin            1e-10 \
	updateTestStepSize   yes \
	alphaTreduceFactor   0.1 \
	alphaTincreaseFactor 3 \
	nAlphaAdjustMax      3 \
	wolfeEnergy          0.0001 \
	wolfeGradient        0.9 \
	fdTest               no
exchange-regularization WignerSeitzTruncated
fluid None
fluid-ex-corr (null) lda-PZ
fluid-gummel-loop 10 1.000000e-05
fluid-minimize  \
	dirUpdateScheme      PolakRibiere \
	linminMethod         DirUpdateRecommended \
	nIterations          100 \
	history              15 \
	knormThreshold       0 \
	energyDiffThreshold  0 \
	nEnergyDiff          2 \
	alphaTstart          1 \
	alphaTmin            1e-10 \
	updateTestStepSize   yes \
	alphaTreduceFactor   0.1 \
	alphaTincreaseFactor 3 \
	nAlphaAdjustMax      3 \
	wolfeEnergy          0.0001 \
	wolfeGradient        0.9 \
	fdTest               no
fluid-solvent H2O 55.338 ScalarEOS \
	epsBulk 78.4 \
	pMol 0.92466 \
	epsInf 1.77 \
	Pvap 1.06736e-10 \
	sigmaBulk 4.62e-05 \
	Rvdw 2.61727 \
	Res 1.42 \
	tauNuc 343133 \
	poleEl 15 7 1
forces-output-coords Positions
ion Rb   0.000000000000000   0.000000000000000   0.000000000000000 0
ion-species SG15/$ID_ONCV_PBE.upf
ion-width 0
ionic-minimize  \
	dirUpdateScheme      L-BFGS \
	linminMethod         DirUpdateRecommended \
	nIterations          0 \
	history              15 \
	knormThreshold       0.0001 \
	energyDiffThreshold  1e-06 \
	nEnergyDiff          2 \
	alphaTstart          1 \
	alphaTmin            1e-10 \
	updateTestStepSize   yes \
	alphaTreduceFactor   0.1 \
	alphaTincreaseFactor 3 \
	nAlphaAdjustMax      3 \
	wolfeEnergy          0.0001 \
	wolfeGradient        0.9 \
	fdTest               no
kpoint   0.000000000000   0.000000000000   0.000000000000  1.00000000000000
kpoint-folding 48 48 1 
latt-move-scale 1 1 1
latt-scale 0.53 0.53 1 
lattice  \
	   4.727486978767153   -2.363743489383574    0.000000000000000  \
	  -0.000000000000000    4.094123819672498    0.000000000000000  \
	   0.000000000000000    0.000000000000000   40.000000000000000 
lattice-minimize  \
	dirUpdateScheme      L-BFGS \
	linminMethod         DirUpdateRecommended \
	nIterations          0 \
	history              15 \
	knormThreshold       0 \
	energyDiffThreshold  1e-06 \
	nEnergyDiff          2 \
	alphaTstart          1 \
	alphaTmin            1e-10 \
	updateTestStepSize   yes \
	alphaTreduceFactor   0.1 \
	alphaTincreaseFactor 3 \
	nAlphaAdjustMax      3 \
	wolfeEnergy          0.0001 \
	wolfeGradient        0.9 \
	fdTest               no
lcao-params -1 1e-06 1e-05
pcm-variant GLSSA13
spintype no-spin
subspace-rotation-factor 1 yes
symmetries automatic
symmetry-threshold 0.0001



---------- Setting up symmetries ----------

Found 24 point-group symmetries of the bravais lattice
Found 24 space-group symmetries with basis
Applied RMS atom displacement 0 bohrs to make symmetries exact.

---------- Initializing the Grid ----------
R = 
[      2.50557     -1.25278            0  ]
[            0      2.16989            0  ]
[            0            0           40  ]
unit cell volume = 217.472
G =
[    2.50769    1.44781         -0  ]
[          0    2.89563         -0  ]
[         -0         -0    0.15708  ]
Minimum fftbox size, Smin = [  12  12  184  ]
Chosen fftbox size, S = [  12  12  192  ]

---------- Initializing tighter grid for wavefunction operations ----------
R = 
[      2.50557     -1.25278            0  ]
[            0      2.16989            0  ]
[            0            0           40  ]
unit cell volume = 217.472
G =
[    2.50769    1.44781         -0  ]
[          0    2.89563         -0  ]
[         -0         -0    0.15708  ]
Minimum fftbox size, Smin = [  12  12  164  ]
Chosen fftbox size, S = [  12  12  168  ]

---------- Exchange Correlation functional ----------
Initalized PBE GGA exchange.
Initalized PBE GGA correlation.

---------- Setting up pseudopotentials ----------
Width of ionic core gaussian charges (only for fluid interactions / plotting) set to 0

Reading pseudopotential file '/home/gridsan/aligho/DFT/build-Nov24/pseudopotentials/SG15/Rb_ONCV_PBE.upf':
  'Rb' pseudopotential, 'PBE' functional
  Generated using ONCVPSP code by D. R. Hamann
  Author: Martin Schlipf and Francois Gygi  Date: 150915.
  9 valence electrons, 3 orbitals, 6 projectors, 2308 radial grid points, with lMax = 2
  Transforming local potential to a uniform radial grid of dG=0.02 with 1688 points.
  Transforming nonlocal projectors to a uniform radial grid of dG=0.02 with 432 points.
    4S    l: 0   occupation:  2.0   eigenvalue: -1.172069
    4P    l: 1   occupation:  6.0   eigenvalue: -0.586674
    5S    l: 0   occupation:  1.0   eigenvalue: -0.082006
  Transforming atomic orbitals to a uniform radial grid of dG=0.02 with 432 points.
  Core radius for overlap checks: 2.60 bohrs.
  Reading pulay file /home/gridsan/aligho/DFT/build-Nov24/pseudopotentials/SG15/Rb_ONCV_PBE.pulay ... using dE_dnG = -1.360715e-05 computed for Ecut = 20.

Initialized 1 species with 1 total atoms.

Folded 1 k-points by 48x48x1 to 2304 k-points.

---------- Setting up k-points, bands, fillings ----------
Reduced to 217 k-points under symmetry. 
Computing the number of bands and number of electrons
Calculating initial fillings.
nElectrons:   9.000000   nBands: 6   nStates: 217

----- Setting up reduced wavefunction bases (one per k-point) -----
average nbasis = 929.150 , ideal nbasis = 929.056

---------- Setting up coulomb interaction ----------
Initialized slab truncation along lattice direction 001

---------- Setting up 2D ewald sum ----------
Optimum gaussian width for ewald sums = 1.390990 bohr.
Real space sums over 289 unit cells with max indices [  8  8  0  ]
Reciprocal space sums over 81 terms with max indices [  4  4  0  ]

---------- Allocating electronic variables ----------
Initializing wave functions:  linear combination of atomic orbitals
Note: number of bands (6) exceeds available atomic orbitals (5)
Rb pseudo-atom occupations:   s ( 2 1 )  p ( 6 )
	FillingsUpdate:  mu: +0.170588768  nElectrons: 9.000000
LCAOMinimize: Iter:   0  F: -14.8916701013084811  |grad|_K:  1.206e-03  alpha:  1.000e+00
	FillingsUpdate:  mu: +0.210298550  nElectrons: 9.000000
LCAOMinimize: Iter:   1  F: -14.8971967830527419  |grad|_K:  9.215e-05  alpha:  9.705e-01  linmin:  8.310e-02  cgtest: -5.115e-01  t[s]:      1.66
	FillingsUpdate:  mu: +0.205073648  nElectrons: 9.000000
LCAOMinimize: Iter:   2  F: -14.8972106900041670  |grad|_K:  6.434e-05  alpha:  3.619e-01  linmin: -5.257e-02  cgtest:  8.959e-01  t[s]:      2.08
LCAOMinimize: Encountered beta<0, resetting CG.
	FillingsUpdate:  mu: +0.203618790  nElectrons: 9.000000
LCAOMinimize: Iter:   3  F: -14.8972162774972645  |grad|_K:  5.031e-05  alpha:  1.925e-01  linmin: -9.099e-02  cgtest:  9.854e-01  t[s]:      2.52
LCAOMinimize: Encountered beta<0, resetting CG.
LCAOMinimize: 	Predicted alpha/alphaT>3.000000, increasing alphaT to 5.774479e-01.
	FillingsUpdate:  mu: +0.202549196  nElectrons: 9.000000
LCAOMinimize: Iter:   4  F: -14.8972195418656366  |grad|_K:  3.977e-05  alpha:  1.834e-01  linmin: -9.280e-02  cgtest:  9.889e-01  t[s]:      3.11
LCAOMinimize: Encountered beta<0, resetting CG.
[d-3-3-1:24878] 18 more processes have sent help message help-mpi-common-cuda.txt / dlopen failed
[d-3-3-1:24878] Set MCA parameter "orte_base_help_aggregate" to 0 to see all help / error messages
[d-3-3-1:24878] 18 more processes have sent help message help-mpi-btl-openib-cpc-base.txt / no cpcs for port
	FillingsUpdate:  mu: +0.202462415  nElectrons: 9.000000
LCAOMinimize: Iter:   5  F: -14.8972197810624145  |grad|_K:  3.889e-05  alpha:  1.957e-02  linmin: -9.508e-02  cgtest:  9.991e-01  t[s]:      3.56
LCAOMinimize: Encountered beta<0, resetting CG.
LCAOMinimize: 	Wrong curvature in test step, increasing alphaT to 5.870151e-02.
	FillingsUpdate:  mu: +0.202361747  nElectrons: 9.000000
LCAOMinimize: Iter:   6  F: -14.8972200240809016  |grad|_K:  4.762e-05  alpha: -1.904e-01  linmin: -3.388e-02  cgtest:  7.972e-01  t[s]:      4.00
LCAOMinimize: Converged (|Delta F|<1.000000e-06 for 2 iters).


---- Citations for features of the code used in this run ----

   Software package:
      R. Sundararaman, K. Letchworth-Weaver, K.A. Schwarz, D. Gunceler, Y. Ozhabes and T.A. Arias, 'JDFTx: software for joint density-functional theory', SoftwareX 6, 278 (2017)

   gga-PBE exchange-correlation functional:
      J.P. Perdew, K. Burke and M. Ernzerhof, Phys. Rev. Lett. 77, 3865 (1996)

   Pseudopotentials:
      M Schlipf and F Gygi, Comput. Phys. Commun. 196, 36 (2015)

   Truncated Coulomb potentials:
      R. Sundararaman and T.A. Arias, Phys. Rev. B 87, 165122 (2013)

   Total energy minimization with Auxiliary Hamiltonian:
      C. Freysoldt, S. Boeck, and J. Neugebauer, Phys. Rev. B 79, 241103(R) (2009)

This list may not be complete. Please suggest additional citations or
report any other bugs at https://github.com/shankar1729/jdftx/issues

Initialization completed successfully at t[s]:      4.08


-------- Electronic minimization -----------
	FillingsUpdate:  mu: +0.202361747  nElectrons: 9.000000
ElecMinimize: Iter:   0  F: -14.897220024080887  |grad|_K:  1.617e-03  alpha:  1.000e+00
	FillingsUpdate:  mu: +0.265947967  nElectrons: 9.000000
	SubspaceRotationAdjust: set factor to 1
ElecMinimize: Iter:   1  F: -16.560289092977730  |grad|_K:  1.185e-03  alpha:  5.857e-01  linmin:  3.759e-02  t[s]:      4.97
	FillingsUpdate:  mu: +0.074933150  nElectrons: 9.000000
	SubspaceRotationAdjust: set factor to 1.01
ElecMinimize: Iter:   2  F: -17.022416273494876  |grad|_K:  1.419e-03  alpha:  3.634e-01  linmin:  9.299e-03  t[s]:      5.55
	FillingsUpdate:  mu: +0.127633848  nElectrons: 9.000000
	SubspaceRotationAdjust: set factor to 1.02
ElecMinimize: Iter:   3  F: -17.239495610577475  |grad|_K:  7.675e-04  alpha:  1.577e-01  linmin:  6.370e-03  t[s]:      6.11
	FillingsUpdate:  mu: +0.077783811  nElectrons: 9.000000
	SubspaceRotationAdjust: set factor to 1.05
ElecMinimize: Iter:   4  F: -17.412128736751804  |grad|_K:  6.702e-04  alpha:  2.709e-01  linmin:  6.540e-04  t[s]:      6.67
	FillingsUpdate:  mu: -0.119021275  nElectrons: 9.000000
	SubspaceRotationAdjust: set factor to 1.09
ElecMinimize: Iter:   5  F: -17.552869991424064  |grad|_K:  5.916e-04  alpha:  2.574e-01  linmin:  5.104e-03  t[s]:      7.24
ElecMinimize: 	Step increased F by 4.303231e-01, reducing alpha to 5.120306e-02.
	FillingsUpdate:  mu: -0.146430255  nElectrons: 9.000000
	SubspaceRotationAdjust: set factor to 1.15
ElecMinimize: Iter:   6  F: -17.580725409901351  |grad|_K:  5.189e-04  alpha:  5.120e-02  linmin: -9.183e-03  t[s]:      8.14
ElecMinimize: 	Predicted alpha/alphaT>3.000000, increasing alphaT to 1.536092e-01.
ElecMinimize: 	Step increased F by 1.308875e+00, reducing alpha to 4.331381e-02.
	FillingsUpdate:  mu: -0.124011771  nElectrons: 9.000000
	SubspaceRotationAdjust: set factor to 1.29
ElecMinimize: Iter:   7  F: -17.615696857312940  |grad|_K:  3.881e-04  alpha:  4.331e-02  linmin: -1.544e-02  t[s]:      9.22
ElecMinimize: 	Wrong curvature in test step, increasing alphaT to 1.299414e-01.
	FillingsUpdate:  mu: -0.085637170  nElectrons: 9.000000
	SubspaceRotationAdjust: set factor to 1.56
ElecMinimize: Iter:   8  F: -17.686252018172215  |grad|_K:  3.183e-04  alpha: -1.821e-02  linmin: -1.450e-02  t[s]:      9.75
	FillingsUpdate:  mu: -0.054353252  nElectrons: 9.000000
	SubspaceRotationAdjust: set factor to 1.92
ElecMinimize: Iter:   9  F: -17.709421811539091  |grad|_K:  3.098e-04  alpha:  2.100e-02  linmin: -1.368e-02  t[s]:     10.31
ElecMinimize: 	Wrong curvature in test step, increasing alphaT to 6.299675e-02.
	FillingsUpdate:  mu: -0.046194190  nElectrons: 9.000000
	SubspaceRotationAdjust: set factor to 2.49
ElecMinimize: Iter:  10  F: -17.743879453145972  |grad|_K:  3.097e-04  alpha: -7.121e-03  linmin: -1.313e-02  t[s]:     10.82
	FillingsUpdate:  mu: +0.003892992  nElectrons: 9.000000
	SubspaceRotationAdjust: set factor to 2.76
ElecMinimize: Iter:  11  F: -17.813073366246552  |grad|_K:  3.453e-04  alpha:  2.847e-02  linmin: -1.510e-02  t[s]:     11.39
ElecMinimize: 	Wrong curvature in test step, increasing alphaT to 8.541289e-02.
	FillingsUpdate:  mu: -0.007024272  nElectrons: 9.000000
	SubspaceRotationAdjust: set factor to 4.09
ElecMinimize: Iter:  12  F: -17.916351640413986  |grad|_K:  3.491e-04  alpha: -8.310e-03  linmin: -1.067e-02  t[s]:     11.90
	FillingsUpdate:  mu: -0.683470462  nElectrons: 9.000000
	SubspaceRotationAdjust: set factor to 3.99
ElecMinimize: Iter:  13  F: -18.030774939203681  |grad|_K:  6.843e-04  alpha:  5.187e-02  linmin:  2.114e-03  t[s]:     12.47
ElecMinimize: 	Bad step direction: g.d > 0.
ElecMinimize: 	Undoing step.
ElecMinimize: 	Step failed: resetting search direction.
	FillingsUpdate:  mu: -0.683470462  nElectrons: 9.000000
	SubspaceRotationAdjust: set factor to 4.8
ElecMinimize: Iter:  14  F: -18.030774939203791  |grad|_K:  6.777e-04  alpha:  0.000e+00
ElecMinimize: 	Wrong curvature in test step, increasing alphaT to 1.556057e-01.
	FillingsUpdate:  mu: -0.366459825  nElectrons: 9.000000
	SubspaceRotationAdjust: set factor to 6
ElecMinimize: Iter:  15  F: -18.100391792181117  |grad|_K:  4.101e-04  alpha: -1.281e-01  linmin: -5.731e-03  t[s]:     13.36
	FillingsUpdate:  mu: +0.166910760  nElectrons: 9.000000
	SubspaceRotationAdjust: set factor to 5.91
ElecMinimize: Iter:  16  F: -18.106850537879644  |grad|_K:  4.953e-04  alpha:  1.985e-01  linmin:  3.390e-03  t[s]:     13.93
	FillingsUpdate:  mu: +0.006559304  nElectrons: 9.000000
	SubspaceRotationAdjust: set factor to 6.39
ElecMinimize: Iter:  17  F: -18.135883867119361  |grad|_K:  5.747e-04  alpha:  8.044e-02  linmin:  2.989e-04  t[s]:     14.49
	FillingsUpdate:  mu: -0.379813988  nElectrons: 9.000000
	SubspaceRotationAdjust: set factor to 6.05
ElecMinimize: Iter:  18  F: -18.171295166890243  |grad|_K:  6.313e-04  alpha:  5.389e-02  linmin: -5.587e-04  t[s]:     15.05
	FillingsUpdate:  mu: -0.496844340  nElectrons: 9.000000
	SubspaceRotationAdjust: set factor to 7.55
	SubspaceRotationAdjust: resetting CG because factor has changed by 7.55198
ElecMinimize: 	State modified externally: resetting search direction.
ElecMinimize: Iter:  19  F: -18.184251373155693  |grad|_K:  6.609e-04  alpha:  3.115e-02
ElecMinimize: 	Wrong curvature in test step, increasing alphaT to 9.346130e-02.
	FillingsUpdate:  mu: -0.293190487  nElectrons: 9.000000
	SubspaceRotationAdjust: set factor to 9.65
ElecMinimize: Iter:  20  F: -18.229169031294543  |grad|_K:  4.296e-04  alpha: -4.350e-02  linmin: -3.173e-03  t[s]:     16.43
ElecMinimize: 	Step increased F by 5.632559e-02, reducing alpha to 1.542197e-02.
	FillingsUpdate:  mu: -0.192034906  nElectrons: 9.000000
	SubspaceRotationAdjust: set factor to 11.3
ElecMinimize: Iter:  21  F: -18.241330250920250  |grad|_K:  3.488e-04  alpha:  1.542e-02  linmin: -3.987e-03  t[s]:     17.33
	FillingsUpdate:  mu: -0.035814243  nElectrons: 9.000000
	SubspaceRotationAdjust: set factor to 10.3
ElecMinimize: Iter:  22  F: -18.258113672085546  |grad|_K:  2.830e-04  alpha:  4.405e-02  linmin: -3.542e-03  t[s]:     17.90
ElecMinimize: 	Wrong curvature in test step, increasing alphaT to 1.321525e-01.
	FillingsUpdate:  mu: -0.112132907  nElectrons: 9.000000
	SubspaceRotationAdjust: set factor to 16.5
ElecMinimize: Iter:  23  F: -18.276148399172133  |grad|_K:  1.994e-04  alpha: -1.058e-01  linmin: -6.212e-03  t[s]:     18.41
	FillingsUpdate:  mu: -0.200378582  nElectrons: 9.000000
	SubspaceRotationAdjust: set factor to 17.1
ElecMinimize: Iter:  24  F: -18.281528050916268  |grad|_K:  1.892e-04  alpha:  3.113e-02  linmin: -3.424e-03  t[s]:     18.98
ElecMinimize: 	Predicted alpha/alphaT>3.000000, increasing alphaT to 9.339295e-02.
	FillingsUpdate:  mu: -0.288540828  nElectrons: 9.000000
	SubspaceRotationAdjust: set factor to 14.7
ElecMinimize: Iter:  25  F: -18.290881639426914  |grad|_K:  3.269e-04  alpha:  9.794e-02  linmin: -2.156e-03  t[s]:     19.71
	FillingsUpdate:  mu: -0.237231902  nElectrons: 9.000000
	SubspaceRotationAdjust: set factor to 20.4
ElecMinimize: Iter:  26  F: -18.299837899325585  |grad|_K:  3.268e-04  alpha:  3.794e-02  linmin: -2.778e-04  t[s]:     20.28
	FillingsUpdate:  mu: -0.132927612  nElectrons: 9.000000
	SubspaceRotationAdjust: set factor to 20.7
ElecMinimize: Iter:  27  F: -18.304509755267883  |grad|_K:  3.239e-04  alpha:  2.572e-02  linmin:  1.975e-04  t[s]:     20.84
	FillingsUpdate:  mu: -0.100842093  nElectrons: 9.000000
	SubspaceRotationAdjust: set factor to 24.9
ElecMinimize: Iter:  28  F: -18.307042639636077  |grad|_K:  3.536e-04  alpha:  2.301e-02  linmin: -6.460e-04  t[s]:     21.41
	FillingsUpdate:  mu: -0.082609016  nElectrons: 9.000000
	SubspaceRotationAdjust: set factor to 31.4
ElecMinimize: Iter:  29  F: -18.310296144751032  |grad|_K:  3.305e-04  alpha:  2.012e-02  linmin: -7.483e-04  t[s]:     21.96
	FillingsUpdate:  mu: -0.155141336  nElectrons: 9.000000
	SubspaceRotationAdjust: set factor to 28.1
ElecMinimize: Iter:  30  F: -18.313851288096036  |grad|_K:  3.399e-04  alpha:  2.513e-02  linmin:  7.718e-04  t[s]:     22.52
ElecMinimize: 	Step increased F by 2.267033e-04, reducing alpha to 4.477282e-04.
	FillingsUpdate:  mu: -0.155432362  nElectrons: 9.000000
	SubspaceRotationAdjust: set factor to 24.5
ElecMinimize: Iter:  31  F: -18.313906399833169  |grad|_K:  3.881e-04  alpha:  4.477e-04  linmin: -9.635e-04  t[s]:     23.39
	FillingsUpdate:  mu: -0.155249898  nElectrons: 9.000000
	SubspaceRotationAdjust: set factor to 33.6
ElecMinimize: Iter:  32  F: -18.313992889549635  |grad|_K:  2.997e-04  alpha:  2.186e-04  linmin: -4.870e-03  t[s]:     23.94
ElecMinimize: 	Predicted alpha/alphaT>3.000000, increasing alphaT to 6.557739e-04.
ElecMinimize: 	Predicted alpha/alphaT>3.000000, increasing alphaT to 1.967322e-03.
ElecMinimize: 	Predicted alpha/alphaT>3.000000, increasing alphaT to 5.901965e-03.
	FillingsUpdate:  mu: -0.159489582  nElectrons: 9.000000
	SubspaceRotationAdjust: set factor to 36.4
ElecMinimize: Iter:  33  F: -18.322458120700702  |grad|_K:  2.151e-04  alpha:  2.767e-02  linmin: -2.669e-03  t[s]:     24.87
	FillingsUpdate:  mu: -0.113646296  nElectrons: 9.000000
	SubspaceRotationAdjust: set factor to 35.9
ElecMinimize: Iter:  34  F: -18.324002979712724  |grad|_K:  2.102e-04  alpha:  2.142e-02  linmin: -6.202e-04  t[s]:     25.44
ElecMinimize: 	Predicted alpha/alphaT>3.000000, increasing alphaT to 6.425309e-02.
	FillingsUpdate:  mu: -0.163249143  nElectrons: 9.000000
	SubspaceRotationAdjust: set factor to 38.9
ElecMinimize: Iter:  35  F: -18.326499661194156  |grad|_K:  1.879e-04  alpha:  3.105e-02  linmin:  2.009e-04  t[s]:     26.18
	FillingsUpdate:  mu: -0.157932418  nElectrons: 9.000000
	SubspaceRotationAdjust: set factor to 40.2
ElecMinimize: Iter:  36  F: -18.327806947956862  |grad|_K:  1.851e-04  alpha:  3.172e-02  linmin:  3.116e-03  t[s]:     26.75
ElecMinimize: 	Step increased F by 1.936408e-05, reducing alpha to 1.528535e-03.
	FillingsUpdate:  mu: -0.157943338  nElectrons: 9.000000
	SubspaceRotationAdjust: set factor to 45.4
ElecMinimize: Iter:  37  F: -18.327890221980180  |grad|_K:  1.860e-04  alpha:  1.529e-03  linmin: -3.426e-03  t[s]:     27.64
ElecMinimize: 	Predicted alpha/alphaT>3.000000, increasing alphaT to 4.585604e-03.
ElecMinimize: 	Predicted alpha/alphaT>3.000000, increasing alphaT to 1.375681e-02.
ElecMinimize: 	Predicted alpha/alphaT>3.000000, increasing alphaT to 4.127044e-02.
ElecMinimize: 	Step increased F by 6.415143e-03, reducing alpha to 6.919220e-03.
	FillingsUpdate:  mu: -0.159708902  nElectrons: 9.000000
	SubspaceRotationAdjust: set factor to 48.6
ElecMinimize: Iter:  38  F: -18.328730096787329  |grad|_K:  1.761e-04  alpha:  6.919e-03  linmin: -3.711e-03  t[s]:     28.91
ElecMinimize: 	Wrong curvature in test step, increasing alphaT to 2.075766e-02.
	FillingsUpdate:  mu: -0.153006613  nElectrons: 9.000000
	SubspaceRotationAdjust: set factor to 49.1
ElecMinimize: Iter:  39  F: -18.330016175654428  |grad|_K:  1.723e-04  alpha: -4.072e-02  linmin: -4.983e-03  t[s]:     29.42
	FillingsUpdate:  mu: -0.194698484  nElectrons: 9.000000
	SubspaceRotationAdjust: set factor to 31.6
ElecMinimize: Iter:  40  F: -18.330389066299169  |grad|_K:  3.154e-04  alpha:  4.991e-02  linmin:  5.382e-04  t[s]:     29.99
ElecMinimize: 	Step increased F by 2.420181e-03, reducing alpha to 3.852596e-04.
	FillingsUpdate:  mu: -0.193852842  nElectrons: 9.000000
	SubspaceRotationAdjust: set factor to 17.5
ElecMinimize: Iter:  41  F: -18.330421745157100  |grad|_K:  4.753e-04  alpha:  3.853e-04  linmin:  1.591e-02  t[s]:     30.87
ElecMinimize: 	Bad step direction: g.d > 0.
ElecMinimize: 	Undoing step.
ElecMinimize: 	Step failed: resetting search direction.
	FillingsUpdate:  mu: -0.193852842  nElectrons: 9.000000
	SubspaceRotationAdjust: set factor to 10.5
ElecMinimize: Iter:  42  F: -18.330421745157100  |grad|_K:  3.676e-04  alpha:  0.000e+00
	FillingsUpdate:  mu: -0.193476081  nElectrons: 9.000000
	SubspaceRotationAdjust: set factor to 12.4
ElecMinimize: Iter:  43  F: -18.330515105927475  |grad|_K:  1.954e-04  alpha:  5.084e-04  linmin: -2.762e-03  t[s]:     31.80
ElecMinimize: 	Predicted alpha/alphaT>3.000000, increasing alphaT to 1.525082e-03.
ElecMinimize: 	Predicted alpha/alphaT>3.000000, increasing alphaT to 4.575245e-03.
ElecMinimize: 	Wrong curvature in test step, increasing alphaT to 1.372574e-02.
	FillingsUpdate:  mu: -0.161185710  nElectrons: 9.000000
	SubspaceRotationAdjust: set factor to 14.2
ElecMinimize: Iter:  44  F: -18.333671921444818  |grad|_K:  1.920e-04  alpha: -5.144e-04  linmin: -3.362e-03  t[s]:     32.68
ElecMinimize: 	Step increased F by 1.192832e-02, reducing alpha to 1.209631e-02.
	FillingsUpdate:  mu: -0.130234704  nElectrons: 9.000000
	SubspaceRotationAdjust: set factor to 19.2
ElecMinimize: Iter:  45  F: -18.336131770015637  |grad|_K:  1.586e-04  alpha:  1.210e-02  linmin: -2.850e-03  t[s]:     33.58
ElecMinimize: 	Wrong curvature in test step, increasing alphaT to 3.628893e-02.
	FillingsUpdate:  mu: -0.117121110  nElectrons: 9.000000
	SubspaceRotationAdjust: set factor to 24.3
ElecMinimize: Iter:  46  F: -18.339814066376462  |grad|_K:  1.452e-04  alpha: -6.563e-03  linmin: -3.551e-03  t[s]:     34.09
ElecMinimize: 	Step increased F by 5.537665e-03, reducing alpha to 7.237396e-03.
	FillingsUpdate:  mu: -0.122896023  nElectrons: 9.000000
	SubspaceRotationAdjust: set factor to 30.3
ElecMinimize: Iter:  47  F: -18.341056193745484  |grad|_K:  1.312e-04  alpha:  7.237e-03  linmin: -6.151e-03  t[s]:     35.01
ElecMinimize: 	Wrong curvature in test step, increasing alphaT to 2.171219e-02.
	FillingsUpdate:  mu: -0.129876917  nElectrons: 9.000000
	SubspaceRotationAdjust: set factor to 33.4
ElecMinimize: Iter:  48  F: -18.342129270514985  |grad|_K:  1.170e-04  alpha: -4.417e-01  linmin: -1.283e-02  t[s]:     35.53
ElecMinimize: 	Step increased F by 1.204413e-03, reducing alpha to 3.015878e-03.
	FillingsUpdate:  mu: -0.133738066  nElectrons: 9.000000
	SubspaceRotationAdjust: set factor to 35.4
ElecMinimize: Iter:  49  F: -18.342496046023605  |grad|_K:  1.141e-04  alpha:  3.016e-03  linmin: -1.105e-02  t[s]:     36.43
	FillingsUpdate:  mu: -0.145748371  nElectrons: 9.000000
	SubspaceRotationAdjust: set factor to 38.2
ElecMinimize: Iter:  50  F: -18.343070783178511  |grad|_K:  1.187e-04  alpha:  5.057e-03  linmin: -7.787e-03  t[s]:     36.98
ElecMinimize: 	Predicted alpha/alphaT>3.000000, increasing alphaT to 1.517031e-02.
	FillingsUpdate:  mu: -0.191194142  nElectrons: 9.000000
	SubspaceRotationAdjust: set factor to 24
ElecMinimize: Iter:  51  F: -18.344681299063534  |grad|_K:  2.057e-04  alpha:  2.051e-02  linmin: -7.411e-03  t[s]:     37.72
	FillingsUpdate:  mu: -0.202209021  nElectrons: 9.000000
	SubspaceRotationAdjust: set factor to 16.7
ElecMinimize: Iter:  52  F: -18.348769609958438  |grad|_K:  1.859e-04  alpha:  1.895e-02  linmin: -2.130e-03  t[s]:     38.29
	FillingsUpdate:  mu: -0.122423516  nElectrons: 9.000000
	SubspaceRotationAdjust: set factor to 20.5
ElecMinimize: Iter:  53  F: -18.350280259070839  |grad|_K:  1.344e-04  alpha:  1.418e-02  linmin:  4.239e-03  t[s]:     38.84
ElecMinimize: 	Bad step direction: g.d > 0.
ElecMinimize: 	Undoing step.
ElecMinimize: 	Step failed: resetting search direction.
	FillingsUpdate:  mu: -0.122423516  nElectrons: 9.000000
	SubspaceRotationAdjust: set factor to 22
ElecMinimize: Iter:  54  F: -18.350280259070683  |grad|_K:  1.355e-04  alpha:  0.000e+00
ElecMinimize: 	Predicted alpha/alphaT>3.000000, increasing alphaT to 4.253085e-02.
ElecMinimize: 	Predicted alpha/alphaT>3.000000, increasing alphaT to 1.275926e-01.
	FillingsUpdate:  mu: -0.100967487  nElectrons: 9.000000
	SubspaceRotationAdjust: set factor to 18.8
ElecMinimize: Iter:  55  F: -18.352225826612969  |grad|_K:  1.003e-04  alpha:  7.793e-02  linmin: -5.976e-03  t[s]:     40.16
	FillingsUpdate:  mu: -0.147636950  nElectrons: 9.000000
	SubspaceRotationAdjust: set factor to 13.6
ElecMinimize: Iter:  56  F: -18.353996974444058  |grad|_K:  1.075e-04  alpha:  5.393e-02  linmin: -1.991e-03  t[s]:     40.71
	FillingsUpdate:  mu: -0.106766247  nElectrons: 9.000000
	SubspaceRotationAdjust: set factor to 8.02
ElecMinimize: Iter:  57  F: -18.355088638848024  |grad|_K:  8.220e-05  alpha:  1.073e-01  linmin:  1.113e-02  t[s]:     41.26
	FillingsUpdate:  mu: -0.107011304  nElectrons: 9.000000
	SubspaceRotationAdjust: set factor to 11
ElecMinimize: Iter:  58  F: -18.355094391680282  |grad|_K:  7.679e-05  alpha:  1.128e-02  linmin: -4.849e-06  t[s]:     41.82
ElecMinimize: 	Predicted alpha/alphaT>3.000000, increasing alphaT to 3.384892e-02.
	FillingsUpdate:  mu: -0.142679521  nElectrons: 9.000000
	SubspaceRotationAdjust: set factor to 9.03
ElecMinimize: Iter:  59  F: -18.355503293373140  |grad|_K:  7.696e-05  alpha:  9.720e-02  linmin:  1.389e-03  t[s]:     42.56
	FillingsUpdate:  mu: -0.139037868  nElectrons: 9.000000
	SubspaceRotationAdjust: set factor to 13.5
ElecMinimize: Iter:  60  F: -18.355821641021858  |grad|_K:  6.767e-05  alpha:  2.809e-02  linmin: -5.041e-03  t[s]:     43.12
	FillingsUpdate:  mu: -0.117184506  nElectrons: 9.000000
	SubspaceRotationAdjust: set factor to 16.4
ElecMinimize: Iter:  61  F: -18.356037339153129  |grad|_K:  5.665e-05  alpha:  8.477e-03  linmin: -5.532e-03  t[s]:     43.67
ElecMinimize: 	Predicted alpha/alphaT>3.000000, increasing alphaT to 2.543070e-02.
ElecMinimize: 	Step increased F by 7.733671e-05, reducing alpha to 7.340433e-03.
	FillingsUpdate:  mu: -0.115061771  nElectrons: 9.000000
	SubspaceRotationAdjust: set factor to 18.9
ElecMinimize: Iter:  62  F: -18.356161794731740  |grad|_K:  5.290e-05  alpha:  7.340e-03  linmin: -1.003e-02  t[s]:     44.74
ElecMinimize: 	Wrong curvature in test step, increasing alphaT to 2.202130e-02.
	FillingsUpdate:  mu: -0.112632959  nElectrons: 9.000000
	SubspaceRotationAdjust: set factor to 21.2
ElecMinimize: Iter:  63  F: -18.356373908947038  |grad|_K:  4.799e-05  alpha: -9.547e-03  linmin: -1.668e-02  t[s]:     45.25
	FillingsUpdate:  mu: -0.109183504  nElectrons: 9.000000
	SubspaceRotationAdjust: set factor to 19.5
ElecMinimize: Iter:  64  F: -18.357076841456937  |grad|_K:  3.733e-05  alpha:  3.295e-02  linmin: -1.288e-02  t[s]:     45.81
	FillingsUpdate:  mu: -0.110652829  nElectrons: 9.000000
	SubspaceRotationAdjust: set factor to 18.4
ElecMinimize: Iter:  65  F: -18.357347590663206  |grad|_K:  3.754e-05  alpha:  6.295e-02  linmin:  6.461e-05  t[s]:     46.37
	FillingsUpdate:  mu: -0.113927660  nElectrons: 9.000000
	SubspaceRotationAdjust: set factor to 25.3
ElecMinimize: Iter:  66  F: -18.357405242671049  |grad|_K:  3.642e-05  alpha:  2.523e-02  linmin:  4.936e-04  t[s]:     46.93
	FillingsUpdate:  mu: -0.116613306  nElectrons: 9.000000
	SubspaceRotationAdjust: set factor to 27.5
ElecMinimize: Iter:  67  F: -18.357441089451996  |grad|_K:  3.861e-05  alpha:  2.380e-02  linmin:  8.392e-07  t[s]:     47.48
	FillingsUpdate:  mu: -0.116653381  nElectrons: 9.000000
	SubspaceRotationAdjust: set factor to 32
ElecMinimize: Iter:  68  F: -18.357458525553653  |grad|_K:  3.871e-05  alpha:  5.374e-03  linmin: -1.348e-03  t[s]:     48.05
	FillingsUpdate:  mu: -0.116526488  nElectrons: 9.000000
	SubspaceRotationAdjust: set factor to 37.4
ElecMinimize: Iter:  69  F: -18.357464860638014  |grad|_K:  3.888e-05  alpha:  9.842e-04  linmin: -1.983e-03  t[s]:     48.60
ElecMinimize: 	Predicted alpha/alphaT>3.000000, increasing alphaT to 2.952714e-03.
ElecMinimize: 	Predicted alpha/alphaT>3.000000, increasing alphaT to 8.858143e-03.
	FillingsUpdate:  mu: -0.115981434  nElectrons: 9.000000
	SubspaceRotationAdjust: set factor to 43.4
ElecMinimize: Iter:  70  F: -18.357483718313514  |grad|_K:  3.772e-05  alpha:  1.927e-03  linmin: -2.189e-03  t[s]:     49.53
ElecMinimize: 	Predicted alpha/alphaT>3.000000, increasing alphaT to 5.781603e-03.
	FillingsUpdate:  mu: -0.115465625  nElectrons: 9.000000
	SubspaceRotationAdjust: set factor to 49.2
ElecMinimize: Iter:  71  F: -18.357498878432548  |grad|_K:  3.664e-05  alpha:  1.251e-03  linmin: -2.369e-03  t[s]:     50.28
ElecMinimize: 	Predicted alpha/alphaT>3.000000, increasing alphaT to 3.752757e-03.
ElecMinimize: 	Predicted alpha/alphaT>3.000000, increasing alphaT to 1.125827e-02.
	FillingsUpdate:  mu: -0.113783191  nElectrons: 9.000000
	SubspaceRotationAdjust: set factor to 51
ElecMinimize: Iter:  72  F: -18.357542158514825  |grad|_K:  3.355e-05  alpha:  3.217e-03  linmin: -2.363e-03  t[s]:     51.21
	FillingsUpdate:  mu: -0.113628405  nElectrons: 9.000000
	SubspaceRotationAdjust: set factor to 52.9
ElecMinimize: Iter:  73  F: -18.357546501777207  |grad|_K:  3.340e-05  alpha:  3.315e-04  linmin: -3.138e-03  t[s]:     51.77
ElecMinimize: 	Predicted alpha/alphaT>3.000000, increasing alphaT to 9.945058e-04.
ElecMinimize: 	Step increased F by 2.312591e-06, reducing alpha to 5.665170e-05.
	FillingsUpdate:  mu: -0.113601074  nElectrons: 9.000000
	SubspaceRotationAdjust: set factor to 55
ElecMinimize: Iter:  74  F: -18.357547385123077  |grad|_K:  3.338e-05  alpha:  5.665e-05  linmin: -4.138e-03  t[s]:     52.85
ElecMinimize: 	Predicted alpha/alphaT>3.000000, increasing alphaT to 1.699551e-04.
ElecMinimize: 	Predicted alpha/alphaT>3.000000, increasing alphaT to 5.098653e-04.
ElecMinimize: 	Predicted alpha/alphaT>3.000000, increasing alphaT to 1.529596e-03.
ElecMinimize: 	Step increased F by 8.908820e-04, reducing alpha to 2.566015e-03.
ElecMinimize: 	Step increased F by 1.258897e-04, reducing alpha to 2.566015e-04.
	FillingsUpdate:  mu: -0.113472699  nElectrons: 9.000000
	SubspaceRotationAdjust: set factor to 57.2
	SubspaceRotationAdjust: resetting CG because factor has changed by 7.56762
ElecMinimize: 	State modified externally: resetting search direction.
ElecMinimize: Iter:  75  F: -18.357552050447769  |grad|_K:  3.323e-05  alpha:  2.566e-04
ElecMinimize: 	Predicted alpha/alphaT>3.000000, increasing alphaT to 7.698045e-04.
ElecMinimize: 	Predicted alpha/alphaT>3.000000, increasing alphaT to 2.309414e-03.
ElecMinimize: 	Predicted alpha/alphaT>3.000000, increasing alphaT to 6.928241e-03.
ElecMinimize: 	Step increased F by 8.218318e-04, reducing alpha to 1.700963e-02.
	FillingsUpdate:  mu: -0.113329793  nElectrons: 9.000000
	SubspaceRotationAdjust: set factor to 57.3
ElecMinimize: Iter:  76  F: -18.357595432243031  |grad|_K:  3.048e-05  alpha:  1.701e-02  linmin: -4.598e-03  t[s]:     56.00
ElecMinimize: 	Predicted alpha/alphaT>3.000000, increasing alphaT to 5.102889e-02.
ElecMinimize: 	Step increased F by 7.158499e-05, reducing alpha to 1.242494e-02.
	FillingsUpdate:  mu: -0.113252770  nElectrons: 9.000000
	SubspaceRotationAdjust: set factor to 57.2
ElecMinimize: Iter:  77  F: -18.357646089493890  |grad|_K:  2.815e-05  alpha:  1.242e-02  linmin: -8.518e-03  t[s]:     57.09
ElecMinimize: 	Predicted alpha/alphaT>3.000000, increasing alphaT to 3.727481e-02.
	FillingsUpdate:  mu: -0.113384124  nElectrons: 9.000000
	SubspaceRotationAdjust: set factor to 61.6
ElecMinimize: Iter:  78  F: -18.357909113732980  |grad|_K:  2.217e-05  alpha:  1.009e-01  linmin:  1.252e-04  t[s]:     57.82
	FillingsUpdate:  mu: -0.113234596  nElectrons: 9.000000
	SubspaceRotationAdjust: set factor to 75.2
ElecMinimize: Iter:  79  F: -18.357913578234971  |grad|_K:  2.135e-05  alpha:  3.950e-03  linmin: -2.105e-03  t[s]:     58.38
ElecMinimize: 	Predicted alpha/alphaT>3.000000, increasing alphaT to 1.184982e-02.
ElecMinimize: 	Step increased F by 1.912430e-04, reducing alpha to 3.434774e-03.
	FillingsUpdate:  mu: -0.113009348  nElectrons: 9.000000
	SubspaceRotationAdjust: set factor to 83.7
ElecMinimize: Iter:  80  F: -18.357920449218348  |grad|_K:  2.006e-05  alpha:  3.435e-03  linmin: -2.054e-03  t[s]:     59.45
ElecMinimize: 	Predicted alpha/alphaT>3.000000, increasing alphaT to 1.030432e-02.
	FillingsUpdate:  mu: -0.112548182  nElectrons: 9.000000
	SubspaceRotationAdjust: set factor to 78.3
ElecMinimize: Iter:  81  F: -18.357936213074392  |grad|_K:  1.943e-05  alpha:  6.697e-03  linmin: -1.925e-03  t[s]:     60.19
	FillingsUpdate:  mu: -0.112540772  nElectrons: 9.000000
	SubspaceRotationAdjust: set factor to 85.2
ElecMinimize: Iter:  82  F: -18.357937195459677  |grad|_K:  1.942e-05  alpha:  3.464e-04  linmin: -4.250e-03  t[s]:     60.76
ElecMinimize: 	Predicted alpha/alphaT>3.000000, increasing alphaT to 1.039262e-03.
ElecMinimize: 	Predicted alpha/alphaT>3.000000, increasing alphaT to 3.117787e-03.
ElecMinimize: 	Predicted alpha/alphaT>3.000000, increasing alphaT to 9.353360e-03.
ElecMinimize: 	Step increased F by 6.821219e-04, reducing alpha to 7.076339e-03.
	FillingsUpdate:  mu: -0.109236311  nElectrons: 9.000000
	SubspaceRotationAdjust: set factor to 98.6
ElecMinimize: Iter:  83  F: -18.357946541666326  |grad|_K:  2.170e-05  alpha:  7.076e-03  linmin: -9.993e-03  t[s]:     62.02
ElecMinimize: 	Wrong curvature in test step, increasing alphaT to 2.122902e-02.
	FillingsUpdate:  mu: -0.113781054  nElectrons: 9.000000
	SubspaceRotationAdjust: set factor to 105
ElecMinimize: Iter:  84  F: -18.357996240964141  |grad|_K:  2.135e-05  alpha: -1.174e-02  linmin: -7.505e-03  t[s]:     62.54
	FillingsUpdate:  mu: -0.120128904  nElectrons: 9.000000
	SubspaceRotationAdjust: set factor to 126
ElecMinimize: Iter:  85  F: -18.358093590061785  |grad|_K:  2.396e-05  alpha:  1.197e-02  linmin: -1.091e-02  t[s]:     63.10
ElecMinimize: 	Predicted alpha/alphaT>3.000000, increasing alphaT to 3.589505e-02.
ElecMinimize: 	Wrong curvature in test step, increasing alphaT to 1.076852e-01.
	FillingsUpdate:  mu: -0.111102868  nElectrons: 9.000000
	SubspaceRotationAdjust: set factor to 76.4
ElecMinimize: Iter:  86  F: -18.358507703327223  |grad|_K:  1.193e-04  alpha: -4.434e-01  linmin: -3.200e-02  t[s]:     63.80
ElecMinimize: 	Step increased F by 1.014928e-01, reducing alpha to 2.771641e-03.
	FillingsUpdate:  mu: -0.095113950  nElectrons: 9.000000
	SubspaceRotationAdjust: set factor to 43.6
ElecMinimize: Iter:  87  F: -18.359339860941798  |grad|_K:  2.080e-04  alpha:  2.772e-03  linmin: -1.442e-03  t[s]:     64.69
	FillingsUpdate:  mu: -0.094995125  nElectrons: 9.000000
	SubspaceRotationAdjust: set factor to 27.3
ElecMinimize: Iter:  88  F: -18.359347568787335  |grad|_K:  1.687e-04  alpha:  5.817e-05  linmin:  7.856e-05  t[s]:     65.24
	FillingsUpdate:  mu: -0.094993466  nElectrons: 9.000000
	SubspaceRotationAdjust: set factor to 19.1
ElecMinimize: Iter:  89  F: -18.359347677410778  |grad|_K:  1.413e-04  alpha:  1.839e-06  linmin: -5.854e-04  t[s]:     65.80
ElecMinimize: 	Predicted alpha/alphaT>3.000000, increasing alphaT to 5.517827e-06.
ElecMinimize: 	Predicted alpha/alphaT>3.000000, increasing alphaT to 1.655348e-05.
ElecMinimize: 	Predicted alpha/alphaT>3.000000, increasing alphaT to 4.966044e-05.
ElecMinimize: 	Step increased F by 4.680292e-05, reducing alpha to 8.612473e-06.
	FillingsUpdate:  mu: -0.094990035  nElectrons: 9.000000
	SubspaceRotationAdjust: set factor to 15
ElecMinimize: Iter:  90  F: -18.359348401890536  |grad|_K:  1.254e-04  alpha:  8.612e-06  linmin: -1.205e-03  t[s]:     67.08
ElecMinimize: 	Predicted alpha/alphaT>3.000000, increasing alphaT to 2.583742e-05.
ElecMinimize: 	Predicted alpha/alphaT>3.000000, increasing alphaT to 7.751226e-05.
	FillingsUpdate:  mu: -0.095336816  nElectrons: 9.000000
	SubspaceRotationAdjust: set factor to 14.2
ElecMinimize: Iter:  91  F: -18.359435990079444  |grad|_K:  1.212e-04  alpha:  1.603e-04  linmin: -1.412e-02  t[s]:     68.00
	FillingsUpdate:  mu: -0.095360201  nElectrons: 9.000000
	SubspaceRotationAdjust: set factor to 13.8
ElecMinimize: Iter:  92  F: -18.359446824276493  |grad|_K:  1.196e-04  alpha:  1.408e-05  linmin: -1.467e-02  t[s]:     68.57
ElecMinimize: 	Predicted alpha/alphaT>3.000000, increasing alphaT to 4.223607e-05.
ElecMinimize: 	Predicted alpha/alphaT>3.000000, increasing alphaT to 1.267082e-04.
	FillingsUpdate:  mu: -0.098670356  nElectrons: 9.000000
	SubspaceRotationAdjust: set factor to 13.7
ElecMinimize: Iter:  93  F: -18.359507100395625  |grad|_K:  1.194e-04  alpha:  7.989e-05  linmin: -1.415e-02  t[s]:     69.49
	FillingsUpdate:  mu: -0.098671012  nElectrons: 9.000000
	SubspaceRotationAdjust: set factor to 13.7
ElecMinimize: Iter:  94  F: -18.359509758429532  |grad|_K:  1.192e-04  alpha:  3.495e-06  linmin: -1.459e-02  t[s]:     70.06
ElecMinimize: 	Predicted alpha/alphaT>3.000000, increasing alphaT to 1.048615e-05.
ElecMinimize: 	Predicted alpha/alphaT>3.000000, increasing alphaT to 3.145845e-05.
ElecMinimize: 	Predicted alpha/alphaT>3.000000, increasing alphaT to 9.437535e-05.
ElecMinimize: 	Step increased F by 6.666597e-06, reducing alpha to 1.268486e-04.
ElecMinimize: 	Step increased F by 5.752804e-04, reducing alpha to 1.268486e-05.
	FillingsUpdate:  mu: -0.098678210  nElectrons: 9.000000
	SubspaceRotationAdjust: set factor to 13.7
ElecMinimize: Iter:  95  F: -18.359519745522018  |grad|_K:  1.192e-04  alpha:  1.268e-05  linmin: -1.477e-02  t[s]:     71.64
ElecMinimize: 	Predicted alpha/alphaT>3.000000, increasing alphaT to 3.805459e-05.
	FillingsUpdate:  mu: -0.098679007  nElectrons: 9.000000
	SubspaceRotationAdjust: set factor to 13.7
ElecMinimize: Iter:  96  F: -18.359520435138837  |grad|_K:  1.192e-04  alpha:  8.440e-07  linmin: -1.499e-02  t[s]:     72.39
ElecMinimize: 	Predicted alpha/alphaT>3.000000, increasing alphaT to 2.531874e-06.
ElecMinimize: 	Predicted alpha/alphaT>3.000000, increasing alphaT to 7.595622e-06.
ElecMinimize: 	Predicted alpha/alphaT>3.000000, increasing alphaT to 2.278687e-05.
	FillingsUpdate:  mu: -0.105655329  nElectrons: 9.000000
	SubspaceRotationAdjust: set factor to 17.5
ElecMinimize: Iter:  97  F: -18.359639897116885  |grad|_K:  1.245e-04  alpha:  1.377e-03  linmin: -5.121e-03  t[s]:     73.32
ElecMinimize: 	Step increased F by 2.982793e-04, reducing alpha to 2.424258e-05.
	FillingsUpdate:  mu: -0.105706225  nElectrons: 9.000000
	SubspaceRotationAdjust: set factor to 19.5
ElecMinimize: Iter:  98  F: -18.359649402614721  |grad|_K:  1.311e-04  alpha:  2.424e-05  linmin: -5.250e-03  t[s]:     74.21
	FillingsUpdate:  mu: -0.105707033  nElectrons: 9.000000
	SubspaceRotationAdjust: set factor to 20.5
ElecMinimize: Iter:  99  F: -18.359649538578040  |grad|_K:  1.343e-04  alpha:  2.925e-07  linmin: -5.616e-03  t[s]:     74.76
ElecMinimize: 	Predicted alpha/alphaT>3.000000, increasing alphaT to 8.774647e-07.
ElecMinimize: 	Predicted alpha/alphaT>3.000000, increasing alphaT to 2.632394e-06.
ElecMinimize: 	Predicted alpha/alphaT>3.000000, increasing alphaT to 7.897182e-06.
ElecMinimize: 	Step increased F by 3.576930e-04, reducing alpha to 4.539545e-05.
ElecMinimize: 	Step increased F by 4.303231e-04, reducing alpha to 4.539545e-06.
	FillingsUpdate:  mu: -0.105722339  nElectrons: 9.000000
	SubspaceRotationAdjust: set factor to 21
ElecMinimize: Iter: 100  F: -18.359651942252384  |grad|_K:  1.360e-04  alpha:  4.540e-06  linmin: -5.869e-03  t[s]:     76.36
ElecMinimize: 	Predicted alpha/alphaT>3.000000, increasing alphaT to 1.361863e-05.
	FillingsUpdate:  mu: -0.105722795  nElectrons: 9.000000
	SubspaceRotationAdjust: set factor to 21.3
ElecMinimize: Iter: 101  F: -18.359652009691182  |grad|_K:  1.368e-04  alpha:  1.154e-07  linmin: -6.132e-03  t[s]:     77.11
ElecMinimize: 	Predicted alpha/alphaT>3.000000, increasing alphaT to 3.462269e-07.
ElecMinimize: 	Predicted alpha/alphaT>3.000000, increasing alphaT to 1.038681e-06.
ElecMinimize: 	Predicted alpha/alphaT>3.000000, increasing alphaT to 3.116043e-06.
	FillingsUpdate:  mu: -0.123475866  nElectrons: 9.000000
	SubspaceRotationAdjust: set factor to 31.3
ElecMinimize: Iter: 102  F: -18.359984217441461  |grad|_K:  1.238e-04  alpha:  5.034e-04  linmin: -4.627e-03  t[s]:     78.05
	FillingsUpdate:  mu: -0.125345854  nElectrons: 9.000000
	SubspaceRotationAdjust: set factor to 39.3
ElecMinimize: Iter: 103  F: -18.360017284874317  |grad|_K:  1.322e-04  alpha:  8.373e-05  linmin: -4.068e-03  t[s]:     78.60
ElecMinimize: 	Predicted alpha/alphaT>3.000000, increasing alphaT to 2.512040e-04.
	FillingsUpdate:  mu: -0.128135506  nElectrons: 9.000000
	SubspaceRotationAdjust: set factor to 49.4
ElecMinimize: Iter: 104  F: -18.360092814114907  |grad|_K:  1.351e-04  alpha:  3.392e-04  linmin: -3.611e-06  t[s]:     79.35
	FillingsUpdate:  mu: -0.128144802  nElectrons: 9.000000
	SubspaceRotationAdjust: set factor to 54.6
ElecMinimize: Iter: 105  F: -18.360093016346163  |grad|_K:  1.417e-04  alpha:  4.808e-06  linmin: -3.680e-04  t[s]:     79.90
ElecMinimize: 	Predicted alpha/alphaT>3.000000, increasing alphaT to 1.442291e-05.
ElecMinimize: 	Predicted alpha/alphaT>3.000000, increasing alphaT to 4.326874e-05.
	FillingsUpdate:  mu: -0.128145176  nElectrons: 9.000000
	SubspaceRotationAdjust: set factor to 57.2
ElecMinimize: Iter: 106  F: -18.360093031654912  |grad|_K:  1.450e-04  alpha:  1.679e-07  linmin: -7.853e-04  t[s]:     80.83
ElecMinimize: 	Predicted alpha/alphaT>3.000000, increasing alphaT to 5.036863e-07.
ElecMinimize: 	Predicted alpha/alphaT>3.000000, increasing alphaT to 1.511059e-06.
ElecMinimize: 	Predicted alpha/alphaT>3.000000, increasing alphaT to 4.533176e-06.
ElecMinimize: 	Step increased F by 4.859299e-04, reducing alpha to 7.584710e-06.
	FillingsUpdate:  mu: -0.128163744  nElectrons: 9.000000
	SubspaceRotationAdjust: set factor to 58.7
ElecMinimize: Iter: 107  F: -18.360094086866425  |grad|_K:  1.464e-04  alpha:  7.585e-06  linmin: -1.069e-03  t[s]:     82.10
ElecMinimize: 	Predicted alpha/alphaT>3.000000, increasing alphaT to 2.275413e-05.
	FillingsUpdate:  mu: -0.128163982  nElectrons: 9.000000
	SubspaceRotationAdjust: set factor to 59.5
ElecMinimize: Iter: 108  F: -18.360094103801163  |grad|_K:  1.473e-04  alpha:  9.089e-08  linmin: -1.443e-03  t[s]:     82.85
ElecMinimize: 	Predicted alpha/alphaT>3.000000, increasing alphaT to 2.726686e-07.
ElecMinimize: 	Predicted alpha/alphaT>3.000000, increasing alphaT to 8.180057e-07.
ElecMinimize: 	Predicted alpha/alphaT>3.000000, increasing alphaT to 2.454017e-06.
ElecMinimize: 	Step increased F by 4.685594e-04, reducing alpha to 1.143886e-05.
	FillingsUpdate:  mu: -0.128195758  nElectrons: 9.000000
	SubspaceRotationAdjust: set factor to 60.4
ElecMinimize: Iter: 109  F: -18.360096727508655  |grad|_K:  1.473e-04  alpha:  1.144e-05  linmin: -1.600e-03  t[s]:     84.11
	FillingsUpdate:  mu: -0.128195855  nElectrons: 9.000000
	SubspaceRotationAdjust: set factor to 60.8
ElecMinimize: Iter: 110  F: -18.360096736536129  |grad|_K:  1.478e-04  alpha:  3.344e-08  linmin: -1.900e-03  t[s]:     84.67
ElecMinimize: 	Predicted alpha/alphaT>3.000000, increasing alphaT to 1.003214e-07.
ElecMinimize: 	Predicted alpha/alphaT>3.000000, increasing alphaT to 3.009642e-07.
ElecMinimize: 	Predicted alpha/alphaT>3.000000, increasing alphaT to 9.028926e-07.
ElecMinimize: 	Step increased F by 2.916562e-04, reducing alpha to 1.429078e-05.
ElecMinimize: 	Step increased F by 5.210876e-04, reducing alpha to 1.429078e-06.
	FillingsUpdate:  mu: -0.128200212  nElectrons: 9.000000
	SubspaceRotationAdjust: set factor to 61.1
ElecMinimize: Iter: 111  F: -18.360097198608742  |grad|_K:  1.480e-04  alpha:  1.429e-06  linmin: -2.135e-03  t[s]:     86.28
ElecMinimize: 	Predicted alpha/alphaT>3.000000, increasing alphaT to 4.287235e-06.
ElecMinimize: 	Predicted alpha/alphaT>3.000000, increasing alphaT to 1.286170e-05.
	FillingsUpdate:  mu: -0.128200406  nElectrons: 9.000000
	SubspaceRotationAdjust: set factor to 61.3
ElecMinimize: Iter: 112  F: -18.360097221565134  |grad|_K:  1.482e-04  alpha:  6.109e-08  linmin: -2.351e-03  t[s]:     87.21
ElecMinimize: 	Predicted alpha/alphaT>3.000000, increasing alphaT to 1.832793e-07.
ElecMinimize: 	Predicted alpha/alphaT>3.000000, increasing alphaT to 5.498380e-07.
ElecMinimize: 	Predicted alpha/alphaT>3.000000, increasing alphaT to 1.649514e-06.
ElecMinimize: 	Step increased F by 2.688722e-04, reducing alpha to 1.824516e-05.
ElecMinimize: 	Step increased F by 4.930893e-04, reducing alpha to 1.824516e-06.
	FillingsUpdate:  mu: -0.128206455  nElectrons: 9.000000
	SubspaceRotationAdjust: set factor to 61.5
ElecMinimize: Iter: 113  F: -18.360098002127334  |grad|_K:  1.482e-04  alpha:  1.825e-06  linmin: -2.506e-03  t[s]:     88.81
ElecMinimize: 	Predicted alpha/alphaT>3.000000, increasing alphaT to 5.473548e-06.
ElecMinimize: 	Predicted alpha/alphaT>3.000000, increasing alphaT to 1.642064e-05.
	FillingsUpdate:  mu: -0.128206908  nElectrons: 9.000000
	SubspaceRotationAdjust: set factor to 61.6
ElecMinimize: Iter: 114  F: -18.360098065179148  |grad|_K:  1.483e-04  alpha:  1.317e-07  linmin: -2.655e-03  t[s]:     89.74
ElecMinimize: 	Predicted alpha/alphaT>3.000000, increasing alphaT to 3.951485e-07.
ElecMinimize: 	Predicted alpha/alphaT>3.000000, increasing alphaT to 1.185445e-06.
ElecMinimize: 	Predicted alpha/alphaT>3.000000, increasing alphaT to 3.556336e-06.
ElecMinimize: 	Step increased F by 2.443376e-04, reducing alpha to 2.198608e-05.
ElecMinimize: 	Step increased F by 4.860338e-04, reducing alpha to 2.198608e-06.
	FillingsUpdate:  mu: -0.128214790  nElectrons: 9.000000
	SubspaceRotationAdjust: set factor to 61.8
ElecMinimize: Iter: 115  F: -18.360099230350745  |grad|_K:  1.481e-04  alpha:  2.199e-06  linmin: -2.753e-03  t[s]:     91.33
ElecMinimize: 	Predicted alpha/alphaT>3.000000, increasing alphaT to 6.595824e-06.
ElecMinimize: 	Wrong curvature in test step, increasing alphaT to 1.978747e-05.
	FillingsUpdate:  mu: -0.128261324  nElectrons: 9.000000
	SubspaceRotationAdjust: set factor to 61.3
ElecMinimize: Iter: 116  F: -18.360103061431417  |grad|_K:  1.489e-04  alpha: -1.935e-03  linmin: -3.053e-03  t[s]:     92.03
ElecMinimize: 	Step increased F by 9.206199e-01, reducing alpha to 3.152163e-03.
ElecMinimize: 	Step increased F by 1.038191e-02, reducing alpha to 3.152163e-04.
	FillingsUpdate:  mu: -0.115192003  nElectrons: 9.000000
	SubspaceRotationAdjust: set factor to 76.2
ElecMinimize: Iter: 117  F: -18.360358331671794  |grad|_K:  1.346e-04  alpha:  3.152e-04  linmin: -3.917e-04  t[s]:     93.26
	FillingsUpdate:  mu: -0.116054933  nElectrons: 9.000000
	SubspaceRotationAdjust: set factor to 92.5
ElecMinimize: Iter: 118  F: -18.360361836716429  |grad|_K:  1.354e-04  alpha:  6.127e-05  linmin: -1.696e-06  t[s]:     93.83
	FillingsUpdate:  mu: -0.116401072  nElectrons: 9.000000
	SubspaceRotationAdjust: set factor to 105
ElecMinimize: Iter: 119  F: -18.360362351205591  |grad|_K:  1.387e-04  alpha:  2.292e-05  linmin:  1.111e-07  t[s]:     94.39
	FillingsUpdate:  mu: -0.116751476  nElectrons: 9.000000
	SubspaceRotationAdjust: set factor to 116
ElecMinimize: Iter: 120  F: -18.360362839661104  |grad|_K:  1.401e-04  alpha:  2.089e-05  linmin:  4.389e-08  t[s]:     94.95
	FillingsUpdate:  mu: -0.117108182  nElectrons: 9.000000
	SubspaceRotationAdjust: set factor to 127
ElecMinimize: Iter: 121  F: -18.360363309995268  |grad|_K:  1.404e-04  alpha:  1.973e-05  linmin:  3.873e-08  t[s]:     95.52
	FillingsUpdate:  mu: -0.117469817  nElectrons: 9.000000
	SubspaceRotationAdjust: set factor to 140
ElecMinimize: Iter: 122  F: -18.360363761310364  |grad|_K:  1.404e-04  alpha:  1.883e-05  linmin:  3.573e-08  t[s]:     96.08
	FillingsUpdate:  mu: -0.117835005  nElectrons: 9.000000
	SubspaceRotationAdjust: set factor to 153
ElecMinimize: Iter: 123  F: -18.360364193190428  |grad|_K:  1.401e-04  alpha:  1.804e-05  linmin:  3.143e-08  t[s]:     96.64
	FillingsUpdate:  mu: -0.118202346  nElectrons: 9.000000
	SubspaceRotationAdjust: set factor to 169
ElecMinimize: Iter: 124  F: -18.360364605384191  |grad|_K:  1.397e-04  alpha:  1.728e-05  linmin:  2.895e-08  t[s]:     97.20
	FillingsUpdate:  mu: -0.118558960  nElectrons: 9.000000
	SubspaceRotationAdjust: set factor to 188
ElecMinimize: Iter: 125  F: -18.360364997750569  |grad|_K:  1.392e-04  alpha:  1.655e-05  linmin:  2.711e-08  t[s]:     97.76
	FillingsUpdate:  mu: -0.118914745  nElectrons: 9.000000
	SubspaceRotationAdjust: set factor to 209
ElecMinimize: Iter: 126  F: -18.360365370240281  |grad|_K:  1.387e-04  alpha:  1.581e-05  linmin:  2.347e-08  t[s]:     98.32
	FillingsUpdate:  mu: -0.119279984  nElectrons: 9.000000
	SubspaceRotationAdjust: set factor to 235
ElecMinimize: Iter: 127  F: -18.360365722930766  |grad|_K:  1.382e-04  alpha:  1.508e-05  linmin:  2.164e-08  t[s]:     98.87
	FillingsUpdate:  mu: -0.119641680  nElectrons: 9.000000
	SubspaceRotationAdjust: set factor to 265
ElecMinimize: Iter: 128  F: -18.360366055941672  |grad|_K:  1.377e-04  alpha:  1.434e-05  linmin:  1.905e-08  t[s]:     99.43
	FillingsUpdate:  mu: -0.119998440  nElectrons: 9.000000
	SubspaceRotationAdjust: set factor to 302
ElecMinimize: Iter: 129  F: -18.360366369509858  |grad|_K:  1.372e-04  alpha:  1.361e-05  linmin:  1.797e-08  t[s]:     99.98
	FillingsUpdate:  mu: -0.120348871  nElectrons: 9.000000
	SubspaceRotationAdjust: set factor to 345
ElecMinimize: Iter: 130  F: -18.360366663923013  |grad|_K:  1.366e-04  alpha:  1.288e-05  linmin:  1.709e-08  t[s]:    100.54
	FillingsUpdate:  mu: -0.120691597  nElectrons: 9.000000
	SubspaceRotationAdjust: set factor to 399
ElecMinimize: Iter: 131  F: -18.360366939564674  |grad|_K:  1.361e-04  alpha:  1.215e-05  linmin:  1.556e-08  t[s]:    101.10
ElecMinimize: 	Wrong curvature in test step, increasing alphaT to 3.645975e-05.
	FillingsUpdate:  mu: -0.126098975  nElectrons: 9.000000
	SubspaceRotationAdjust: set factor to 485
	SubspaceRotationAdjust: resetting CG because factor has changed by 8.48448
ElecMinimize: 	State modified externally: resetting search direction.
ElecMinimize: Iter: 132  F: -18.360400346903841  |grad|_K:  1.391e-04  alpha: -1.011e-07
ElecMinimize: 	Step increased F by 5.674368e-02, reducing alpha to 4.181311e-03.
ElecMinimize: 	Step increased F by 6.952658e-04, reducing alpha to 4.181311e-04.
	FillingsUpdate:  mu: -0.134261480  nElectrons: 9.000000
	SubspaceRotationAdjust: set factor to 512
ElecMinimize: Iter: 133  F: -18.361072943051191  |grad|_K:  1.410e-04  alpha:  4.181e-04  linmin: -6.010e-04  t[s]:    103.11
ElecMinimize: 	Wrong curvature in test step, increasing alphaT to 1.254393e-03.
	FillingsUpdate:  mu: -0.127257948  nElectrons: 9.000000
	SubspaceRotationAdjust: set factor to 632
ElecMinimize: Iter: 134  F: -18.361282759016007  |grad|_K:  1.095e-04  alpha: -4.552e-05  linmin: -4.207e-04  t[s]:    103.62
ElecMinimize: 	Step increased F by 1.152157e-01, reducing alpha to 4.416122e-03.
ElecMinimize: 	Step increased F by 6.150794e-03, reducing alpha to 4.416122e-04.
	FillingsUpdate:  mu: -0.107280679  nElectrons: 9.000000
	SubspaceRotationAdjust: set factor to 452
ElecMinimize: Iter: 135  F: -18.361367313369055  |grad|_K:  1.825e-04  alpha:  4.416e-04  linmin: -4.016e-04  t[s]:    104.85
	FillingsUpdate:  mu: -0.107293826  nElectrons: 9.000000
	SubspaceRotationAdjust: set factor to 365
ElecMinimize: Iter: 136  F: -18.361371120123348  |grad|_K:  1.623e-04  alpha:  1.769e-05  linmin: -7.841e-04  t[s]:    105.41
ElecMinimize: 	Predicted alpha/alphaT>3.000000, increasing alphaT to 5.307285e-05.
ElecMinimize: 	Predicted alpha/alphaT>3.000000, increasing alphaT to 1.592185e-04.
	FillingsUpdate:  mu: -0.107304836  nElectrons: 9.000000
	SubspaceRotationAdjust: set factor to 324
ElecMinimize: Iter: 137  F: -18.361372412672928  |grad|_K:  1.518e-04  alpha:  5.570e-06  linmin: -1.100e-03  t[s]:    106.34
ElecMinimize: 	Predicted alpha/alphaT>3.000000, increasing alphaT to 1.671040e-05.
ElecMinimize: 	Predicted alpha/alphaT>3.000000, increasing alphaT to 5.013120e-05.
ElecMinimize: 	Predicted alpha/alphaT>3.000000, increasing alphaT to 1.503936e-04.
ElecMinimize: 	Step increased F by 2.831145e-03, reducing alpha to 1.078937e-04.
	FillingsUpdate:  mu: -0.107742841  nElectrons: 9.000000
	SubspaceRotationAdjust: set factor to 308
ElecMinimize: Iter: 138  F: -18.361398880322927  |grad|_K:  1.446e-04  alpha:  1.079e-04  linmin: -1.018e-03  t[s]:    107.61
	FillingsUpdate:  mu: -0.107768861  nElectrons: 9.000000
	SubspaceRotationAdjust: set factor to 258
ElecMinimize: Iter: 139  F: -18.361399549915419  |grad|_K:  1.569e-04  alpha:  2.734e-06  linmin: -1.027e-03  t[s]:    108.17
ElecMinimize: 	Predicted alpha/alphaT>3.000000, increasing alphaT to 8.201806e-06.
	FillingsUpdate:  mu: -0.107769381  nElectrons: 9.000000
	SubspaceRotationAdjust: set factor to 233
ElecMinimize: Iter: 140  F: -18.361399561622722  |grad|_K:  1.491e-04  alpha:  3.429e-08  linmin: -1.068e-03  t[s]:    108.92
ElecMinimize: 	Predicted alpha/alphaT>3.000000, increasing alphaT to 1.028740e-07.
ElecMinimize: 	Predicted alpha/alphaT>3.000000, increasing alphaT to 3.086221e-07.
ElecMinimize: 	Predicted alpha/alphaT>3.000000, increasing alphaT to 9.258663e-07.
ElecMinimize: 	Step increased F by 5.045922e-04, reducing alpha to 7.413953e-06.
ElecMinimize: 	Step increased F by 8.086771e-05, reducing alpha to 7.413953e-07.
	FillingsUpdate:  mu: -0.107782365  nElectrons: 9.000000
	SubspaceRotationAdjust: set factor to 232
ElecMinimize: Iter: 141  F: -18.361399828934942  |grad|_K:  1.409e-04  alpha:  7.414e-07  linmin: -1.086e-03  t[s]:    110.50
ElecMinimize: 	Predicted alpha/alphaT>3.000000, increasing alphaT to 2.224186e-06.
ElecMinimize: 	Predicted alpha/alphaT>3.000000, increasing alphaT to 6.672558e-06.
ElecMinimize: 	Predicted alpha/alphaT>3.000000, increasing alphaT to 2.001767e-05.
ElecMinimize: 	Step increased F by 4.735871e-04, reducing alpha to 7.401290e-06.
ElecMinimize: 	Step increased F by 6.129152e-06, reducing alpha to 7.401290e-07.
	FillingsUpdate:  mu: -0.107795809  nElectrons: 9.000000
	SubspaceRotationAdjust: set factor to 253
ElecMinimize: Iter: 142  F: -18.361400098950305  |grad|_K:  1.354e-04  alpha:  7.401e-07  linmin: -1.077e-03  t[s]:    112.10
ElecMinimize: 	Predicted alpha/alphaT>3.000000, increasing alphaT to 2.220387e-06.
ElecMinimize: 	Predicted alpha/alphaT>3.000000, increasing alphaT to 6.661161e-06.
ElecMinimize: 	Predicted alpha/alphaT>3.000000, increasing alphaT to 1.998348e-05.
ElecMinimize: 	Step increased F by 4.728661e-04, reducing alpha to 7.487554e-06.
ElecMinimize: 	Step increased F by 6.253257e-05, reducing alpha to 7.487554e-07.
	FillingsUpdate:  mu: -0.107809566  nElectrons: 9.000000
	SubspaceRotationAdjust: set factor to 289
ElecMinimize: Iter: 143  F: -18.361400378296281  |grad|_K:  1.329e-04  alpha:  7.488e-07  linmin: -1.050e-03  t[s]:    113.71
ElecMinimize: 	Predicted alpha/alphaT>3.000000, increasing alphaT to 2.246266e-06.
ElecMinimize: 	Predicted alpha/alphaT>3.000000, increasing alphaT to 6.738799e-06.
ElecMinimize: 	Predicted alpha/alphaT>3.000000, increasing alphaT to 2.021640e-05.
ElecMinimize: 	Step increased F by 4.655382e-04, reducing alpha to 1.005836e-05.
ElecMinimize: 	Step increased F by 3.312884e-04, reducing alpha to 1.005836e-06.
	FillingsUpdate:  mu: -0.107828570  nElectrons: 9.000000
	SubspaceRotationAdjust: set factor to 333
ElecMinimize: Iter: 144  F: -18.361400773532608  |grad|_K:  1.322e-04  alpha:  1.006e-06  linmin: -1.009e-03  t[s]:    115.31
ElecMinimize: 	Predicted alpha/alphaT>3.000000, increasing alphaT to 3.017507e-06.
ElecMinimize: 	Predicted alpha/alphaT>3.000000, increasing alphaT to 9.052521e-06.
	FillingsUpdate:  mu: -0.107829645  nElectrons: 9.000000
	SubspaceRotationAdjust: set factor to 357
ElecMinimize: Iter: 145  F: -18.361400795861488  |grad|_K:  1.364e-04  alpha:  5.225e-08  linmin: -9.797e-04  t[s]:    116.25
ElecMinimize: 	Predicted alpha/alphaT>3.000000, increasing alphaT to 1.567520e-07.
ElecMinimize: 	Predicted alpha/alphaT>3.000000, increasing alphaT to 4.702561e-07.
ElecMinimize: 	Predicted alpha/alphaT>3.000000, increasing alphaT to 1.410768e-06.
ElecMinimize: 	Step increased F by 4.764180e-04, reducing alpha to 4.426166e-06.
	FillingsUpdate:  mu: -0.107934808  nElectrons: 9.000000
	SubspaceRotationAdjust: set factor to 391
ElecMinimize: Iter: 146  F: -18.361402971596362  |grad|_K:  1.350e-04  alpha:  4.426e-06  linmin: -9.267e-04  t[s]:    117.51
	FillingsUpdate:  mu: -0.107935203  nElectrons: 9.000000
	SubspaceRotationAdjust: set factor to 408
ElecMinimize: Iter: 147  F: -18.361402979592743  |grad|_K:  1.379e-04  alpha:  1.528e-08  linmin: -8.947e-04  t[s]:    118.06
ElecMinimize: 	Predicted alpha/alphaT>3.000000, increasing alphaT to 4.585352e-08.
ElecMinimize: 	Predicted alpha/alphaT>3.000000, increasing alphaT to 1.375606e-07.
ElecMinimize: 	Predicted alpha/alphaT>3.000000, increasing alphaT to 4.126817e-07.
ElecMinimize: 	Step increased F by 5.679123e-04, reducing alpha to 4.170140e-05.
ElecMinimize: 	Step increased F by 4.752969e-04, reducing alpha to 4.170140e-06.
ElecMinimize: 	Step increased F by 3.328261e-04, reducing alpha to 4.170140e-07.
ElecMinimize: 	Step failed to reduce F after 3 attempts. Quitting step.
ElecMinimize: 	Undoing step.
ElecMinimize: 	Step failed: resetting search direction.
	FillingsUpdate:  mu: -0.111137473  nElectrons: 9.000000
	SubspaceRotationAdjust: set factor to 471
ElecMinimize: Iter: 148  F: -18.361069937454182  |grad|_K:  1.256e-04  alpha:  4.170e-07
ElecMinimize: 	Predicted alpha/alphaT>3.000000, increasing alphaT to 4.585352e-08.
ElecMinimize: 	Wrong curvature in test step, increasing alphaT to 1.375606e-07.
	FillingsUpdate:  mu: -0.111137592  nElectrons: 9.000000
	SubspaceRotationAdjust: set factor to 502
ElecMinimize: Iter: 149  F: -18.361069939213014  |grad|_K:  1.297e-04  alpha: -2.183e-04  linmin: -5.983e-04  t[s]:    120.69
ElecMinimize: 	Step increased F by 7.526308e-03, reducing alpha to 6.515324e-04.
	FillingsUpdate:  mu: -0.115115791  nElectrons: 9.000000
	SubspaceRotationAdjust: set factor to 533
ElecMinimize: Iter: 150  F: -18.361463801270240  |grad|_K:  9.893e-05  alpha:  6.515e-04  linmin: -3.463e-04  t[s]:    121.59
	FillingsUpdate:  mu: -0.124724387  nElectrons: 9.000000
	SubspaceRotationAdjust: set factor to 517
ElecMinimize: Iter: 151  F: -18.361472660265214  |grad|_K:  1.321e-04  alpha:  5.136e-04  linmin: -2.988e-04  t[s]:    122.15
	FillingsUpdate:  mu: -0.124789413  nElectrons: 9.000000
	SubspaceRotationAdjust: set factor to 551
ElecMinimize: Iter: 152  F: -18.361478823326170  |grad|_K:  1.342e-04  alpha:  6.403e-05  linmin: -8.234e-04  t[s]:    122.72
ElecMinimize: 	Predicted alpha/alphaT>3.000000, increasing alphaT to 1.921019e-04.
ElecMinimize: 	Predicted alpha/alphaT>3.000000, increasing alphaT to 5.763057e-04.
	FillingsUpdate:  mu: -0.124778688  nElectrons: 9.000000
	SubspaceRotationAdjust: set factor to 564
ElecMinimize: Iter: 153  F: -18.361496674794385  |grad|_K:  1.358e-04  alpha:  1.259e-04  linmin: -2.680e-03  t[s]:    123.65
ElecMinimize: 	Predicted alpha/alphaT>3.000000, increasing alphaT to 3.776080e-04.
ElecMinimize: 	Predicted alpha/alphaT>3.000000, increasing alphaT to 1.132824e-03.
	FillingsUpdate:  mu: -0.133106532  nElectrons: 9.000000
	SubspaceRotationAdjust: set factor to 712
ElecMinimize: Iter: 154  F: -18.361705485957472  |grad|_K:  1.020e-04  alpha:  2.218e-03  linmin: -4.810e-03  t[s]:    124.58
	FillingsUpdate:  mu: -0.107737519  nElectrons: 9.000000
	SubspaceRotationAdjust: set factor to 417
ElecMinimize: Iter: 155  F: -18.361873450206609  |grad|_K:  2.187e-04  alpha:  5.465e-04  linmin: -6.618e-04  t[s]:    125.14
	FillingsUpdate:  mu: -0.104323710  nElectrons: 9.000000
	SubspaceRotationAdjust: set factor to 251
ElecMinimize: Iter: 156  F: -18.361906990082190  |grad|_K:  1.979e-04  alpha:  1.260e-04  linmin: -1.081e-03  t[s]:    125.70
	FillingsUpdate:  mu: -0.104347753  nElectrons: 9.000000
	SubspaceRotationAdjust: set factor to 169
ElecMinimize: Iter: 157  F: -18.361921823996454  |grad|_K:  1.608e-04  alpha:  3.525e-05  linmin: -1.895e-03  t[s]:    126.26
ElecMinimize: 	Predicted alpha/alphaT>3.000000, increasing alphaT to 1.057645e-04.
	FillingsUpdate:  mu: -0.104427423  nElectrons: 9.000000
	SubspaceRotationAdjust: set factor to 128
ElecMinimize: Iter: 158  F: -18.361928681576547  |grad|_K:  1.386e-04  alpha:  2.027e-05  linmin: -3.354e-03  t[s]:    127.01
ElecMinimize: 	Predicted alpha/alphaT>3.000000, increasing alphaT to 6.080991e-05.
	FillingsUpdate:  mu: -0.104620221  nElectrons: 9.000000
	SubspaceRotationAdjust: set factor to 78.2
ElecMinimize: Iter: 159  F: -18.361941075213835  |grad|_K:  1.889e-04  alpha:  4.278e-05  linmin: -4.256e-03  t[s]:    127.77
	FillingsUpdate:  mu: -0.104583285  nElectrons: 9.000000
	SubspaceRotationAdjust: set factor to 43.7
	SubspaceRotationAdjust: resetting CG because factor has changed by 0.090148
ElecMinimize: 	State modified externally: resetting search direction.
ElecMinimize: Iter: 160  F: -18.361943470334552  |grad|_K:  1.932e-04  alpha:  5.492e-06
ElecMinimize: 	Predicted alpha/alphaT>3.000000, increasing alphaT to 1.647568e-05.
	FillingsUpdate:  mu: -0.104712586  nElectrons: 9.000000
	SubspaceRotationAdjust: set factor to 41.6
ElecMinimize: Iter: 161  F: -18.361945064260066  |grad|_K:  1.169e-04  alpha:  2.959e-05  linmin: -3.487e-03  t[s]:    129.37
	FillingsUpdate:  mu: -0.104790397  nElectrons: 9.000000
	SubspaceRotationAdjust: set factor to 56.6
ElecMinimize: Iter: 162  F: -18.361947572486709  |grad|_K:  9.661e-05  alpha:  7.461e-05  linmin: -2.446e-03  t[s]:    129.93
ElecMinimize: 	Predicted alpha/alphaT>3.000000, increasing alphaT to 2.238186e-04.
ElecMinimize: 	Predicted alpha/alphaT>3.000000, increasing alphaT to 6.714558e-04.
ElecMinimize: 	Predicted alpha/alphaT>3.000000, increasing alphaT to 2.014367e-03.
ElecMinimize: 	Step increased F by 7.898930e-04, reducing alpha to 2.042929e-03.
	FillingsUpdate:  mu: -0.106618236  nElectrons: 9.000000
	SubspaceRotationAdjust: set factor to 72.6
ElecMinimize: Iter: 163  F: -18.362033545547717  |grad|_K:  9.100e-05  alpha:  2.043e-03  linmin: -2.311e-03  t[s]:    131.20
ElecMinimize: 	Wrong curvature in test step, increasing alphaT to 6.128786e-03.
	FillingsUpdate:  mu: -0.112034723  nElectrons: 9.000000
	SubspaceRotationAdjust: set factor to 83.2
ElecMinimize: Iter: 164  F: -18.362150479372364  |grad|_K:  7.818e-05  alpha: -3.358e-02  linmin: -1.938e-03  t[s]:    131.71
ElecMinimize: 	Step increased F by 2.075804e-05, reducing alpha to 7.489863e-04.
	FillingsUpdate:  mu: -0.122859156  nElectrons: 9.000000
	SubspaceRotationAdjust: set factor to 80.9
ElecMinimize: Iter: 165  F: -18.362180565223632  |grad|_K:  7.498e-05  alpha:  7.490e-04  linmin: -1.900e-03  t[s]:    132.61
ElecMinimize: 	Predicted alpha/alphaT>3.000000, increasing alphaT to 2.246959e-03.
ElecMinimize: 	Predicted alpha/alphaT>3.000000, increasing alphaT to 6.740877e-03.
ElecMinimize: 	Step increased F by 1.011722e-03, reducing alpha to 1.249994e-03.
	FillingsUpdate:  mu: -0.123321884  nElectrons: 9.000000
	SubspaceRotationAdjust: set factor to 83.7
ElecMinimize: Iter: 166  F: -18.362241540270460  |grad|_K:  7.524e-05  alpha:  1.250e-03  linmin: -2.804e-03  t[s]:    133.89
ElecMinimize: 	Predicted alpha/alphaT>3.000000, increasing alphaT to 3.749983e-03.
ElecMinimize: 	Predicted alpha/alphaT>3.000000, increasing alphaT to 1.124995e-02.
	FillingsUpdate:  mu: -0.124126017  nElectrons: 9.000000
	SubspaceRotationAdjust: set factor to 97.7
ElecMinimize: Iter: 167  F: -18.362437051085120  |grad|_K:  8.112e-05  alpha:  3.556e-03  linmin: -4.571e-03  t[s]:    134.82
ElecMinimize: 	Predicted alpha/alphaT>3.000000, increasing alphaT to 1.066661e-02.
	FillingsUpdate:  mu: -0.124252391  nElectrons: 9.000000
	SubspaceRotationAdjust: set factor to 84.3
ElecMinimize: Iter: 168  F: -18.362677182773353  |grad|_K:  8.425e-05  alpha:  3.622e-03  linmin: -1.792e-02  t[s]:    135.56
	FillingsUpdate:  mu: -0.124083948  nElectrons: 9.000000
	SubspaceRotationAdjust: set factor to 79.8
ElecMinimize: Iter: 169  F: -18.362723577644754  |grad|_K:  7.710e-05  alpha:  5.824e-04  linmin: -1.062e-02  t[s]:    136.12
ElecMinimize: 	Predicted alpha/alphaT>3.000000, increasing alphaT to 1.747066e-03.
ElecMinimize: 	Wrong curvature in test step, increasing alphaT to 5.241199e-03.
	FillingsUpdate:  mu: -0.115199112  nElectrons: 9.000000
	SubspaceRotationAdjust: set factor to 106
ElecMinimize: Iter: 170  F: -18.362866776608548  |grad|_K:  5.047e-05  alpha: -3.190e-02  linmin: -4.811e-03  t[s]:    136.82
ElecMinimize: 	Step increased F by 2.360118e-04, reducing alpha to 2.171208e-03.
	FillingsUpdate:  mu: -0.113504515  nElectrons: 9.000000
	SubspaceRotationAdjust: set factor to 106
ElecMinimize: Iter: 171  F: -18.362934020048293  |grad|_K:  4.659e-05  alpha:  2.171e-03  linmin: -4.631e-03  t[s]:    137.72
ElecMinimize: 	Predicted alpha/alphaT>3.000000, increasing alphaT to 6.513624e-03.
	FillingsUpdate:  mu: -0.087193348  nElectrons: 9.000000
	SubspaceRotationAdjust: set factor to 58
ElecMinimize: Iter: 172  F: -18.362996203961504  |grad|_K:  1.386e-04  alpha:  1.359e-02  linmin: -1.295e-03  t[s]:    138.47
	FillingsUpdate:  mu: -0.085465305  nElectrons: 9.000000
	SubspaceRotationAdjust: set factor to 32.9
ElecMinimize: Iter: 173  F: -18.363022853031552  |grad|_K:  1.177e-04  alpha:  5.281e-04  linmin: -2.171e-03  t[s]:    139.03
ElecMinimize: 	Step increased F by 1.792353e-04, reducing alpha to 1.551251e-04.
	FillingsUpdate:  mu: -0.085347603  nElectrons: 9.000000
	SubspaceRotationAdjust: set factor to 20.3
ElecMinimize: Iter: 174  F: -18.363032293108418  |grad|_K:  9.340e-05  alpha:  1.551e-04  linmin: -7.244e-03  t[s]:    139.91
ElecMinimize: 	Predicted alpha/alphaT>3.000000, increasing alphaT to 4.653753e-04.
ElecMinimize: 	Predicted alpha/alphaT>3.000000, increasing alphaT to 1.396126e-03.
	FillingsUpdate:  mu: -0.101939964  nElectrons: 9.000000
	SubspaceRotationAdjust: set factor to 17.7
ElecMinimize: Iter: 175  F: -18.363243660511404  |grad|_K:  6.409e-05  alpha:  1.157e-03  linmin: -5.330e-03  t[s]:    140.84
ElecMinimize: 	Wrong curvature in test step, increasing alphaT to 3.470117e-03.
	FillingsUpdate:  mu: -0.120888594  nElectrons: 9.000000
	SubspaceRotationAdjust: set factor to 28.1
ElecMinimize: Iter: 176  F: -18.363304476851919  |grad|_K:  4.925e-05  alpha: -6.532e-04  linmin: -3.975e-03  t[s]:    141.36
	FillingsUpdate:  mu: -0.125160234  nElectrons: 9.000000
	SubspaceRotationAdjust: set factor to 32
ElecMinimize: Iter: 177  F: -18.363378452134775  |grad|_K:  5.022e-05  alpha:  5.389e-03  linmin: -2.915e-03  t[s]:    141.93
	FillingsUpdate:  mu: -0.125716667  nElectrons: 9.000000
	SubspaceRotationAdjust: set factor to 34.6
ElecMinimize: Iter: 178  F: -18.363424952334295  |grad|_K:  5.089e-05  alpha:  2.879e-03  linmin: -3.667e-03  t[s]:    142.49
ElecMinimize: 	Predicted alpha/alphaT>3.000000, increasing alphaT to 8.638258e-03.
	FillingsUpdate:  mu: -0.136895982  nElectrons: 9.000000
	SubspaceRotationAdjust: set factor to 34.2
ElecMinimize: Iter: 179  F: -18.363445103290875  |grad|_K:  6.069e-05  alpha:  5.816e-03  linmin: -3.111e-03  t[s]:    143.23
ElecMinimize: 	Wrong curvature in test step, increasing alphaT to 1.744668e-02.
	FillingsUpdate:  mu: -0.123593174  nElectrons: 9.000000
	SubspaceRotationAdjust: set factor to 40.2
ElecMinimize: Iter: 180  F: -18.363756904998699  |grad|_K:  6.001e-05  alpha: -2.534e-03  linmin: -5.164e-03  t[s]:    143.75
ElecMinimize: 	Step increased F by 2.529077e-03, reducing alpha to 2.000570e-03.
	FillingsUpdate:  mu: -0.123882758  nElectrons: 9.000000
	SubspaceRotationAdjust: set factor to 45.6
ElecMinimize: Iter: 181  F: -18.363807337114462  |grad|_K:  6.319e-05  alpha:  2.001e-03  linmin: -6.051e-03  t[s]:    144.64
ElecMinimize: 	Wrong curvature in test step, increasing alphaT to 6.001709e-03.
	FillingsUpdate:  mu: -0.117128087  nElectrons: 9.000000
	SubspaceRotationAdjust: set factor to 51.1
ElecMinimize: Iter: 182  F: -18.363897001017317  |grad|_K:  5.922e-05  alpha: -4.136e-03  linmin: -6.242e-03  t[s]:    145.15
ElecMinimize: 	Step increased F by 5.474181e-03, reducing alpha to 6.596074e-03.
	FillingsUpdate:  mu: -0.113914979  nElectrons: 9.000000
	SubspaceRotationAdjust: set factor to 54.4
ElecMinimize: Iter: 183  F: -18.364118928481336  |grad|_K:  5.691e-05  alpha:  6.596e-03  linmin: -6.965e-03  t[s]:    146.06
ElecMinimize: 	Wrong curvature in test step, increasing alphaT to 1.978822e-02.
	FillingsUpdate:  mu: -0.104950616  nElectrons: 9.000000
	SubspaceRotationAdjust: set factor to 55.6
ElecMinimize: Iter: 184  F: -18.364408556248687  |grad|_K:  5.849e-05  alpha: -1.571e-02  linmin: -1.928e-02  t[s]:    146.57
	FillingsUpdate:  mu: -0.130676625  nElectrons: 9.000000
	SubspaceRotationAdjust: set factor to 50.4
ElecMinimize: Iter: 185  F: -18.366259156124148  |grad|_K:  6.321e-05  alpha:  3.491e-02  linmin: -9.140e-03  t[s]:    147.14
	FillingsUpdate:  mu: -0.125818025  nElectrons: 9.000000
	SubspaceRotationAdjust: set factor to 55.1
ElecMinimize: Iter: 186  F: -18.366705858828478  |grad|_K:  5.390e-05  alpha:  1.186e-02  linmin: -1.530e-03  t[s]:    147.72
	FillingsUpdate:  mu: -0.115756966  nElectrons: 9.000000
	SubspaceRotationAdjust: set factor to 57.4
ElecMinimize: Iter: 187  F: -18.366759732614323  |grad|_K:  5.966e-05  alpha:  3.658e-03  linmin: -4.748e-04  t[s]:    148.27
	FillingsUpdate:  mu: -0.115710215  nElectrons: 9.000000
	SubspaceRotationAdjust: set factor to 70.1
ElecMinimize: Iter: 188  F: -18.366772964097926  |grad|_K:  5.985e-05  alpha:  9.889e-04  linmin: -7.910e-04  t[s]:    148.83
ElecMinimize: 	Predicted alpha/alphaT>3.000000, increasing alphaT to 2.966619e-03.
	FillingsUpdate:  mu: -0.115748106  nElectrons: 9.000000
	SubspaceRotationAdjust: set factor to 84.4
ElecMinimize: Iter: 189  F: -18.366794213534472  |grad|_K:  5.953e-05  alpha:  1.145e-03  linmin: -1.034e-03  t[s]:    149.57
ElecMinimize: 	Predicted alpha/alphaT>3.000000, increasing alphaT to 3.434867e-03.
	FillingsUpdate:  mu: -0.116414537  nElectrons: 9.000000
	SubspaceRotationAdjust: set factor to 98
ElecMinimize: Iter: 190  F: -18.366830749315511  |grad|_K:  5.597e-05  alpha:  1.694e-03  linmin: -1.122e-03  t[s]:    150.32
ElecMinimize: 	Predicted alpha/alphaT>3.000000, increasing alphaT to 5.080525e-03.
	FillingsUpdate:  mu: -0.103484985  nElectrons: 9.000000
	SubspaceRotationAdjust: set factor to 114
ElecMinimize: Iter: 191  F: -18.366835176772181  |grad|_K:  6.247e-05  alpha:  3.292e-03  linmin: -1.238e-03  t[s]:    151.06
ElecMinimize: 	Step increased F by 1.346353e-03, reducing alpha to 6.588568e-04.
	FillingsUpdate:  mu: -0.120181970  nElectrons: 9.000000
	SubspaceRotationAdjust: set factor to 102
ElecMinimize: Iter: 192  F: -18.366898874039315  |grad|_K:  5.451e-05  alpha:  6.589e-04  linmin: -1.319e-03  t[s]:    151.95
ElecMinimize: 	Predicted alpha/alphaT>3.000000, increasing alphaT to 1.976571e-03.
	FillingsUpdate:  mu: -0.123913812  nElectrons: 9.000000
	SubspaceRotationAdjust: set factor to 52.9
ElecMinimize: Iter: 193  F: -18.366939371686996  |grad|_K:  2.324e-04  alpha:  4.698e-03  linmin:  7.239e-03  t[s]:    152.69
ElecMinimize: 	Bad step direction: g.d > 0.
ElecMinimize: 	Undoing step.
ElecMinimize: 	Step failed: resetting search direction.
	FillingsUpdate:  mu: -0.123913812  nElectrons: 9.000000
	SubspaceRotationAdjust: set factor to 28.6
ElecMinimize: Iter: 194  F: -18.366939371686669  |grad|_K:  1.708e-04  alpha:  0.000e+00
	FillingsUpdate:  mu: -0.121994779  nElectrons: 9.000000
	SubspaceRotationAdjust: set factor to 46
ElecMinimize: Iter: 195  F: -18.366966613620125  |grad|_K:  5.199e-05  alpha:  2.705e-03  linmin: -3.565e-03  t[s]:    153.62
ElecMinimize: 	Predicted alpha/alphaT>3.000000, increasing alphaT to 8.114436e-03.
ElecMinimize: 	Predicted alpha/alphaT>3.000000, increasing alphaT to 2.434331e-02.
	FillingsUpdate:  mu: -0.102971552  nElectrons: 9.000000
	SubspaceRotationAdjust: set factor to 37.3
ElecMinimize: Iter: 196  F: -18.367045311428633  |grad|_K:  5.331e-05  alpha:  2.264e-02  linmin: -2.727e-03  t[s]:    154.55
ElecMinimize: 	Predicted alpha/alphaT>3.000000, increasing alphaT to 6.792899e-02.
	FillingsUpdate:  mu: -0.129640900  nElectrons: 9.000000
	SubspaceRotationAdjust: set factor to 23.3
ElecMinimize: Iter: 197  F: -18.367249050346363  |grad|_K:  4.137e-05  alpha:  2.371e-02  linmin: -1.780e-03  t[s]:    155.29
ElecMinimize: 	Predicted alpha/alphaT>3.000000, increasing alphaT to 7.112173e-02.
	FillingsUpdate:  mu: -0.118097777  nElectrons: 9.000000
	SubspaceRotationAdjust: set factor to 19.1
ElecMinimize: Iter: 198  F: -18.367412616018811  |grad|_K:  2.960e-05  alpha:  2.005e-02  linmin: -3.413e-03  t[s]:    156.03
	FillingsUpdate:  mu: -0.102573525  nElectrons: 9.000000
	SubspaceRotationAdjust: set factor to 19.6
ElecMinimize: Iter: 199  F: -18.367419290321358  |grad|_K:  3.700e-05  alpha:  1.443e-02  linmin: -3.631e-03  t[s]:    156.60
ElecMinimize: 	Predicted alpha/alphaT>3.000000, increasing alphaT to 4.328491e-02.
ElecMinimize: 	Step increased F by 1.083042e-03, reducing alpha to 6.078486e-03.
	FillingsUpdate:  mu: -0.102784651  nElectrons: 9.000000
	SubspaceRotationAdjust: set factor to 22.5
ElecMinimize: Iter: 200  F: -18.367475006057628  |grad|_K:  3.341e-05  alpha:  6.078e-03  linmin: -8.281e-03  t[s]:    157.68
ElecMinimize: 	Wrong curvature in test step, increasing alphaT to 1.823546e-02.
	FillingsUpdate:  mu: -0.120022146  nElectrons: 9.000000
	SubspaceRotationAdjust: set factor to 20.2
ElecMinimize: Iter: 201  F: -18.367571229334196  |grad|_K:  2.381e-05  alpha: -4.931e-03  linmin: -1.015e-02  t[s]:    158.19
	FillingsUpdate:  mu: -0.121751360  nElectrons: 9.000000
	SubspaceRotationAdjust: set factor to 19.4
ElecMinimize: Iter: 202  F: -18.367699042241625  |grad|_K:  2.972e-05  alpha:  3.402e-02  linmin: -1.018e-02  t[s]:    158.74
ElecMinimize: 	Step increased F by 1.207313e-03, reducing alpha to 6.251205e-03.
	FillingsUpdate:  mu: -0.121971000  nElectrons: 9.000000
	SubspaceRotationAdjust: set factor to 17.6
ElecMinimize: Iter: 203  F: -18.367737175357547  |grad|_K:  2.974e-05  alpha:  6.251e-03  linmin: -2.340e-02  t[s]:    159.63
ElecMinimize: 	Predicted alpha/alphaT>3.000000, increasing alphaT to 1.875361e-02.
ElecMinimize: 	Predicted alpha/alphaT>3.000000, increasing alphaT to 5.626084e-02.
	FillingsUpdate:  mu: -0.103254514  nElectrons: 9.000000
	SubspaceRotationAdjust: set factor to 11.3
ElecMinimize: Iter: 204  F: -18.367907876456133  |grad|_K:  2.600e-05  alpha:  4.292e-02  linmin: -3.648e-03  t[s]:    160.56
ElecMinimize: 	Predicted alpha/alphaT>3.000000, increasing alphaT to 1.287664e-01.
	FillingsUpdate:  mu: -0.129862463  nElectrons: 9.000000
	SubspaceRotationAdjust: set factor to 8.2
ElecMinimize: Iter: 205  F: -18.367964802804945  |grad|_K:  2.890e-05  alpha:  6.288e-02  linmin:  1.494e-03  t[s]:    161.33
ElecMinimize: 	Wrong curvature in test step, increasing alphaT to 1.886264e-01.
	FillingsUpdate:  mu: -0.122669629  nElectrons: 9.000000
	SubspaceRotationAdjust: set factor to 8.25
ElecMinimize: Iter: 206  F: -18.368018965401635  |grad|_K:  3.314e-05  alpha: -3.135e-02  linmin:  2.769e-03  t[s]:    161.84
	FillingsUpdate:  mu: -0.122588915  nElectrons: 9.000000
	SubspaceRotationAdjust: set factor to 8.49
ElecMinimize: Iter: 207  F: -18.368019288300911  |grad|_K:  3.324e-05  alpha:  3.346e-03  linmin:  2.651e-04  t[s]:    162.40
ElecMinimize: 	Predicted alpha/alphaT>3.000000, increasing alphaT to 1.003722e-02.
	FillingsUpdate:  mu: -0.122373819  nElectrons: 9.000000
	SubspaceRotationAdjust: set factor to 8.76
ElecMinimize: Iter: 208  F: -18.368037096766990  |grad|_K:  3.223e-05  alpha:  1.426e-02  linmin:  2.034e-07  t[s]:    163.15
	FillingsUpdate:  mu: -0.118739011  nElectrons: 9.000000
	SubspaceRotationAdjust: set factor to 9.18
ElecMinimize: Iter: 209  F: -18.368057448799487  |grad|_K:  3.012e-05  alpha:  2.054e-02  linmin:  7.941e-04  t[s]:    163.71
	FillingsUpdate:  mu: -0.118771298  nElectrons: 9.000000
	SubspaceRotationAdjust: set factor to 9.9
ElecMinimize: Iter: 210  F: -18.368060731437936  |grad|_K:  2.964e-05  alpha:  3.086e-03  linmin: -6.104e-04  t[s]:    164.27
ElecMinimize: 	Predicted alpha/alphaT>3.000000, increasing alphaT to 9.256775e-03.
ElecMinimize: 	Step increased F by 2.778448e-05, reducing alpha to 1.714841e-03.
	FillingsUpdate:  mu: -0.118851101  nElectrons: 9.000000
	SubspaceRotationAdjust: set factor to 10.7
ElecMinimize: Iter: 211  F: -18.368065524055954  |grad|_K:  2.926e-05  alpha:  1.715e-03  linmin: -1.709e-03  t[s]:    165.36
ElecMinimize: 	Predicted alpha/alphaT>3.000000, increasing alphaT to 5.144522e-03.
ElecMinimize: 	Predicted alpha/alphaT>3.000000, increasing alphaT to 1.543357e-02.
	FillingsUpdate:  mu: -0.119473001  nElectrons: 9.000000
	SubspaceRotationAdjust: set factor to 11.5
ElecMinimize: Iter: 212  F: -18.368094621792281  |grad|_K:  2.678e-05  alpha:  7.492e-03  linmin: -1.910e-03  t[s]:    166.29
	FillingsUpdate:  mu: -0.120099707  nElectrons: 9.000000
	SubspaceRotationAdjust: set factor to 11.9
ElecMinimize: Iter: 213  F: -18.368118388080980  |grad|_K:  2.485e-05  alpha:  6.325e-03  linmin: -2.189e-03  t[s]:    166.86
ElecMinimize: 	Step increased F by 2.124544e-05, reducing alpha to 1.740556e-04.
	FillingsUpdate:  mu: -0.120110141  nElectrons: 9.000000
	SubspaceRotationAdjust: set factor to 12.3
ElecMinimize: Iter: 214  F: -18.368119119442049  |grad|_K:  2.482e-05  alpha:  1.741e-04  linmin: -3.010e-03  t[s]:    167.75
ElecMinimize: 	Predicted alpha/alphaT>3.000000, increasing alphaT to 5.221668e-04.
ElecMinimize: 	Predicted alpha/alphaT>3.000000, increasing alphaT to 1.566500e-03.
	FillingsUpdate:  mu: -0.120057561  nElectrons: 9.000000
	SubspaceRotationAdjust: set factor to 12.8
ElecMinimize: Iter: 215  F: -18.368121143017905  |grad|_K:  2.490e-05  alpha:  3.633e-04  linmin: -3.511e-03  t[s]:    168.71
ElecMinimize: 	Predicted alpha/alphaT>3.000000, increasing alphaT to 1.089837e-03.
	FillingsUpdate:  mu: -0.119021741  nElectrons: 9.000000
	SubspaceRotationAdjust: set factor to 15.5
ElecMinimize: Iter: 216  F: -18.368124176062743  |grad|_K:  3.074e-05  alpha:  4.981e-04  linmin: -1.646e-03  t[s]:    169.46
	FillingsUpdate:  mu: -0.117821850  nElectrons: 9.000000
	SubspaceRotationAdjust: set factor to 10.5
ElecMinimize: Iter: 217  F: -18.368125124359540  |grad|_K:  4.736e-05  alpha:  1.542e-04  linmin: -3.633e-04  t[s]:    170.02
	FillingsUpdate:  mu: -0.116886759  nElectrons: 9.000000
	SubspaceRotationAdjust: set factor to 6.59
ElecMinimize: Iter: 218  F: -18.368125459138522  |grad|_K:  5.301e-05  alpha:  4.397e-05  linmin: -7.185e-05  t[s]:    170.58
	FillingsUpdate:  mu: -0.116143651  nElectrons: 9.000000
	SubspaceRotationAdjust: set factor to 4.18
	SubspaceRotationAdjust: resetting CG because factor has changed by 0.0955588
ElecMinimize: 	State modified externally: resetting search direction.
ElecMinimize: Iter: 219  F: -18.368125597281765  |grad|_K:  4.410e-05  alpha:  2.802e-05
ElecMinimize: 	Predicted alpha/alphaT>3.000000, increasing alphaT to 8.405525e-05.
ElecMinimize: 	Predicted alpha/alphaT>3.000000, increasing alphaT to 2.521658e-04.
ElecMinimize: 	Predicted alpha/alphaT>3.000000, increasing alphaT to 7.564973e-04.
	FillingsUpdate:  mu: -0.119285747  nElectrons: 9.000000
	SubspaceRotationAdjust: set factor to 7.37
ElecMinimize: Iter: 220  F: -18.368131228934235  |grad|_K:  2.550e-05  alpha:  1.883e-03  linmin: -1.858e-02  t[s]:    172.37
ElecMinimize: 	Predicted alpha/alphaT>3.000000, increasing alphaT to 5.650439e-03.
ElecMinimize: 	Predicted alpha/alphaT>3.000000, increasing alphaT to 1.695132e-02.
	FillingsUpdate:  mu: -0.121030963  nElectrons: 9.000000
	SubspaceRotationAdjust: set factor to 7.4
ElecMinimize: Iter: 221  F: -18.368218737393217  |grad|_K:  2.053e-05  alpha:  5.041e-02  linmin: -2.165e-02  t[s]:    173.31
ElecMinimize: 	Predicted alpha/alphaT>3.000000, increasing alphaT to 1.512384e-01.
	FillingsUpdate:  mu: -0.118957829  nElectrons: 9.000000
	SubspaceRotationAdjust: set factor to 7.37
ElecMinimize: Iter: 222  F: -18.368959073910322  |grad|_K:  2.696e-05  alpha:  2.383e-01  linmin: -2.524e-02  t[s]:    174.05
	FillingsUpdate:  mu: -0.126087656  nElectrons: 9.000000
	SubspaceRotationAdjust: set factor to 7.68
ElecMinimize: Iter: 223  F: -18.369368296741470  |grad|_K:  2.911e-05  alpha:  1.273e-01  linmin: -3.538e-03  t[s]:    174.61
	FillingsUpdate:  mu: -0.113088165  nElectrons: 9.000000
	SubspaceRotationAdjust: set factor to 6.89
ElecMinimize: Iter: 224  F: -18.369519232573147  |grad|_K:  3.527e-05  alpha:  8.500e-02  linmin: -2.777e-03  t[s]:    175.18
	FillingsUpdate:  mu: -0.113896413  nElectrons: 9.000000
	SubspaceRotationAdjust: set factor to 8.09
ElecMinimize: Iter: 225  F: -18.369569745024755  |grad|_K:  3.450e-05  alpha:  2.262e-02  linmin:  3.028e-04  t[s]:    175.73
	FillingsUpdate:  mu: -0.115430160  nElectrons: 9.000000
	SubspaceRotationAdjust: set factor to 9.07
ElecMinimize: Iter: 226  F: -18.369588387862692  |grad|_K:  3.328e-05  alpha:  1.356e-02  linmin:  5.181e-06  t[s]:    176.30
	FillingsUpdate:  mu: -0.117823456  nElectrons: 9.000000
	SubspaceRotationAdjust: set factor to 9.74
ElecMinimize: Iter: 227  F: -18.369606431626007  |grad|_K:  3.092e-05  alpha:  1.342e-02  linmin:  2.268e-06  t[s]:    176.85
	FillingsUpdate:  mu: -0.120343826  nElectrons: 9.000000
	SubspaceRotationAdjust: set factor to 9.83
ElecMinimize: Iter: 228  F: -18.369621776022889  |grad|_K:  2.864e-05  alpha:  1.322e-02  linmin:  2.711e-06  t[s]:    177.41
	FillingsUpdate:  mu: -0.122175515  nElectrons: 9.000000
	SubspaceRotationAdjust: set factor to 5.69
ElecMinimize: Iter: 229  F: -18.369625319651924  |grad|_K:  7.537e-05  alpha:  4.686e-03  linmin:  1.088e-02  t[s]:    177.97
ElecMinimize: 	Bad step direction: g.d > 0.
ElecMinimize: 	Undoing step.
ElecMinimize: 	Step failed: resetting search direction.
	FillingsUpdate:  mu: -0.122175515  nElectrons: 9.000000
	SubspaceRotationAdjust: set factor to 3.63
ElecMinimize: Iter: 230  F: -18.369625319651838  |grad|_K:  6.015e-05  alpha:  0.000e+00
	FillingsUpdate:  mu: -0.120556493  nElectrons: 9.000000
	SubspaceRotationAdjust: set factor to 3.64
ElecMinimize: Iter: 231  F: -18.369635948455258  |grad|_K:  2.775e-05  alpha:  3.423e-03  linmin: -1.345e-02  t[s]:    178.90
ElecMinimize: 	Predicted alpha/alphaT>3.000000, increasing alphaT to 1.026892e-02.
ElecMinimize: 	Predicted alpha/alphaT>3.000000, increasing alphaT to 3.080676e-02.
ElecMinimize: 	Predicted alpha/alphaT>3.000000, increasing alphaT to 9.242029e-02.
	FillingsUpdate:  mu: -0.117247012  nElectrons: 9.000000
	SubspaceRotationAdjust: set factor to 3.63
ElecMinimize: Iter: 232  F: -18.370161635147280  |grad|_K:  1.352e-05  alpha:  3.805e-01  linmin:  6.567e-05  t[s]:    179.83
	FillingsUpdate:  mu: -0.118100342  nElectrons: 9.000000
	SubspaceRotationAdjust: set factor to 3.61
ElecMinimize: Iter: 233  F: -18.370220447950960  |grad|_K:  1.152e-05  alpha:  2.653e-01  linmin: -8.616e-06  t[s]:    180.39
	FillingsUpdate:  mu: -0.118785115  nElectrons: 9.000000
	SubspaceRotationAdjust: set factor to 3.67
ElecMinimize: Iter: 234  F: -18.370260379716644  |grad|_K:  6.062e-06  alpha:  2.474e-01  linmin:  9.171e-07  t[s]:    180.95
	FillingsUpdate:  mu: -0.118888643  nElectrons: 9.000000
	SubspaceRotationAdjust: set factor to 3.61
ElecMinimize: Iter: 235  F: -18.370271792392181  |grad|_K:  4.476e-06  alpha:  2.555e-01  linmin: -3.573e-06  t[s]:    181.51
	FillingsUpdate:  mu: -0.119132904  nElectrons: 9.000000
	SubspaceRotationAdjust: set factor to 3.71
ElecMinimize: Iter: 236  F: -18.370276446182018  |grad|_K:  2.449e-06  alpha:  1.910e-01  linmin: -5.213e-07  t[s]:    182.07
	FillingsUpdate:  mu: -0.110721824  nElectrons: 9.000000
	SubspaceRotationAdjust: set factor to 3.73
ElecMinimize: Iter: 237  F: -18.370477875438098  |grad|_K:  1.575e-05  alpha:  3.587e-01  linmin: -1.071e-01  t[s]:    182.63
ElecMinimize: 	Step increased F by 5.470501e-04, reducing alpha to 5.319001e-03.
	FillingsUpdate:  mu: -0.111315444  nElectrons: 9.000000
	SubspaceRotationAdjust: set factor to 4.07
ElecMinimize: Iter: 238  F: -18.370692157864035  |grad|_K:  1.214e-05  alpha:  5.319e-03  linmin: -9.918e-02  t[s]:    183.52
ElecMinimize: 	Predicted alpha/alphaT>3.000000, increasing alphaT to 1.595700e-02.
	FillingsUpdate:  mu: -0.123964759  nElectrons: 9.000000
	SubspaceRotationAdjust: set factor to 3.42
ElecMinimize: Iter: 239  F: -18.370882869454046  |grad|_K:  1.256e-05  alpha:  2.278e-02  linmin:  4.582e-03  t[s]:    184.26
ElecMinimize: 	Bad step direction: g.d > 0.
ElecMinimize: 	Undoing step.
ElecMinimize: 	Step failed: resetting search direction.
	FillingsUpdate:  mu: -0.123964759  nElectrons: 9.000000
	SubspaceRotationAdjust: set factor to 3.56
ElecMinimize: Iter: 240  F: -18.370882869454146  |grad|_K:  1.202e-05  alpha:  0.000e+00
ElecMinimize: 	Wrong curvature in test step, increasing alphaT to 6.835003e-02.
	FillingsUpdate:  mu: -0.112643611  nElectrons: 9.000000
	SubspaceRotationAdjust: set factor to 2.33
ElecMinimize: Iter: 241  F: -18.370923399994297  |grad|_K:  6.263e-06  alpha: -2.805e-03  linmin: -4.201e-04  t[s]:    185.15
	FillingsUpdate:  mu: -0.112725353  nElectrons: 9.000000
	SubspaceRotationAdjust: set factor to 2.9
ElecMinimize: Iter: 242  F: -18.370927340293463  |grad|_K:  4.821e-06  alpha:  4.681e-02  linmin: -4.792e-03  t[s]:    185.71
	FillingsUpdate:  mu: -0.112759181  nElectrons: 9.000000
	SubspaceRotationAdjust: set factor to 3.35
ElecMinimize: Iter: 243  F: -18.370927618315598  |grad|_K:  4.819e-06  alpha:  2.876e-03  linmin: -5.627e-03  t[s]:    186.27
ElecMinimize: 	Predicted alpha/alphaT>3.000000, increasing alphaT to 8.627400e-03.
ElecMinimize: 	Predicted alpha/alphaT>3.000000, increasing alphaT to 2.588220e-02.
	FillingsUpdate:  mu: -0.112791173  nElectrons: 9.000000
	SubspaceRotationAdjust: set factor to 3.97
ElecMinimize: Iter: 244  F: -18.370927822111348  |grad|_K:  4.818e-06  alpha:  1.351e-03  linmin: -5.454e-03  t[s]:    187.22
ElecMinimize: 	Predicted alpha/alphaT>3.000000, increasing alphaT to 4.052210e-03.
ElecMinimize: 	Predicted alpha/alphaT>3.000000, increasing alphaT to 1.215663e-02.
	FillingsUpdate:  mu: -0.112806460  nElectrons: 9.000000
	SubspaceRotationAdjust: set factor to 4.79
ElecMinimize: Iter: 245  F: -18.370927908205275  |grad|_K:  4.877e-06  alpha:  4.190e-04  linmin: -5.180e-03  t[s]:    188.16
ElecMinimize: 	Predicted alpha/alphaT>3.000000, increasing alphaT to 1.256904e-03.
ElecMinimize: 	Predicted alpha/alphaT>3.000000, increasing alphaT to 3.770712e-03.
ElecMinimize: 	Predicted alpha/alphaT>3.000000, increasing alphaT to 1.131214e-02.
ElecMinimize: 	Step increased F by 4.368191e-05, reducing alpha to 5.433382e-03.
	FillingsUpdate:  mu: -0.114271508  nElectrons: 9.000000
	SubspaceRotationAdjust: set factor to 2.48
ElecMinimize: Iter: 246  F: -18.370930564843171  |grad|_K:  1.997e-05  alpha:  5.433e-03  linmin: -7.342e-03  t[s]:    189.42
ElecMinimize: 	Step increased F by 4.352846e-05, reducing alpha to 2.323815e-04.
ElecMinimize: 	Step increased F by 3.704629e-05, reducing alpha to 2.323815e-05.
	FillingsUpdate:  mu: -0.117078045  nElectrons: 9.000000
	SubspaceRotationAdjust: set factor to 1.97
ElecMinimize: Iter: 247  F: -18.370932198308843  |grad|_K:  5.804e-06  alpha:  2.324e-05  linmin: -7.498e-03  t[s]:    190.64
	FillingsUpdate:  mu: -0.117884384  nElectrons: 9.000000
	SubspaceRotationAdjust: set factor to 1.33
ElecMinimize: Iter: 248  F: -18.370932284876975  |grad|_K:  3.678e-06  alpha:  6.008e-05  linmin:  3.784e-03  t[s]:    191.19
ElecMinimize: 	Bad step direction: g.d > 0.
ElecMinimize: 	Undoing step.
ElecMinimize: 	Step failed: resetting search direction.
	FillingsUpdate:  mu: -0.117884384  nElectrons: 9.000000
	SubspaceRotationAdjust: set factor to 1.46
ElecMinimize: Iter: 249  F: -18.370932284877075  |grad|_K:  3.622e-06  alpha:  0.000e+00
ElecMinimize: 	Wrong curvature in test step, increasing alphaT to 1.802498e-04.
	FillingsUpdate:  mu: -0.117883594  nElectrons: 9.000000
	SubspaceRotationAdjust: set factor to 1.55
ElecMinimize: Iter: 250  F: -18.370932286795330  |grad|_K:  3.630e-06  alpha: -3.248e-02  linmin: -5.706e-03  t[s]:    192.08
ElecMinimize: Converged (|Delta F|<1.000000e-08 for 2 iters).
Setting wave functions to eigenvectors of Hamiltonian

# Ionic positions in lattice coordinates:
ion Rb   0.000000000000000   0.000000000000000   0.000000000000000 0

# Forces in Lattice coordinates:
force Rb   0.000000000000000  -0.000000000000000   0.000000000000000 0

# Energy components:
   Eewald =      -68.1057588691798657
       EH =      -59.2887908257474976
     Eloc =      101.6040364063479160
      Enl =       -2.2164084182243826
   Epulay =        0.0000000058460325
      Exc =       -5.4746935138078623
       KE =       15.1106830455826078
-------------------------------------
     Etot =      -18.3709321691830532
       TS =        0.0000001176122780
-------------------------------------
        F =      -18.3709322867953304

IonicMinimize: Iter:   0  F: -18.370932286795330  |grad|_K:  0.000e+00  t[s]:    192.13
IonicMinimize: Converged (|grad|_K<1.000000e-04).

#--- Lowdin population analysis ---
# oxidation-state Rb +2.436

End date and time: Sun Jan 16 15:49:15 2022  (Duration: 0-0:03:12.15)
Done!
