2.09
--------------------------------------------------------------------------
The library attempted to open the following supporting CUDA libraries,
but each of them failed.  CUDA-aware support is disabled.
libcuda.so.1: cannot open shared object file: No such file or directory
libcuda.dylib: cannot open shared object file: No such file or directory
/usr/lib64/libcuda.so.1: cannot open shared object file: No such file or directory
/usr/lib64/libcuda.dylib: cannot open shared object file: No such file or directory
If you are not interested in CUDA-aware support, then run with
--mca opal_warn_on_missing_libcuda 0 to suppress this message.  If you are interested
in CUDA-aware support, then try setting LD_LIBRARY_PATH to the location
of libcuda.so.1 to get passed this issue.
--------------------------------------------------------------------------
--------------------------------------------------------------------------
No OpenFabrics connection schemes reported that they were able to be
used on a specific port.  As such, the openib BTL (OpenFabrics
support) will be disabled for this port.

  Local host:           d-16-5-1
  Local device:         mlx5_1
  Local port:           1
  CPCs attempted:       rdmacm, udcm
--------------------------------------------------------------------------

*************** JDFTx 1.6.0 (git hash 42ebbcc2) ***************

Start date and time: Sun Jan 16 15:51:41 2022
Executable jdftx with command-line: -i Rubidium.in
Running on hosts (process indices):  d-16-5-1 (0-18)
Divided in process groups (process indices):  0 (0)  1 (1)  2 (2)  3 (3)  4 (4)  5 (5)  6 (6)  7 (7)  8 (8)  9 (9)  10 (10)  11 (11)  12 (12)  13 (13)  14 (14)  15 (15)  16 (16)  17 (17)  18 (18)
Resource initialization completed at t[s]:      0.00
Run totals: 19 processes, 48 threads, 0 GPUs


Input parsed successfully to the following command list (including defaults):

basis kpoint-dependent
coords-type Lattice
core-overlap-check vector
coulomb-interaction Slab 001
davidson-band-ratio 1.1
dump End None
dump-name $INPUT.$VAR
elec-cutoff 20 100
elec-eigen-algo Davidson
elec-ex-corr gga-PBE
elec-smearing Fermi 1e-05
electronic-minimize  \
	dirUpdateScheme      FletcherReeves \
	linminMethod         DirUpdateRecommended \
	nIterations          10000 \
	history              15 \
	knormThreshold       0 \
	energyDiffThreshold  1e-08 \
	nEnergyDiff          2 \
	alphaTstart          1 \
	alphaTmin            1e-10 \
	updateTestStepSize   yes \
	alphaTreduceFactor   0.1 \
	alphaTincreaseFactor 3 \
	nAlphaAdjustMax      3 \
	wolfeEnergy          0.0001 \
	wolfeGradient        0.9 \
	fdTest               no
exchange-regularization WignerSeitzTruncated
fluid None
fluid-ex-corr (null) lda-PZ
fluid-gummel-loop 10 1.000000e-05
fluid-minimize  \
	dirUpdateScheme      PolakRibiere \
	linminMethod         DirUpdateRecommended \
	nIterations          100 \
	history              15 \
	knormThreshold       0 \
	energyDiffThreshold  0 \
	nEnergyDiff          2 \
	alphaTstart          1 \
	alphaTmin            1e-10 \
	updateTestStepSize   yes \
	alphaTreduceFactor   0.1 \
	alphaTincreaseFactor 3 \
	nAlphaAdjustMax      3 \
	wolfeEnergy          0.0001 \
	wolfeGradient        0.9 \
	fdTest               no
fluid-solvent H2O 55.338 ScalarEOS \
	epsBulk 78.4 \
	pMol 0.92466 \
	epsInf 1.77 \
	Pvap 1.06736e-10 \
	sigmaBulk 4.62e-05 \
	Rvdw 2.61727 \
	Res 1.42 \
	tauNuc 343133 \
	poleEl 15 7 1
forces-output-coords Positions
ion Rb   0.000000000000000   0.000000000000000   0.000000000000000 0
ion-species SG15/$ID_ONCV_PBE.upf
ion-width 0
ionic-minimize  \
	dirUpdateScheme      L-BFGS \
	linminMethod         DirUpdateRecommended \
	nIterations          0 \
	history              15 \
	knormThreshold       0.0001 \
	energyDiffThreshold  1e-06 \
	nEnergyDiff          2 \
	alphaTstart          1 \
	alphaTmin            1e-10 \
	updateTestStepSize   yes \
	alphaTreduceFactor   0.1 \
	alphaTincreaseFactor 3 \
	nAlphaAdjustMax      3 \
	wolfeEnergy          0.0001 \
	wolfeGradient        0.9 \
	fdTest               no
kpoint   0.000000000000   0.000000000000   0.000000000000  1.00000000000000
kpoint-folding 48 48 1 
latt-move-scale 1 1 1
latt-scale 2.09 2.09 1 
lattice  \
	   4.727486978767153   -2.363743489383575    0.000000000000000  \
	  -0.000000000000000    4.094123819672498    0.000000000000000  \
	   0.000000000000000    0.000000000000000   40.000000000000000 
lattice-minimize  \
	dirUpdateScheme      L-BFGS \
	linminMethod         DirUpdateRecommended \
	nIterations          0 \
	history              15 \
	knormThreshold       0 \
	energyDiffThreshold  1e-06 \
	nEnergyDiff          2 \
	alphaTstart          1 \
	alphaTmin            1e-10 \
	updateTestStepSize   yes \
	alphaTreduceFactor   0.1 \
	alphaTincreaseFactor 3 \
	nAlphaAdjustMax      3 \
	wolfeEnergy          0.0001 \
	wolfeGradient        0.9 \
	fdTest               no
lcao-params -1 1e-06 1e-05
pcm-variant GLSSA13
spintype no-spin
subspace-rotation-factor 1 yes
symmetries automatic
symmetry-threshold 0.0001



---------- Setting up symmetries ----------

Found 24 point-group symmetries of the bravais lattice
Found 24 space-group symmetries with basis
Applied RMS atom displacement 0 bohrs to make symmetries exact.

---------- Initializing the Grid ----------
R = 
[      9.88045     -4.94022            0  ]
[            0      8.55672            0  ]
[            0            0           40  ]
unit cell volume = 3381.77
G =
[   0.635921   0.367149         -0  ]
[          0   0.734298         -0  ]
[         -0         -0    0.15708  ]
Minimum fftbox size, Smin = [  48  48  184  ]
Chosen fftbox size, S = [  48  48  192  ]

---------- Initializing tighter grid for wavefunction operations ----------
R = 
[      9.88045     -4.94022            0  ]
[            0      8.55672            0  ]
[            0            0           40  ]
unit cell volume = 3381.77
G =
[   0.635921   0.367149         -0  ]
[          0   0.734298         -0  ]
[         -0         -0    0.15708  ]
Minimum fftbox size, Smin = [  40  40  164  ]
Chosen fftbox size, S = [  40  40  168  ]

---------- Exchange Correlation functional ----------
Initalized PBE GGA exchange.
Initalized PBE GGA correlation.

---------- Setting up pseudopotentials ----------
Width of ionic core gaussian charges (only for fluid interactions / plotting) set to 0

Reading pseudopotential file '/home/gridsan/aligho/DFT/build-Nov24/pseudopotentials/SG15/Rb_ONCV_PBE.upf':
  'Rb' pseudopotential, 'PBE' functional
  Generated using ONCVPSP code by D. R. Hamann
  Author: Martin Schlipf and Francois Gygi  Date: 150915.
  9 valence electrons, 3 orbitals, 6 projectors, 2308 radial grid points, with lMax = 2
  Transforming local potential to a uniform radial grid of dG=0.02 with 1708 points.
  Transforming nonlocal projectors to a uniform radial grid of dG=0.02 with 432 points.
    4S    l: 0   occupation:  2.0   eigenvalue: -1.172069
    4P    l: 1   occupation:  6.0   eigenvalue: -0.586674
    5S    l: 0   occupation:  1.0   eigenvalue: -0.082006
  Transforming atomic orbitals to a uniform radial grid of dG=0.02 with 432 points.
  Core radius for overlap checks: 2.60 bohrs.
  Reading pulay file /home/gridsan/aligho/DFT/build-Nov24/pseudopotentials/SG15/Rb_ONCV_PBE.pulay ... using dE_dnG = -1.360715e-05 computed for Ecut = 20.

Initialized 1 species with 1 total atoms.

Folded 1 k-points by 48x48x1 to 2304 k-points.

---------- Setting up k-points, bands, fillings ----------
Reduced to 217 k-points under symmetry. 
Computing the number of bands and number of electrons
Calculating initial fillings.
nElectrons:   9.000000   nBands: 6   nStates: 217

----- Setting up reduced wavefunction bases (one per k-point) -----
average nbasis = 14447.491 , ideal nbasis = 14447.173

---------- Setting up coulomb interaction ----------
Initialized slab truncation along lattice direction 001

---------- Setting up 2D ewald sum ----------
Optimum gaussian width for ewald sums = 5.485226 bohr.
Real space sums over 289 unit cells with max indices [  8  8  0  ]
Reciprocal space sums over 81 terms with max indices [  4  4  0  ]

---------- Allocating electronic variables ----------
Initializing wave functions:  linear combination of atomic orbitals
Note: number of bands (6) exceeds available atomic orbitals (5)
Rb pseudo-atom occupations:   s ( 2 1 )  p ( 6 )
[d-16-5-1:27366] 18 more processes have sent help message help-mpi-common-cuda.txt / dlopen failed
[d-16-5-1:27366] Set MCA parameter "orte_base_help_aggregate" to 0 to see all help / error messages
[d-16-5-1:27366] 18 more processes have sent help message help-mpi-btl-openib-cpc-base.txt / no cpcs for port
	FillingsUpdate:  mu: -0.092857224  nElectrons: 9.000000
LCAOMinimize: Iter:   0  F: -24.4503192748419558  |grad|_K:  3.821e-06  alpha:  1.000e+00
	FillingsUpdate:  mu: -0.092853111  nElectrons: 9.000000
LCAOMinimize: Iter:   1  F: -24.4503193309474831  |grad|_K:  4.090e-08  alpha:  9.837e-01  linmin: -1.045e-02  cgtest:  1.658e-01  t[s]:     11.35
LCAOMinimize: Encountered beta<0, resetting CG.
	FillingsUpdate:  mu: -0.092853108  nElectrons: 9.000000
LCAOMinimize: Iter:   2  F: -24.4503193309540201  |grad|_K:  1.232e-09  alpha:  9.679e-01  linmin: -1.301e-01  cgtest:  9.584e-01  t[s]:     15.30
LCAOMinimize: Encountered beta<0, resetting CG.
LCAOMinimize: Converged (|Delta F|<1.000000e-06 for 2 iters).


---- Citations for features of the code used in this run ----

   Software package:
      R. Sundararaman, K. Letchworth-Weaver, K.A. Schwarz, D. Gunceler, Y. Ozhabes and T.A. Arias, 'JDFTx: software for joint density-functional theory', SoftwareX 6, 278 (2017)

   gga-PBE exchange-correlation functional:
      J.P. Perdew, K. Burke and M. Ernzerhof, Phys. Rev. Lett. 77, 3865 (1996)

   Pseudopotentials:
      M Schlipf and F Gygi, Comput. Phys. Commun. 196, 36 (2015)

   Truncated Coulomb potentials:
      R. Sundararaman and T.A. Arias, Phys. Rev. B 87, 165122 (2013)

   Total energy minimization with Auxiliary Hamiltonian:
      C. Freysoldt, S. Boeck, and J. Neugebauer, Phys. Rev. B 79, 241103(R) (2009)

This list may not be complete. Please suggest additional citations or
report any other bugs at https://github.com/shankar1729/jdftx/issues

Initialization completed successfully at t[s]:     15.71


-------- Electronic minimization -----------
	FillingsUpdate:  mu: -0.092853108  nElectrons: 9.000000
ElecMinimize: Iter:   0  F: -24.450319330953995  |grad|_K:  5.661e-06  alpha:  1.000e+00
ElecMinimize: 	Predicted alpha/alphaT>3.000000, increasing alphaT to 3.000000e+00.
	FillingsUpdate:  mu: -0.091579044  nElectrons: 9.000000
	SubspaceRotationAdjust: set factor to 1
ElecMinimize: Iter:   1  F: -24.453035546153746  |grad|_K:  6.490e-06  alpha:  4.498e+00  linmin:  3.678e-04  t[s]:     25.64
	FillingsUpdate:  mu: -0.091558340  nElectrons: 9.000000
	SubspaceRotationAdjust: set factor to 1.05
ElecMinimize: Iter:   2  F: -24.453062515854558  |grad|_K:  6.317e-06  alpha:  1.739e-02  linmin: -2.042e-03  t[s]:     30.81
ElecMinimize: 	Predicted alpha/alphaT>3.000000, increasing alphaT to 5.218146e-02.
ElecMinimize: 	Predicted alpha/alphaT>3.000000, increasing alphaT to 1.565444e-01.
ElecMinimize: 	Predicted alpha/alphaT>3.000000, increasing alphaT to 4.696331e-01.
	FillingsUpdate:  mu: -0.090073391  nElectrons: 9.000000
	SubspaceRotationAdjust: set factor to 1.1
ElecMinimize: Iter:   3  F: -24.453937383534370  |grad|_K:  4.089e-06  alpha:  6.150e-01  linmin:  3.485e-04  t[s]:     39.15
	FillingsUpdate:  mu: -0.088889256  nElectrons: 9.000000
	SubspaceRotationAdjust: set factor to 1.03
ElecMinimize: Iter:   4  F: -24.454080939800448  |grad|_K:  4.029e-06  alpha:  5.290e-01  linmin:  1.092e-04  t[s]:     44.30
	FillingsUpdate:  mu: -0.088482255  nElectrons: 9.000000
	SubspaceRotationAdjust: set factor to 1.21
ElecMinimize: Iter:   5  F: -24.454142180856785  |grad|_K:  3.696e-06  alpha:  1.478e-01  linmin: -5.342e-04  t[s]:     49.51
	FillingsUpdate:  mu: -0.087599312  nElectrons: 9.000000
	SubspaceRotationAdjust: set factor to 1.12
ElecMinimize: Iter:   6  F: -24.454243559063524  |grad|_K:  3.528e-06  alpha:  3.065e-01  linmin:  6.362e-04  t[s]:     54.64
	FillingsUpdate:  mu: -0.087237805  nElectrons: 9.000000
	SubspaceRotationAdjust: set factor to 1.07
ElecMinimize: Iter:   7  F: -24.454264690313657  |grad|_K:  3.660e-06  alpha:  1.235e-01  linmin: -9.479e-05  t[s]:     59.82
	FillingsUpdate:  mu: -0.086678951  nElectrons: 9.000000
	SubspaceRotationAdjust: set factor to 1.4
ElecMinimize: Iter:   8  F: -24.454318236482521  |grad|_K:  3.636e-06  alpha:  2.013e-01  linmin: -1.083e-04  t[s]:     64.98
	FillingsUpdate:  mu: -0.086363673  nElectrons: 9.000000
	SubspaceRotationAdjust: set factor to 1.76
ElecMinimize: Iter:   9  F: -24.454368045321896  |grad|_K:  3.258e-06  alpha:  1.937e-01  linmin: -1.265e-04  t[s]:     70.09
	FillingsUpdate:  mu: -0.086362868  nElectrons: 9.000000
	SubspaceRotationAdjust: set factor to 2.16
ElecMinimize: Iter:  10  F: -24.454374955253630  |grad|_K:  3.214e-06  alpha:  1.792e-02  linmin: -3.127e-03  t[s]:     75.28
ElecMinimize: 	Predicted alpha/alphaT>3.000000, increasing alphaT to 5.376571e-02.
	FillingsUpdate:  mu: -0.086475075  nElectrons: 9.000000
	SubspaceRotationAdjust: set factor to 2.24
ElecMinimize: Iter:  11  F: -24.454432796838535  |grad|_K:  2.180e-06  alpha:  1.367e-01  linmin: -9.647e-04  t[s]:     82.06
	FillingsUpdate:  mu: -0.086434938  nElectrons: 9.000000
	SubspaceRotationAdjust: set factor to 2.69
ElecMinimize: Iter:  12  F: -24.454471982810027  |grad|_K:  1.753e-06  alpha:  2.812e-01  linmin: -3.667e-04  t[s]:     87.20
	FillingsUpdate:  mu: -0.086106294  nElectrons: 9.000000
	SubspaceRotationAdjust: set factor to 3.49
ElecMinimize: Iter:  13  F: -24.454493223585654  |grad|_K:  1.511e-06  alpha:  3.150e-01  linmin:  8.588e-05  t[s]:     92.36
	FillingsUpdate:  mu: -0.085726040  nElectrons: 9.000000
	SubspaceRotationAdjust: set factor to 3.54
ElecMinimize: Iter:  14  F: -24.454504148299268  |grad|_K:  1.343e-06  alpha:  2.514e-01  linmin:  3.111e-05  t[s]:     97.49
	FillingsUpdate:  mu: -0.085415140  nElectrons: 9.000000
	SubspaceRotationAdjust: set factor to 3.7
ElecMinimize: Iter:  15  F: -24.454511096337885  |grad|_K:  1.311e-06  alpha:  2.017e-01  linmin:  2.816e-05  t[s]:    102.68
	FillingsUpdate:  mu: -0.085231504  nElectrons: 9.000000
	SubspaceRotationAdjust: set factor to 3.36
ElecMinimize: Iter:  16  F: -24.454516310692963  |grad|_K:  1.320e-06  alpha:  1.641e-01  linmin:  2.046e-05  t[s]:    107.85
	FillingsUpdate:  mu: -0.085225834  nElectrons: 9.000000
	SubspaceRotationAdjust: set factor to 3.68
ElecMinimize: Iter:  17  F: -24.454520858563264  |grad|_K:  1.126e-06  alpha:  1.418e-01  linmin: -9.661e-06  t[s]:    112.95
	FillingsUpdate:  mu: -0.085349363  nElectrons: 9.000000
	SubspaceRotationAdjust: set factor to 4.63
ElecMinimize: Iter:  18  F: -24.454524225862123  |grad|_K:  9.260e-07  alpha:  1.406e-01  linmin: -1.169e-04  t[s]:    118.10
	FillingsUpdate:  mu: -0.085478773  nElectrons: 9.000000
	SubspaceRotationAdjust: set factor to 4.84
ElecMinimize: Iter:  19  F: -24.454527225036649  |grad|_K:  8.265e-07  alpha:  1.748e-01  linmin: -1.017e-04  t[s]:    123.29
	FillingsUpdate:  mu: -0.085482576  nElectrons: 9.000000
	SubspaceRotationAdjust: set factor to 5.85
ElecMinimize: Iter:  20  F: -24.454530578757865  |grad|_K:  7.328e-07  alpha:  2.375e-01  linmin: -4.157e-05  t[s]:    128.46
	FillingsUpdate:  mu: -0.085340845  nElectrons: 9.000000
	SubspaceRotationAdjust: set factor to 7.41
	SubspaceRotationAdjust: resetting CG because factor has changed by 7.40814
ElecMinimize: 	State modified externally: resetting search direction.
ElecMinimize: Iter:  21  F: -24.454532807582954  |grad|_K:  6.191e-07  alpha:  2.140e-01
	FillingsUpdate:  mu: -0.085233333  nElectrons: 9.000000
	SubspaceRotationAdjust: set factor to 4.61
ElecMinimize: Iter:  22  F: -24.454534845955504  |grad|_K:  7.251e-07  alpha:  3.261e-01  linmin:  3.564e-04  t[s]:    141.90
	FillingsUpdate:  mu: -0.085263678  nElectrons: 9.000000
	SubspaceRotationAdjust: set factor to 2.79
ElecMinimize: Iter:  23  F: -24.454536499940236  |grad|_K:  5.344e-07  alpha:  2.638e-01  linmin:  2.754e-06  t[s]:    147.02
	FillingsUpdate:  mu: -0.085347068  nElectrons: 9.000000
	SubspaceRotationAdjust: set factor to 3.38
ElecMinimize: Iter:  24  F: -24.454537466525071  |grad|_K:  2.692e-07  alpha:  1.926e-01  linmin: -3.671e-05  t[s]:    152.18
	FillingsUpdate:  mu: -0.085407777  nElectrons: 9.000000
	SubspaceRotationAdjust: set factor to 2.71
ElecMinimize: Iter:  25  F: -24.454538272484292  |grad|_K:  2.627e-07  alpha:  5.430e-01  linmin: -1.575e-04  t[s]:    157.36
	FillingsUpdate:  mu: -0.085402518  nElectrons: 9.000000
	SubspaceRotationAdjust: set factor to 3.2
ElecMinimize: Iter:  26  F: -24.454539128229953  |grad|_K:  2.094e-07  alpha:  6.015e-01  linmin:  2.516e-05  t[s]:    162.59
	FillingsUpdate:  mu: -0.085406788  nElectrons: 9.000000
	SubspaceRotationAdjust: set factor to 2.66
ElecMinimize: Iter:  27  F: -24.454539649291089  |grad|_K:  2.309e-07  alpha:  6.486e-01  linmin:  5.729e-05  t[s]:    167.77
	FillingsUpdate:  mu: -0.085473760  nElectrons: 9.000000
	SubspaceRotationAdjust: set factor to 3.87
ElecMinimize: Iter:  28  F: -24.454540168682016  |grad|_K:  1.861e-07  alpha:  5.479e-01  linmin: -1.469e-06  t[s]:    172.96
	FillingsUpdate:  mu: -0.085524544  nElectrons: 9.000000
	SubspaceRotationAdjust: set factor to 3.1
ElecMinimize: Iter:  29  F: -24.454540528941941  |grad|_K:  1.552e-07  alpha:  5.525e-01  linmin: -5.668e-05  t[s]:    178.12
	FillingsUpdate:  mu: -0.085525047  nElectrons: 9.000000
	SubspaceRotationAdjust: set factor to 4.19
ElecMinimize: Iter:  30  F: -24.454540762844875  |grad|_K:  8.423e-08  alpha:  5.007e-01  linmin:  6.288e-06  t[s]:    183.33
	FillingsUpdate:  mu: -0.085533677  nElectrons: 9.000000
	SubspaceRotationAdjust: set factor to 3.4
ElecMinimize: Iter:  31  F: -24.454540857778792  |grad|_K:  8.987e-08  alpha:  7.216e-01  linmin:  3.712e-05  t[s]:    188.52
	FillingsUpdate:  mu: -0.085552784  nElectrons: 9.000000
	SubspaceRotationAdjust: set factor to 3.2
ElecMinimize: Iter:  32  F: -24.454540934957151  |grad|_K:  5.930e-08  alpha:  5.261e-01  linmin: -3.462e-06  t[s]:    193.66
	FillingsUpdate:  mu: -0.085558560  nElectrons: 9.000000
	SubspaceRotationAdjust: set factor to 3.22
ElecMinimize: Iter:  33  F: -24.454540992858810  |grad|_K:  5.781e-08  alpha:  8.722e-01  linmin: -8.409e-06  t[s]:    198.84
	FillingsUpdate:  mu: -0.085565695  nElectrons: 9.000000
	SubspaceRotationAdjust: set factor to 2.45
ElecMinimize: Iter:  34  F: -24.454541032941560  |grad|_K:  4.513e-08  alpha:  6.274e-01  linmin:  2.236e-06  t[s]:    204.03
	FillingsUpdate:  mu: -0.085576001  nElectrons: 9.000000
	SubspaceRotationAdjust: set factor to 2.96
ElecMinimize: Iter:  35  F: -24.454541065078850  |grad|_K:  3.741e-08  alpha:  8.410e-01  linmin:  8.138e-08  t[s]:    209.30
	FillingsUpdate:  mu: -0.085577702  nElectrons: 9.000000
	SubspaceRotationAdjust: set factor to 2.36
ElecMinimize: Iter:  36  F: -24.454541084999644  |grad|_K:  2.934e-08  alpha:  7.573e-01  linmin: -4.829e-06  t[s]:    214.51
	FillingsUpdate:  mu: -0.085577467  nElectrons: 9.000000
	SubspaceRotationAdjust: set factor to 2.57
ElecMinimize: Iter:  37  F: -24.454541097535124  |grad|_K:  2.182e-08  alpha:  7.711e-01  linmin:  1.124e-06  t[s]:    219.65
	FillingsUpdate:  mu: -0.085578577  nElectrons: 9.000000
	SubspaceRotationAdjust: set factor to 2.31
ElecMinimize: Iter:  38  F: -24.454541106012581  |grad|_K:  1.881e-08  alpha:  9.476e-01  linmin:  2.952e-06  t[s]:    224.82
	FillingsUpdate:  mu: -0.085576654  nElectrons: 9.000000
	SubspaceRotationAdjust: set factor to 2.13
ElecMinimize: Iter:  39  F: -24.454541111159124  |grad|_K:  1.405e-08  alpha:  7.756e-01  linmin: -3.292e-07  t[s]:    229.96
ElecMinimize: Converged (|Delta F|<1.000000e-08 for 2 iters).
Setting wave functions to eigenvectors of Hamiltonian

# Ionic positions in lattice coordinates:
ion Rb   0.000000000000000   0.000000000000000   0.000000000000000 0

# Forces in Lattice coordinates:
force Rb  -0.000000000000000   0.000000000000000   0.000000000000000 0

# Energy components:
   Eewald =      -17.2708383735240929
       EH =        2.4037526985476427
     Eloc =      -12.0887641349782342
      Enl =       -0.7968270616144291
   Epulay =        0.0000000012796390
      Exc =       -3.6709906695595733
       KE =        6.9691264994392226
-------------------------------------
     Etot =      -24.4545410404098256
       TS =        0.0000000707492985
-------------------------------------
        F =      -24.4545411111591235

IonicMinimize: Iter:   0  F: -24.454541111159124  |grad|_K:  0.000e+00  t[s]:    230.53
IonicMinimize: Converged (|grad|_K<1.000000e-04).

#--- Lowdin population analysis ---
# oxidation-state Rb +0.033

End date and time: Sun Jan 16 15:55:31 2022  (Duration: 0-0:03:50.65)
Done!
