3.14
--------------------------------------------------------------------------
The library attempted to open the following supporting CUDA libraries,
but each of them failed.  CUDA-aware support is disabled.
libcuda.so.1: cannot open shared object file: No such file or directory
libcuda.dylib: cannot open shared object file: No such file or directory
/usr/lib64/libcuda.so.1: cannot open shared object file: No such file or directory
/usr/lib64/libcuda.dylib: cannot open shared object file: No such file or directory
If you are not interested in CUDA-aware support, then run with
--mca opal_warn_on_missing_libcuda 0 to suppress this message.  If you are interested
in CUDA-aware support, then try setting LD_LIBRARY_PATH to the location
of libcuda.so.1 to get passed this issue.
--------------------------------------------------------------------------
--------------------------------------------------------------------------
No OpenFabrics connection schemes reported that they were able to be
used on a specific port.  As such, the openib BTL (OpenFabrics
support) will be disabled for this port.

  Local host:           d-16-7-2
  Local device:         mlx5_1
  Local port:           1
  CPCs attempted:       rdmacm, udcm
--------------------------------------------------------------------------

*************** JDFTx 1.6.0 (git hash 42ebbcc2) ***************

Start date and time: Sun Jan 16 15:59:19 2022
Executable jdftx with command-line: -i Rubidium.in
Running on hosts (process indices):  d-16-7-2 (0-18)
Divided in process groups (process indices):  0 (0)  1 (1)  2 (2)  3 (3)  4 (4)  5 (5)  6 (6)  7 (7)  8 (8)  9 (9)  10 (10)  11 (11)  12 (12)  13 (13)  14 (14)  15 (15)  16 (16)  17 (17)  18 (18)
Resource initialization completed at t[s]:      0.00
Run totals: 19 processes, 48 threads, 0 GPUs


Input parsed successfully to the following command list (including defaults):

basis kpoint-dependent
coords-type Lattice
core-overlap-check vector
coulomb-interaction Slab 001
davidson-band-ratio 1.1
dump End None
dump-name $INPUT.$VAR
elec-cutoff 20 100
elec-eigen-algo Davidson
elec-ex-corr gga-PBE
elec-smearing Fermi 1e-05
electronic-minimize  \
	dirUpdateScheme      FletcherReeves \
	linminMethod         DirUpdateRecommended \
	nIterations          10000 \
	history              15 \
	knormThreshold       0 \
	energyDiffThreshold  1e-08 \
	nEnergyDiff          2 \
	alphaTstart          1 \
	alphaTmin            1e-10 \
	updateTestStepSize   yes \
	alphaTreduceFactor   0.1 \
	alphaTincreaseFactor 3 \
	nAlphaAdjustMax      3 \
	wolfeEnergy          0.0001 \
	wolfeGradient        0.9 \
	fdTest               no
exchange-regularization WignerSeitzTruncated
fluid None
fluid-ex-corr (null) lda-PZ
fluid-gummel-loop 10 1.000000e-05
fluid-minimize  \
	dirUpdateScheme      PolakRibiere \
	linminMethod         DirUpdateRecommended \
	nIterations          100 \
	history              15 \
	knormThreshold       0 \
	energyDiffThreshold  0 \
	nEnergyDiff          2 \
	alphaTstart          1 \
	alphaTmin            1e-10 \
	updateTestStepSize   yes \
	alphaTreduceFactor   0.1 \
	alphaTincreaseFactor 3 \
	nAlphaAdjustMax      3 \
	wolfeEnergy          0.0001 \
	wolfeGradient        0.9 \
	fdTest               no
fluid-solvent H2O 55.338 ScalarEOS \
	epsBulk 78.4 \
	pMol 0.92466 \
	epsInf 1.77 \
	Pvap 1.06736e-10 \
	sigmaBulk 4.62e-05 \
	Rvdw 2.61727 \
	Res 1.42 \
	tauNuc 343133 \
	poleEl 15 7 1
forces-output-coords Positions
ion Rb   0.000000000000000   0.000000000000000   0.000000000000000 0
ion-species SG15/$ID_ONCV_PBE.upf
ion-width 0
ionic-minimize  \
	dirUpdateScheme      L-BFGS \
	linminMethod         DirUpdateRecommended \
	nIterations          0 \
	history              15 \
	knormThreshold       0.0001 \
	energyDiffThreshold  1e-06 \
	nEnergyDiff          2 \
	alphaTstart          1 \
	alphaTmin            1e-10 \
	updateTestStepSize   yes \
	alphaTreduceFactor   0.1 \
	alphaTincreaseFactor 3 \
	nAlphaAdjustMax      3 \
	wolfeEnergy          0.0001 \
	wolfeGradient        0.9 \
	fdTest               no
kpoint   0.000000000000   0.000000000000   0.000000000000  1.00000000000000
kpoint-folding 48 48 1 
latt-move-scale 1 1 1
latt-scale 3.14 3.14 1 
lattice  \
	   4.727486978767153   -2.363743489383575    0.000000000000000  \
	  -0.000000000000000    4.094123819672498    0.000000000000000  \
	   0.000000000000000    0.000000000000000   40.000000000000000 
lattice-minimize  \
	dirUpdateScheme      L-BFGS \
	linminMethod         DirUpdateRecommended \
	nIterations          0 \
	history              15 \
	knormThreshold       0 \
	energyDiffThreshold  1e-06 \
	nEnergyDiff          2 \
	alphaTstart          1 \
	alphaTmin            1e-10 \
	updateTestStepSize   yes \
	alphaTreduceFactor   0.1 \
	alphaTincreaseFactor 3 \
	nAlphaAdjustMax      3 \
	wolfeEnergy          0.0001 \
	wolfeGradient        0.9 \
	fdTest               no
lcao-params -1 1e-06 1e-05
pcm-variant GLSSA13
spintype no-spin
subspace-rotation-factor 1 yes
symmetries automatic
symmetry-threshold 0.0001



---------- Setting up symmetries ----------

Found 24 point-group symmetries of the bravais lattice
Found 24 space-group symmetries with basis
Applied RMS atom displacement 0 bohrs to make symmetries exact.

---------- Initializing the Grid ----------
R = 
[      14.8443     -7.42215            0  ]
[            0      12.8555            0  ]
[            0            0           40  ]
unit cell volume = 7633.27
G =
[   0.423272   0.244376         -0  ]
[          0   0.488753         -0  ]
[         -0         -0    0.15708  ]
Minimum fftbox size, Smin = [  68  68  184  ]
Chosen fftbox size, S = [  70  70  192  ]

---------- Initializing tighter grid for wavefunction operations ----------
R = 
[      14.8443     -7.42215            0  ]
[            0      12.8555            0  ]
[            0            0           40  ]
unit cell volume = 7633.27
G =
[   0.423272   0.244376         -0  ]
[          0   0.488753         -0  ]
[         -0         -0    0.15708  ]
Minimum fftbox size, Smin = [  60  60  164  ]
Chosen fftbox size, S = [  60  60  168  ]

---------- Exchange Correlation functional ----------
Initalized PBE GGA exchange.
Initalized PBE GGA correlation.

---------- Setting up pseudopotentials ----------
Width of ionic core gaussian charges (only for fluid interactions / plotting) set to 0

Reading pseudopotential file '/home/gridsan/aligho/DFT/build-Nov24/pseudopotentials/SG15/Rb_ONCV_PBE.upf':
  'Rb' pseudopotential, 'PBE' functional
  Generated using ONCVPSP code by D. R. Hamann
  Author: Martin Schlipf and Francois Gygi  Date: 150915.
  9 valence electrons, 3 orbitals, 6 projectors, 2308 radial grid points, with lMax = 2
  Transforming local potential to a uniform radial grid of dG=0.02 with 1668 points.
  Transforming nonlocal projectors to a uniform radial grid of dG=0.02 with 432 points.
    4S    l: 0   occupation:  2.0   eigenvalue: -1.172069
    4P    l: 1   occupation:  6.0   eigenvalue: -0.586674
    5S    l: 0   occupation:  1.0   eigenvalue: -0.082006
  Transforming atomic orbitals to a uniform radial grid of dG=0.02 with 432 points.
  Core radius for overlap checks: 2.60 bohrs.
  Reading pulay file /home/gridsan/aligho/DFT/build-Nov24/pseudopotentials/SG15/Rb_ONCV_PBE.pulay ... using dE_dnG = -1.360715e-05 computed for Ecut = 20.

Initialized 1 species with 1 total atoms.

Folded 1 k-points by 48x48x1 to 2304 k-points.

---------- Setting up k-points, bands, fillings ----------
Reduced to 217 k-points under symmetry. 
Computing the number of bands and number of electrons
Calculating initial fillings.
nElectrons:   9.000000   nBands: 6   nStates: 217

----- Setting up reduced wavefunction bases (one per k-point) -----
average nbasis = 32610.861 , ideal nbasis = 32609.909

---------- Setting up coulomb interaction ----------
Initialized slab truncation along lattice direction 001

---------- Setting up 2D ewald sum ----------
Optimum gaussian width for ewald sums = 8.240961 bohr.
Real space sums over 289 unit cells with max indices [  8  8  0  ]
Reciprocal space sums over 81 terms with max indices [  4  4  0  ]

---------- Allocating electronic variables ----------
Initializing wave functions:  linear combination of atomic orbitals
Note: number of bands (6) exceeds available atomic orbitals (5)
Rb pseudo-atom occupations:   s ( 2 1 )  p ( 6 )
[d-16-7-2:14772] 18 more processes have sent help message help-mpi-common-cuda.txt / dlopen failed
[d-16-7-2:14772] Set MCA parameter "orte_base_help_aggregate" to 0 to see all help / error messages
[d-16-7-2:14772] 18 more processes have sent help message help-mpi-btl-openib-cpc-base.txt / no cpcs for port
	FillingsUpdate:  mu: -0.083215265  nElectrons: 9.000000
LCAOMinimize: Iter:   0  F: -24.4353985762984003  |grad|_K:  6.252e-06  alpha:  1.000e+00
	FillingsUpdate:  mu: -0.083212179  nElectrons: 9.000000
LCAOMinimize: Iter:   1  F: -24.4353987269605355  |grad|_K:  4.714e-08  alpha:  9.868e-01  linmin: -1.518e-02  cgtest:  3.680e-01  t[s]:     23.72
LCAOMinimize: Encountered beta<0, resetting CG.
	FillingsUpdate:  mu: -0.083212181  nElectrons: 9.000000
LCAOMinimize: Iter:   2  F: -24.4353987269690265  |grad|_K:  8.754e-10  alpha:  9.816e-01  linmin: -5.003e-02  cgtest:  9.874e-01  t[s]:     31.99
LCAOMinimize: Encountered beta<0, resetting CG.
LCAOMinimize: Converged (|Delta F|<1.000000e-06 for 2 iters).


---- Citations for features of the code used in this run ----

   Software package:
      R. Sundararaman, K. Letchworth-Weaver, K.A. Schwarz, D. Gunceler, Y. Ozhabes and T.A. Arias, 'JDFTx: software for joint density-functional theory', SoftwareX 6, 278 (2017)

   gga-PBE exchange-correlation functional:
      J.P. Perdew, K. Burke and M. Ernzerhof, Phys. Rev. Lett. 77, 3865 (1996)

   Pseudopotentials:
      M Schlipf and F Gygi, Comput. Phys. Commun. 196, 36 (2015)

   Truncated Coulomb potentials:
      R. Sundararaman and T.A. Arias, Phys. Rev. B 87, 165122 (2013)

   Total energy minimization with Auxiliary Hamiltonian:
      C. Freysoldt, S. Boeck, and J. Neugebauer, Phys. Rev. B 79, 241103(R) (2009)

This list may not be complete. Please suggest additional citations or
report any other bugs at https://github.com/shankar1729/jdftx/issues

Initialization completed successfully at t[s]:     32.87


-------- Electronic minimization -----------
	FillingsUpdate:  mu: -0.083212181  nElectrons: 9.000000
ElecMinimize: Iter:   0  F: -24.435398726969037  |grad|_K:  1.504e-06  alpha:  1.000e+00
ElecMinimize: 	Predicted alpha/alphaT>3.000000, increasing alphaT to 3.000000e+00.
	FillingsUpdate:  mu: -0.082641202  nElectrons: 9.000000
	SubspaceRotationAdjust: set factor to 1
ElecMinimize: Iter:   1  F: -24.435983244082220  |grad|_K:  2.808e-06  alpha:  6.091e+00  linmin:  1.011e-04  t[s]:     54.06
	FillingsUpdate:  mu: -0.082652781  nElectrons: 9.000000
	SubspaceRotationAdjust: set factor to 1.03
ElecMinimize: Iter:   2  F: -24.435997056123906  |grad|_K:  2.754e-06  alpha:  2.098e-02  linmin: -9.281e-04  t[s]:     65.10
ElecMinimize: 	Predicted alpha/alphaT>3.000000, increasing alphaT to 6.293201e-02.
ElecMinimize: 	Predicted alpha/alphaT>3.000000, increasing alphaT to 1.887960e-01.
ElecMinimize: 	Predicted alpha/alphaT>3.000000, increasing alphaT to 5.663881e-01.
	FillingsUpdate:  mu: -0.083427067  nElectrons: 9.000000
	SubspaceRotationAdjust: set factor to 1.07
ElecMinimize: Iter:   3  F: -24.436381007222252  |grad|_K:  1.871e-06  alpha:  6.090e-01  linmin:  4.268e-05  t[s]:     82.95
	FillingsUpdate:  mu: -0.083727095  nElectrons: 9.000000
	SubspaceRotationAdjust: set factor to 0.868
ElecMinimize: Iter:   4  F: -24.436461369461892  |grad|_K:  2.343e-06  alpha:  7.416e-01  linmin:  4.920e-04  t[s]:     93.93
ElecMinimize: 	Bad step direction: g.d > 0.
ElecMinimize: 	Undoing step.
ElecMinimize: 	Step failed: resetting search direction.
	FillingsUpdate:  mu: -0.083727095  nElectrons: 9.000000
	SubspaceRotationAdjust: set factor to 1.2
ElecMinimize: Iter:   5  F: -24.436461369461895  |grad|_K:  2.259e-06  alpha:  0.000e+00
	FillingsUpdate:  mu: -0.083577370  nElectrons: 9.000000
	SubspaceRotationAdjust: set factor to 1.36
ElecMinimize: Iter:   6  F: -24.436608907535401  |grad|_K:  7.468e-07  alpha:  6.907e-01  linmin: -7.891e-04  t[s]:    112.59
	FillingsUpdate:  mu: -0.083683135  nElectrons: 9.000000
	SubspaceRotationAdjust: set factor to 1.27
ElecMinimize: Iter:   7  F: -24.436649996754468  |grad|_K:  8.011e-07  alpha:  1.550e+00  linmin: -2.100e-04  t[s]:    123.64
	FillingsUpdate:  mu: -0.083905044  nElectrons: 9.000000
	SubspaceRotationAdjust: set factor to 0.653
ElecMinimize: Iter:   8  F: -24.436670317074785  |grad|_K:  7.374e-06  alpha:  2.414e+00  linmin:  7.218e-03  t[s]:    134.69
ElecMinimize: 	Bad step direction: g.d > 0.
ElecMinimize: 	Undoing step.
ElecMinimize: 	Step failed: resetting search direction.
	FillingsUpdate:  mu: -0.083905044  nElectrons: 9.000000
	SubspaceRotationAdjust: set factor to 0.341
ElecMinimize: Iter:   9  F: -24.436670317074785  |grad|_K:  5.328e-06  alpha:  0.000e+00
	FillingsUpdate:  mu: -0.083881187  nElectrons: 9.000000
	SubspaceRotationAdjust: set factor to 0.32
ElecMinimize: Iter:  10  F: -24.436749813774167  |grad|_K:  7.918e-07  alpha:  1.210e+00  linmin:  3.557e-04  t[s]:    153.30
	FillingsUpdate:  mu: -0.083856274  nElectrons: 9.000000
	SubspaceRotationAdjust: set factor to 0.344
ElecMinimize: Iter:  11  F: -24.436766031004332  |grad|_K:  3.931e-07  alpha:  6.132e-01  linmin: -1.319e-05  t[s]:    164.35
ElecMinimize: 	Predicted alpha/alphaT>3.000000, increasing alphaT to 1.839748e+00.
	FillingsUpdate:  mu: -0.083844349  nElectrons: 9.000000
	SubspaceRotationAdjust: set factor to 0.346
ElecMinimize: Iter:  12  F: -24.436786612195242  |grad|_K:  5.996e-07  alpha:  3.286e+00  linmin:  3.157e-04  t[s]:    178.82
	FillingsUpdate:  mu: -0.083832767  nElectrons: 9.000000
	SubspaceRotationAdjust: set factor to 0.348
ElecMinimize: Iter:  13  F: -24.436797842596000  |grad|_K:  4.400e-07  alpha:  5.634e-01  linmin: -1.489e-03  t[s]:    189.85
	FillingsUpdate:  mu: -0.083823033  nElectrons: 9.000000
	SubspaceRotationAdjust: set factor to 0.355
ElecMinimize: Iter:  14  F: -24.436808504017211  |grad|_K:  4.961e-07  alpha:  9.374e-01  linmin:  1.167e-04  t[s]:    200.88
	FillingsUpdate:  mu: -0.083840469  nElectrons: 9.000000
	SubspaceRotationAdjust: set factor to 0.362
ElecMinimize: Iter:  15  F: -24.436816499946868  |grad|_K:  5.267e-07  alpha:  7.797e-01  linmin:  7.469e-05  t[s]:    211.93
	FillingsUpdate:  mu: -0.083872304  nElectrons: 9.000000
	SubspaceRotationAdjust: set factor to 0.391
ElecMinimize: Iter:  16  F: -24.436821650918162  |grad|_K:  4.289e-07  alpha:  4.348e-01  linmin: -4.566e-05  t[s]:    222.97
	FillingsUpdate:  mu: -0.083893678  nElectrons: 9.000000
	SubspaceRotationAdjust: set factor to 0.465
ElecMinimize: Iter:  17  F: -24.436825000747358  |grad|_K:  3.480e-07  alpha:  4.229e-01  linmin:  3.097e-05  t[s]:    233.97
	FillingsUpdate:  mu: -0.083896685  nElectrons: 9.000000
	SubspaceRotationAdjust: set factor to 0.567
ElecMinimize: Iter:  18  F: -24.436827214030600  |grad|_K:  3.059e-07  alpha:  4.324e-01  linmin: -4.988e-05  t[s]:    244.99
	FillingsUpdate:  mu: -0.083888887  nElectrons: 9.000000
	SubspaceRotationAdjust: set factor to 0.642
ElecMinimize: Iter:  19  F: -24.436829095538528  |grad|_K:  2.849e-07  alpha:  4.695e-01  linmin: -1.243e-04  t[s]:    256.02
	FillingsUpdate:  mu: -0.083877731  nElectrons: 9.000000
	SubspaceRotationAdjust: set factor to 0.664
ElecMinimize: Iter:  20  F: -24.436830729040157  |grad|_K:  2.283e-07  alpha:  4.643e-01  linmin: -1.217e-04  t[s]:    267.06
	FillingsUpdate:  mu: -0.083873587  nElectrons: 9.000000
	SubspaceRotationAdjust: set factor to 0.67
ElecMinimize: Iter:  21  F: -24.436831702137400  |grad|_K:  1.660e-07  alpha:  4.299e-01  linmin: -6.584e-05  t[s]:    278.07
	FillingsUpdate:  mu: -0.083877916  nElectrons: 9.000000
	SubspaceRotationAdjust: set factor to 0.727
ElecMinimize: Iter:  22  F: -24.436832299877292  |grad|_K:  1.438e-07  alpha:  5.054e-01  linmin: -3.090e-05  t[s]:    289.06
	FillingsUpdate:  mu: -0.083885385  nElectrons: 9.000000
	SubspaceRotationAdjust: set factor to 0.813
ElecMinimize: Iter:  23  F: -24.436832787006487  |grad|_K:  1.310e-07  alpha:  5.520e-01  linmin:  1.035e-05  t[s]:    300.15
	FillingsUpdate:  mu: -0.083889397  nElectrons: 9.000000
	SubspaceRotationAdjust: set factor to 0.866
ElecMinimize: Iter:  24  F: -24.436833189664757  |grad|_K:  1.261e-07  alpha:  5.544e-01  linmin:  1.423e-05  t[s]:    311.28
	FillingsUpdate:  mu: -0.083888733  nElectrons: 9.000000
	SubspaceRotationAdjust: set factor to 0.87
ElecMinimize: Iter:  25  F: -24.436833561261711  |grad|_K:  1.171e-07  alpha:  5.543e-01  linmin:  2.410e-05  t[s]:    322.30
	FillingsUpdate:  mu: -0.083886209  nElectrons: 9.000000
	SubspaceRotationAdjust: set factor to 0.938
ElecMinimize: Iter:  26  F: -24.436833808274862  |grad|_K:  9.040e-08  alpha:  4.282e-01  linmin:  6.356e-06  t[s]:    333.33
	FillingsUpdate:  mu: -0.083884610  nElectrons: 9.000000
	SubspaceRotationAdjust: set factor to 1.14
ElecMinimize: Iter:  27  F: -24.436833953267669  |grad|_K:  7.586e-08  alpha:  4.191e-01  linmin:  2.990e-07  t[s]:    344.40
	FillingsUpdate:  mu: -0.083884837  nElectrons: 9.000000
	SubspaceRotationAdjust: set factor to 1.3
ElecMinimize: Iter:  28  F: -24.436834073904404  |grad|_K:  7.297e-08  alpha:  4.932e-01  linmin: -1.756e-05  t[s]:    355.44
	FillingsUpdate:  mu: -0.083887321  nElectrons: 9.000000
	SubspaceRotationAdjust: set factor to 1.31
ElecMinimize: Iter:  29  F: -24.436834178369221  |grad|_K:  6.347e-08  alpha:  4.605e-01  linmin: -1.732e-05  t[s]:    366.47
	FillingsUpdate:  mu: -0.083891075  nElectrons: 9.000000
	SubspaceRotationAdjust: set factor to 1.39
ElecMinimize: Iter:  30  F: -24.436834254509638  |grad|_K:  5.405e-08  alpha:  4.426e-01  linmin: -8.513e-06  t[s]:    377.49
	FillingsUpdate:  mu: -0.083894954  nElectrons: 9.000000
	SubspaceRotationAdjust: set factor to 1.64
ElecMinimize: Iter:  31  F: -24.436834312783585  |grad|_K:  4.806e-08  alpha:  4.685e-01  linmin:  7.445e-07  t[s]:    388.56
	FillingsUpdate:  mu: -0.083897822  nElectrons: 9.000000
	SubspaceRotationAdjust: set factor to 1.81
ElecMinimize: Iter:  32  F: -24.436834357428708  |grad|_K:  4.253e-08  alpha:  4.553e-01  linmin:  3.068e-06  t[s]:    399.62
	FillingsUpdate:  mu: -0.083899404  nElectrons: 9.000000
	SubspaceRotationAdjust: set factor to 1.78
ElecMinimize: Iter:  33  F: -24.436834393014660  |grad|_K:  4.036e-08  alpha:  4.642e-01  linmin:  4.266e-06  t[s]:    410.68
	FillingsUpdate:  mu: -0.083900137  nElectrons: 9.000000
	SubspaceRotationAdjust: set factor to 2.01
ElecMinimize: Iter:  34  F: -24.436834426066739  |grad|_K:  3.799e-08  alpha:  4.797e-01  linmin:  2.360e-06  t[s]:    421.72
	FillingsUpdate:  mu: -0.083900464  nElectrons: 9.000000
	SubspaceRotationAdjust: set factor to 2.5
ElecMinimize: Iter:  35  F: -24.436834451761296  |grad|_K:  3.152e-08  alpha:  4.201e-01  linmin: -1.518e-06  t[s]:    432.81
	FillingsUpdate:  mu: -0.083900861  nElectrons: 9.000000
	SubspaceRotationAdjust: set factor to 2.56
ElecMinimize: Iter:  36  F: -24.436834468048129  |grad|_K:  2.596e-08  alpha:  3.861e-01  linmin: -3.876e-06  t[s]:    443.92
	FillingsUpdate:  mu: -0.083901509  nElectrons: 9.000000
	SubspaceRotationAdjust: set factor to 2.6
ElecMinimize: Iter:  37  F: -24.436834480444880  |grad|_K:  2.444e-08  alpha:  4.324e-01  linmin: -3.220e-06  t[s]:    454.93
	FillingsUpdate:  mu: -0.083902363  nElectrons: 9.000000
	SubspaceRotationAdjust: set factor to 3.2
ElecMinimize: Iter:  38  F: -24.436834491638475  |grad|_K:  2.199e-08  alpha:  4.405e-01  linmin:  9.170e-07  t[s]:    465.95
	FillingsUpdate:  mu: -0.083903091  nElectrons: 9.000000
	SubspaceRotationAdjust: set factor to 3.19
ElecMinimize: Iter:  39  F: -24.436834499703700  |grad|_K:  1.884e-08  alpha:  3.929e-01  linmin:  1.752e-06  t[s]:    476.98
	FillingsUpdate:  mu: -0.083903670  nElectrons: 9.000000
	SubspaceRotationAdjust: set factor to 3.32
ElecMinimize: Iter:  40  F: -24.436834506051834  |grad|_K:  1.785e-08  alpha:  4.218e-01  linmin:  1.214e-06  t[s]:    488.06
ElecMinimize: Converged (|Delta F|<1.000000e-08 for 2 iters).
Setting wave functions to eigenvectors of Hamiltonian

# Ionic positions in lattice coordinates:
ion Rb   0.000000000000000   0.000000000000000   0.000000000000000 0

# Forces in Lattice coordinates:
force Rb  -0.000000000000000   0.000000000000000   0.000000000000000 0

# Energy components:
   Eewald =      -11.4955580256895935
       EH =        8.0157578643693697
     Eloc =      -23.4623573157550673
      Enl =       -0.7972279943989720
   Epulay =        0.0000000016956496
      Exc =       -3.6454375310351113
       KE =        6.9479885655111966
-------------------------------------
     Etot =      -24.4368344353025293
       TS =        0.0000000707493038
-------------------------------------
        F =      -24.4368345060518344

IonicMinimize: Iter:   0  F: -24.436834506051834  |grad|_K:  0.000e+00  t[s]:    489.32
IonicMinimize: Converged (|grad|_K<1.000000e-04).

#--- Lowdin population analysis ---
# oxidation-state Rb +0.025

End date and time: Sun Jan 16 16:07:29 2022  (Duration: 0-0:08:09.57)
Done!
